<LesHouchesEvents version="1.0">
<header>
<!--
#*********************************************************************
#                                                                    *
#                       MadGraph/MadEvent                            *
#                                                                    *
#                      The new web generation                        *
#                                                                    *
#                   http://madgraph.hep.uiuc.edu                     *
#                   http://madgraph.phys.ucl.ac.be                   *
#                   http://madgraph.roma2.infn.it                    *
#                                                                    *
#            CP3 team                      Tim Stelzer               *
#      Universite de Louvain          University of Illinois         *
#                                                                    *
#....................................................................*
#                                                                    *
# This file contains all the information necessary to reproduce      *
# the events generated:                                              *
#                                                                    *
# 1. software version                                                *
# 2. proc_card.dat      : code generation info including model       *
# 3. param_card.dat     : model primary parameters in the LH format  *
# 4. run_card.dat       : running parameters (collider and cuts)     *
# 5. pythia_card.dat    : present only in the pythia event file      *
# 6. pgs_card.dat       : present only in the pgs event file         *
#                                                                    *
#                                                                    *
#*********************************************************************
-->
<MGVersion>
# MG/ME version    : 4.4.17
# madgraph version : 4.4.2
# template version : 2.4.8
# helas version    : 3.5
# model version    : usrmod_1.0.4
</MGVersion>
<MGProcCard>
#*********************************************************************
#                        MadGraph/MadEvent                           *
#                   http://madgraph.hep.uiuc.edu                     *
#                                                                    *
#                          proc_card.dat                             *
#                                                                    *
# This file is used to generate the code for a specific process.     *
# Some notation/conventions:                                         *
#                                                                    *
# 0. Do not modify the TAGS and their order.                         *
# 1. hash/pound is a comment.                                        *
# 2. The number after the @ is used as an identifier for the class   *
#    of processes. It can be any positive integer.                   *
# 3. The number of lines for the max couplings depends on how many   *
#    different classes of couplings are present in the model         *
#    In the SM these are just two: QED (which include EW) and QCD    *
# 4. Write "end_coup" after  the couplings list,                     *
#    to tell MG that the couplings input is over.                    *
# 5. Write "done" after the proc list to                             *
#    to tell MG that the proc input is over.                         *
# 6. Some model names available at present are:                      *
#    sm     =  Standard Model                                        *
#    smckm =  Standard Model with Cabibbo matrix                     *
#    mssm   =  Minimal Supersymmetric Standard Model                 *
#    2hdm   =  Generic Two Higgs Doublet model                       *
#    heft   =  Higgs EFT (+Standard Model)                           *
#    usrmod =  User Model                                            *
# 7. Don't leave spaces between the particles name in the            *
#    definition of the multiparticles.                               *
#*********************************************************************
#*********************************************************************
# Process(es) requested : mg2 input                                  *
#*********************************************************************
# Begin PROCESS # This is TAG. Do not modify this line
e- N+ > e- N+ x      # Radiative
QCD=0             # Max QCD couplings
QED=1             # Max QED couplings
QFD=0 
QND=1
QWD=9
QDS=2
end_coup           # End the couplings input
done               # this tells MG there are no more procs
# End PROCESS  # This is TAG. Do not modify this line
#*********************************************************************
# Model information                                                  *
#*********************************************************************
# Begin MODEL  # This is TAG. Do not modify this line
fixedAP2     
# End   MODEL  # This is TAG. Do not modify this line
#*********************************************************************
# Start multiparticle definitions                                    *
#*********************************************************************
# Begin MULTIPARTICLES # This is TAG. Do not modify this line
P uu~cc~dd~ss~gf+f-
J uu~cc~dd~ss~gf+f-
L+ e+mu+
L- e-mu-
vl vevm
vl~ ve~vm~
# End  MULTIPARTICLES # This is TAG. Do not modify this line
</MGProcCard>
<slha>
#*********************************************************************
#                        MadGraph/MadEvent                           *
#                   http://madgraph.hep.uiuc.edu                     *
#                                                                    *
#                         param_card.dat                             *
#                                                                    *
#   Les Houches friendly file for the SM parameters of MadGraph      *
#        Spectrum and decay widths produced by SMCalc                *
#                                                                    *
#  Please note the following IMPORTANT issues:                       *
#                                                                    *
# 0. REFRAIN from editing this file by hand! Some of the parame-     *
#    ters are not independent                                        *
#    (such as G_Fermi, alpha_em, sin(theta_W),MZ,MW) and serious     *
#    problems might be encountered (such as violation of unitarity   *
#    or gauge invariance).  Always use a calculator.                 *
#                                                                    *
# 1. alpha_S(MZ) has been used in the calculation of the parameters  *
#    but, for consistency, it will be reset by madgraph to the       *
#    value expected IF the pdfs for collisions with hadrons are      *
#    used. This value is KEPT by madgraph when no pdf are used       *
#    lpp(i)=0 .                                                      *
#                                                                    *
#  2. Values of the charm and bottom kinematic (pole) masses are     *
#     those used in the matrix elements and phase space UNLESS they  *
#     are set to ZERO from the start in the model (particles.dat)    *
#     This happens, for example,  when using 5-flavor QCD where      *
#     charm and bottom are treated as partons in the initial state   *
#     and a zero mass might be hardwired in the model definition.    *
#                                                                    *
##********************************************************************
Block MODSEL # Select Model
     0   1   #  0 1 = SM
Block SMINPUTS      # Standard Model inputs
     1         1.27900000E+02   # alpha_em(MZ)(-1) SM MSbar
     2         1.16600000E-05   # G_Fermi
     3         1.18000000E-01   # alpha_s(MZ) SM MSbar
     4         9.15445065E+01   # Z mass (as input parameter)
Block MGYUKAWA     # Yukawa masses m/v=y/sqrt(2)
#    PDG          YMASS
     5         4.20000000E+00   # mbottom for the Yukawa  y_b
     4         1.25000000E+00   # mcharm  for the Yukawa  y_c
     6         1.74300000E+02   # mtop    for the Yukawa  y_t
    15         1.77700000E+00   # mtau    for the Yukawa  y_ta
Block MGCKM     # CKM elements for MadGraph
     1   1     9.75000000E-01   # Vud for Cabibbo matrix
#===========================================================
# QUANTUM NUMBERS OF NEW STATE(S) (NON SM PDG CODE) IF ANY
# (see below for masses and decay tables)
# These blocks are automatically created by the MadGraph
# qnumbers.pl script from the particles.dat model file
#===========================================================
BLOCK QNUMBERS 611 # f-
         1  -3 # 3 times electric charge
         2  2 # number of spin states (2S+1)
         3  1 # colour rep (1: singlet, 3: triplet, 8: octet)
         4  1 # Particle/Antiparticle distinction (0=own anti)
BLOCK QNUMBERS 622 # x
         1  0 # 3 times electric charge
         2  3 # number of spin states (2S+1)
         3  1 # colour rep (1: singlet, 3: triplet, 8: octet)
         4  0 # Particle/Antiparticle distinction (0=own anti)
BLOCK QNUMBERS 623 # N-
         1  0 # 3 times electric charge
         2  2 # number of spin states (2S+1)
         3  1 # colour rep (1: singlet, 3: triplet, 8: octet)
         4  1 # Particle/Antiparticle distinction (0=own anti)
# END of QNUMBERS blocks
#===========================================================
Block MASS      #  Mass spectrum (kinematic masses)
#       PDG       Mass
         4     1.40000000E+00   # charm    pole mass
         5     4.20000000E+00   # bottom   pole mass
         6     1.74300000E+02   # top      pole mass
        11     0.51109989E-03   # electron mass
        13     0.10565837E+00   # muon     mass
        15     1.77700000E+00   # tau      mass
        23     9.15445065E+01   # Z        mass
        24     8.02673592E+01   # W        mass
        25     1.20000000E+02   # H        mass
       611 0.0001 # FMASS
       622 0.02 # APMASS
       623     1.71300000e+02   # HPMASS (tungsten)
#            PDG       Width
DECAY       611     0.00000000e+00   # ELWIDTH
DECAY 622 0.000718790586026 # APWIDTH
DECAY       623     0.00000000e+00   # HPWIDTH
DECAY         6     1.51013490E+00   # top width
DECAY        23     2.44639985E+00   # Z   width
DECAY        24     2.03535570E+00   # W   width
DECAY        25     6.79485838E-03   # H   width
#        BR           NDA        ID1       ID2
     7.00588389E-02    2           4        -4   # BR( H -> c  cbar  )
     7.61074375E-01    2           5        -5   # BR( H -> b  bbar  )
     0.00000000E+00    2           6        -6   # BR( H -> t  tbar  )
     3.65529942E-02    2          15       -15   # BR( H -> tau- tau+)
     5.84716539E-03    2          23        23   # BR( H -> Z   Z^(*))
     6.31545979E-02    2          24       -24   # BR( H -> W   W^(*))
     2.55499652E-02    2          21        21   # BR( H -> g   g    )
     1.20906932E-03    2          22        22   # BR( H -> A   A    )
BLOCK MGUSER
         1     1.00000000e-00   # epsilon ,mixing coefficient
         2     74.0000000e+00   # Znuc    ,nuclear charge
</slha>
<MGRunCard>
#*********************************************************************
#                       MadGraph/MadEvent                            *
#                  http://madgraph.hep.uiuc.edu                      *
#                                                                    *
#                        run_card.dat                                *
#                                                                    *
#  This file is used to set the parameters of the run.               *
#                                                                    *
#  Some notation/conventions:                                        *
#                                                                    *
#   Lines starting with a '# ' are info or comments                  *
#                                                                    *
#   mind the format:   value    = variable     ! comment             *
#*********************************************************************
#
#*******************                                                 
# Running parameters
#*******************                                                 
#                                                                    
#*********************************************************************
# Tag name for the run (one word)                                    *
#*********************************************************************
  'HPS'     = run_tag ! name of the run 
#*********************************************************************
# Run to generate the grid pack                                      *
#*********************************************************************
  .false.     = gridpack  !True = setting up the grid pack
#*********************************************************************
# Number of events and rnd seed                                      *
#*********************************************************************
   50000      = nevents ! Number of unweighted events requested 
226525 = iseed ! rnd seed (0=assigned automatically=default))
#*********************************************************************
# Collider type and energy                                           *
#*********************************************************************
        0     = lpp1  ! beam 1 type (0=NO PDF)
        0     = lpp2  ! beam 2 type (0=NO PDF)
4.0 = ebeam1  ! beam 1 energy in GeV
    171.3    = ebeam2  ! beam 2 energy in GeV
    0.000511  = mbeam1  ! beam 1 energy in GeV
    171.3    = mbeam2  ! beam 2 energy in GeV
#*********************************************************************
# Beam polarization from -100 (left-handed) to 100 (right-handed)    *
#*********************************************************************
        0     = polbeam1 ! beam polarization for beam 1
        0     = polbeam2 ! beam polarization for beam 2
#*********************************************************************
# PDF CHOICE: this automatically fixes also alpha_s and its evol.    *
#*********************************************************************
 'cteq6l1'    = pdlabel     ! PDF set                                     
#*********************************************************************
# Renormalization and factorization scales                           *
#*********************************************************************
 F        = fixed_ren_scale  ! if .true. use fixed ren scale
 F        = fixed_fac_scale  ! if .true. use fixed fac scale
 91.1880  = scale            ! fixed ren scale
 91.1880  = dsqrt_q2fact1    ! fixed fact scale for pdf1
 91.1880  = dsqrt_q2fact2    ! fixed fact scale for pdf2
 1        = scalefact        ! scale factor for event-by-event scales
 F        = fixed_couplings  ! if .false. calc. coupl. for every event
#*********************************************************************
# Matching - Warning! ickkw > 0 is still beta
#*********************************************************************
 0        = ickkw            ! 0 no matching, 1 MLM, 2 CKKW matching
#*********************************************************************
#                                                                    
#**********************************
27.8245157753 = bwcutoff*Gamma)
#**********************************
27.8245157753 = bwcutoff
#*******************                                                 
# Fixed-Target Cuts
#*******************                                                 
#
 0.0 = ef        ! minimum E for all f's
 100.0 = efmax     ! maximum E for all f's
 0.0 = thetafmin ! min angle for both f's
 100.0 = thetafmax ! max angle for both f's
 0.0 = thetaxfmin ! min angle (x direction) for both f's
 100.0 = thetaxfmax ! max angle (x direction) for both f's 
 0.0 = thetayfmin ! min angle (y direction) for both f's
 100.0 = thetayfmax ! max angle (y direction) for both f's 
 0.0 = xthetaxfmin ! min angle (x direction) for >=1 f's
 100.0 = xthetaxfmax ! max angle (x direction) for >=1 f's 
 0.0 = xthetayfmin ! min angle (y direction) for >=1 f's
 100.0 = xthetayfmax ! max angle (y direction) for >=1 f's 
 0.0 = mmff      ! min invariant mass of f+f- lepton pair
 100.0 = mmffmax  ! max invariant mass of f+f- lepton pair
 0.0 = xef       ! min. energy for at least one f
 0.0 = xthetaf   ! minimum angle for at least one f
 0.0 = eftot     ! minimum energy for the two f's
 0d0 = efrat     ! min. ratio Emin/Emax for the two f's
0.0 = el  ! minimum E for the charged leptons
 0.0  = drll  !!! was 0.1  ! min distance between leptons 
 0.0  = mmll    ! min invariant mass of l+l- (same flavour) lepton pair
#
#*******************                                                 
# Standard Cuts
#*******************                                                 
#                                                                    
#*********************************************************************
# Minimum and maximum pt's                                           *
#*********************************************************************
  0  = ptj       ! minimum pt for the jets 
  0  = ptb       ! minimum pt for the b 
  0  = pta       ! minimum pt for the photons 
  0  = ptl       ! minimum pt for the charged leptons 
  0  = misset    ! minimum missing Et (sum of neutrino's momenta)
  0  = ptheavy   ! minimum pt for one heavy final state
 1.0 = ptonium   ! minimum pt for the quarkonium states
 1d5 = ptjmax    ! maximum pt for the jets
 1d5 = ptbmax    ! maximum pt for the b
 1d5 = ptamax    ! maximum pt for the photons
 1d9 = ptlmax    ! maximum pt for the charged leptons
 1d9 = missetmax ! maximum missing Et (sum of neutrino's momenta)
#*********************************************************************
# Minimum and maximum E's (in the lab frame)                         *
#*********************************************************************
  0  = ej     ! minimum E for the jets 
  0  = eb     ! minimum E for the b 
  0  = ea     ! minimum E for the photons 
 1d5  = ejmax ! maximum E for the jets
 1d5  = ebmax ! maximum E for the b
 1d5  = eamax ! maximum E for the photons
4.0 = elmax  ! maximum E for the charged leptons
#*********************************************************************
# Maximum and minimum rapidity                                       *
#*********************************************************************
 1d5  = etaj    ! max rap for the jets 
 1d5  = etab    ! max rap for the b 
 1d5  = etaa    ! max rap for the photons 
 1d5  = etal     !!! 1(2) wth cuts ! max rap for the charged leptons 
 1d5  = etafl     !!! 0(1) wth cuts ! max rap for the charged leptons 
 0.0  = etaonium ! max rap for the quarkonium states
 0d0  = etajmin ! min rap for the jets
 0d0  = etabmin ! min rap for the b
 0d0  = etaamin ! min rap for the photons
 0d0  = etalmin ! main rap for the charged lepton
#*********************************************************************
# Minimum and maximum DeltaR distance                                *
#*********************************************************************
 0   = drjj    ! min distance between jets 
 0   = drbb    ! min distance between b's 
 0   = draa    ! min distance between gammas 
 0   = drbj    ! min distance between b and jet 
 0   = draj    ! min distance between gamma and jet 
 0   = drjl    ! min distance between jet and lepton 
 0   = drab    ! min distance between gamma and b 
 0   = drbl    ! min distance between b and lepton 
 0   = dral    ! min distance between gamma and lepton 
 1d2 = drjjmax ! max distance between jets
 1d2 = drbbmax ! max distance between b's
 1d9 = drllmax ! max distance between leptons
 1d2 = draamax ! max distance between gammas
 1d2 = drbjmax ! max distance between b and jet
 1d2 = drajmax ! max distance between gamma and jet
 1d2 = drjlmax ! max distance between jet and lepton
 1d2 = drabmax ! max distance between gamma and b
 1d2 = drblmax ! max distance between b and lepton
 1d2 = dralmax ! maxdistance between gamma and lepton
#*********************************************************************
# Minimum and maximum invariant mass for pairs                       *
#*********************************************************************
 0   = mmjj    ! min invariant mass of a jet pair 
 0   = mmbb    ! min invariant mass of a b pair 
 0   = mmaa    ! min invariant mass of gamma gamma pair
 1d5 = mmjjmax ! max invariant mass of a jet pair
 1d5 = mmbbmax ! max invariant mass of a b pair
 1d5 = mmaamax ! max invariant mass of gamma gamma pair
 1d5 = mmllmax ! max invariant mass of l+l- (same flavour) lepton pair
#*********************************************************************
# Minimum and maximum invariant mass for all letpons                 *
#*********************************************************************
 0   = mmnl    ! min invariant mass for all letpons (l+- and vl) 
 1d9 = mmnlmax ! max invariant mass for all letpons (l+- and vl) 
#*********************************************************************
# Inclusive cuts                                                     *
#*********************************************************************
 0  = xptj ! minimum pt for at least one jet  
 0  = xptb ! minimum pt for at least one b 
 0  = xpta ! minimum pt for at least one photon 
 0  = xptl ! minimum pt for at least one charged lepton 
#*********************************************************************
# Control the pt's of the jets sorted by pt                          *
#*********************************************************************
 0   = ptj1min ! minimum pt for the leading jet in pt
 0   = ptj2min ! minimum pt for the second jet in pt
 0   = ptj3min ! minimum pt for the third jet in pt
 0   = ptj4min ! minimum pt for the fourth jet in pt
 1d5 = ptj1max ! maximum pt for the leading jet in pt 
 1d5 = ptj2max ! maximum pt for the second jet in pt
 1d5 = ptj3max ! maximum pt for the third jet in pt
 1d5 = ptj4max ! maximum pt for the fourth jet in pt
 0   = cutuse  ! reject event if fails any (0) / all (1) jet pt cuts
#*********************************************************************
# Control the Ht(k)=Sum of k leading jets                            *
#*********************************************************************
 0   = htjmin ! minimum jet HT=Sum(jet pt)
 1d5 = htjmax ! maximum jet HT=Sum(jet pt)
 0   = ht2min ! minimum Ht for the two leading jets
 0   = ht3min ! minimum Ht for the three leading jets
 0   = ht4min ! minimum Ht for the four leading jets
 1d5 = ht2max ! maximum Ht for the two leading jets
 1d5 = ht3max ! maximum Ht for the three leading jets
 1d5 = ht4max ! maximum Ht for the four leading jets
#*********************************************************************
# WBF cuts                                                           *
#*********************************************************************
 0   = xetamin ! minimum rapidity for two jets in the WBF case  
 0   = deltaeta ! minimum rapidity for two jets in the WBF case 
#*********************************************************************
# maximal pdg code for quark to be considered as a jet               *
# otherwise b cuts are applied                                       *
#*********************************************************************
 4 = maxjetflavor
#*********************************************************************
# Jet measure cuts                                                   *
#*********************************************************************
 0   = xqcut   ! minimum kt jet measure between partons
#*********************************************************************
</MGRunCard>
<MGGenerationInfo>
#  Number of Events        :        4280
#  Integrated weight (pb)  :  .15421E+12
#  Truncated wgt (pb)      :  .39834E+09
#  Unit wgt                :  .36030E+08
</MGGenerationInfo>
</header>
<init>
       11     -623  0.40000000000E+01  0.17130000000E+03 0 0     0     0 3  1
  0.71881404560E+11  0.00000000000E+00  0.36030373832E+08   0
</init>
<event>
 5   0  0.3603037E+08  0.9118800E+02  0.7818608E-02  0.1180000E+00
       11   -1    0    0    0    0  0.00000000000E+00  0.00000000000E+00  0.39999999673E+01  0.40000000000E+01  0.51109989000E-03 0. -1.
     -623   -1    0    0    0    0  0.00000000000E+00  0.00000000000E+00  0.12525980253E-10  0.17130000000E+03  0.17130000000E+03 0. -1.
       11    1    1    2    0    0 -0.51548849843E-02  0.37055179729E-02  0.70091760474E+00  0.70094654116E+00  0.51109989000E-03 0. -1.
     -623    1    1    2    0    0 -0.63353563216E-04 -0.37711042557E-04  0.95693776197E-04  0.17130000000E+03  0.17130000000E+03 0. -1.
      622    1    1    2    0    0  0.52182385475E-02 -0.36678069303E-02  0.32989866688E+01  0.32990534588E+01  0.20000000000E-01 0. -1.
</event>
<event>
 5   0  0.3603037E+08  0.9118800E+02  0.7818608E-02  0.1180000E+00
       11   -1    0    0    0    0  0.00000000000E+00  0.00000000000E+00  0.39999999673E+01  0.40000000000E+01  0.51109989000E-03 0.  1.
     -623   -1    0    0    0    0  0.00000000000E+00  0.00000000000E+00  0.12525980253E-10  0.17130000000E+03  0.17130000000E+03 0. -1.
       11    1    1    2    0    0  0.61818912009E-02 -0.21390004272E-01  0.23396075076E+00  0.23501838690E+00  0.51109989000E-03 0.  1.
     -623    1    1    2    0    0 -0.13461374141E-01 -0.21227812123E-03  0.11802706167E-02  0.17130000053E+03  0.17130000000E+03 0. -1.
      622    1    1    2    0    0  0.72794829399E-02  0.21602282393E-01  0.37648589460E+01  0.37649810800E+01  0.20000000000E-01 0.  1.
</event>
<event>
 5   0  0.3603037E+08  0.9118800E+02  0.7818608E-02  0.1180000E+00
       11   -1    0    0    0    0  0.00000000000E+00  0.00000000000E+00  0.39999999673E+01  0.40000000000E+01  0.51109989000E-03 0. -1.
     -623   -1    0    0    0    0  0.00000000000E+00  0.00000000000E+00  0.12525980253E-10  0.17130000000E+03  0.17130000000E+03 0.  1.
       11    1    1    2    0    0  0.11389448991E-02 -0.57162398046E-03  0.46390394031E-01  0.46410708140E-01  0.51109989000E-03 0.  1.
     -623    1    1    2    0    0  0.12132539815E-02 -0.51372405848E-04  0.71621874343E-04  0.17130000000E+03  0.17130000000E+03 0.  1.
      622    1    1    2    0    0 -0.23521988806E-02  0.62299638630E-03  0.39535379515E+01  0.39535892875E+01  0.20000000000E-01 0. -1.
</event>
<event>
 5   0  0.3603037E+08  0.9118800E+02  0.7818608E-02  0.1180000E+00
       11   -1    0    0    0    0  0.00000000000E+00  0.00000000000E+00  0.39999999673E+01  0.40000000000E+01  0.51109989000E-03 0. -1.
     -623   -1    0    0    0    0  0.00000000000E+00  0.00000000000E+00  0.12525980253E-10  0.17130000000E+03  0.17130000000E+03 0.  1.
       11    1    1    2    0    0 -0.36142099835E-04 -0.40013642250E-03  0.26833339545E-01  0.26841213614E-01  0.51109989000E-03 0. -1.
     -623    1    1    2    0    0  0.25551763429E-03  0.10429162897E-03  0.58196833641E-04  0.17130000000E+03  0.17130000000E+03 0.  1.
      622    1    1    2    0    0 -0.21937553446E-03  0.29584479353E-03  0.39731084310E+01  0.39731587862E+01  0.20000000000E-01 0. -1.
</event>
<event>
 5   0  0.3603037E+08  0.9118800E+02  0.7818608E-02  0.1180000E+00
       11   -1    0    0    0    0  0.00000000000E+00  0.00000000000E+00  0.39999999673E+01  0.40000000000E+01  0.51109989000E-03 0. -1.
     -623   -1    0    0    0    0  0.00000000000E+00  0.00000000000E+00  0.12525980253E-10  0.17130000000E+03  0.17130000000E+03 0.  1.
       11    1    1    2    0    0  0.43165566454E-03 -0.96491232006E-03  0.27998031911E-01  0.28022640768E-01  0.51109989000E-03 0. -1.
     -623    1    1    2    0    0  0.11173812274E-02  0.16976849042E-02  0.75311017283E-04  0.17130000001E+03  0.17130000000E+03 0.  1.
      622    1    1    2    0    0 -0.15490368919E-02 -0.73277258410E-03  0.39719266244E+01  0.39719773472E+01  0.20000000000E-01 0. -1.
</event>
<event>
 5   0  0.3603037E+08  0.9118800E+02  0.7818608E-02  0.1180000E+00
       11   -1    0    0    0    0  0.00000000000E+00  0.00000000000E+00  0.39999999673E+01  0.40000000000E+01  0.51109989000E-03 0.  1.
     -623   -1    0    0    0    0  0.00000000000E+00  0.00000000000E+00  0.12525980253E-10  0.17130000000E+03  0.17130000000E+03 0. -1.
       11    1    1    2    0    0  0.86357177921E-02 -0.10281246466E-01  0.26129479849E+01  0.26129825320E+01  0.51109989000E-03 0.  1.
     -623    1    1    2    0    0  0.71891819867E-03 -0.18622305617E-03  0.24977076432E-03  0.17130000000E+03  0.17130000000E+03 0. -1.
      622    1    1    2    0    0 -0.93546359907E-02  0.10467469522E-01  0.13868022117E+01  0.13870174662E+01  0.20000000000E-01 0.  0.
</event>
<event>
 5   0  0.3603037E+08  0.9118800E+02  0.7818608E-02  0.1180000E+00
       11   -1    0    0    0    0  0.00000000000E+00  0.00000000000E+00  0.39999999673E+01  0.40000000000E+01  0.51109989000E-03 0. -1.
     -623   -1    0    0    0    0  0.00000000000E+00  0.00000000000E+00  0.12525980253E-10  0.17130000000E+03  0.17130000000E+03 0.  1.
       11    1    1    2    0    0 -0.65370261222E-02 -0.12474233355E-02  0.28856480301E+00  0.28864198504E+00  0.51109989000E-03 0. -1.
     -623    1    1    2    0    0 -0.19421560103E-04 -0.79199738100E-03  0.13739202040E-03  0.17130000000E+03  0.17130000000E+03 0.  1.
      622    1    1    2    0    0  0.65564476823E-02  0.20394207164E-02  0.37112977723E+01  0.37113580131E+01  0.20000000000E-01 0. -1.
</event>
<event>
 5   0  0.3603037E+08  0.9118800E+02  0.7818608E-02  0.1180000E+00
       11   -1    0    0    0    0  0.00000000000E+00  0.00000000000E+00  0.39999999673E+01  0.40000000000E+01  0.51109989000E-03 0.  1.
     -623   -1    0    0    0    0  0.00000000000E+00  0.00000000000E+00  0.12525980253E-10  0.17130000000E+03  0.17130000000E+03 0. -1.
       11    1    1    2    0    0  0.47211147386E-02  0.42096082840E-02  0.86868618386E+00  0.86870936278E+00  0.51109989000E-03 0.  1.
     -623    1    1    2    0    0 -0.34733185277E-03 -0.19128741115E-03  0.92651920713E-04  0.17130000000E+03  0.17130000000E+03 0. -1.
      622    1    1    2    0    0 -0.43737828858E-02 -0.40183208729E-02  0.31312211316E+01  0.31312906367E+01  0.20000000000E-01 0.  0.
</event>
<event>
 5   0  0.3603037E+08  0.9118800E+02  0.7818608E-02  0.1180000E+00
       11   -1    0    0    0    0  0.00000000000E+00  0.00000000000E+00  0.39999999673E+01  0.40000000000E+01  0.51109989000E-03 0. -1.
     -623   -1    0    0    0    0  0.00000000000E+00  0.00000000000E+00  0.12525980253E-10  0.17130000000E+03  0.17130000000E+03 0. -1.
       11    1    1    2    0    0 -0.30106620649E-02 -0.10854245449E-03  0.18004994575E+00  0.18007587305E+00  0.51109989000E-03 0. -1.
     -623    1    1    2    0    0  0.39613953661E-02 -0.48181381754E-02  0.81661071524E-04  0.17130000011E+03  0.17130000000E+03 0. -1.
      622    1    1    2    0    0 -0.95073330114E-03  0.49266806299E-02  0.38198683605E+01  0.38199240134E+01  0.20000000000E-01 0. -1.
</event>
<event>
 5   0  0.3603037E+08  0.9118800E+02  0.7818608E-02  0.1180000E+00
       11   -1    0    0    0    0  0.00000000000E+00  0.00000000000E+00  0.39999999673E+01  0.40000000000E+01  0.51109989000E-03 0.  1.
     -623   -1    0    0    0    0  0.00000000000E+00  0.00000000000E+00  0.12525980253E-10  0.17130000000E+03  0.17130000000E+03 0. -1.
       11    1    1    2    0    0 -0.86327628558E-02 -0.21902096599E-02  0.22774382565E+00  0.22791847875E+00  0.51109989000E-03 0.  1.
     -623    1    1    2    0    0  0.12128249844E-01  0.72999124265E-02  0.23330750557E-03  0.17130000059E+03  0.17130000000E+03 0. -1.
      622    1    1    2    0    0 -0.34954869884E-02 -0.51097027667E-02  0.37720228342E+01  0.37720809362E+01  0.20000000000E-01 0.  1.
</event>
<event>
 5   0  0.3603037E+08  0.9118800E+02  0.7818608E-02  0.1180000E+00
       11   -1    0    0    0    0  0.00000000000E+00  0.00000000000E+00  0.39999999673E+01  0.40000000000E+01  0.51109989000E-03 0. -1.
     -623   -1    0    0    0    0  0.00000000000E+00  0.00000000000E+00  0.12525980253E-10  0.17130000000E+03  0.17130000000E+03 0.  1.
       11    1    1    2    0    0 -0.13275892036E-02 -0.56373118815E-03  0.48000480925E+00  0.48000724829E+00  0.51109989000E-03 0. -1.
     -623    1    1    2    0    0 -0.74414967110E-03  0.22186168473E-02  0.60239854316E-04  0.17130000002E+03  0.17130000000E+03 0.  1.
      622    1    1    2    0    0  0.20717388747E-02 -0.16548856591E-02  0.35199349183E+01  0.35199927357E+01  0.20000000000E-01 0. -1.
</event>
<event>
 5   0  0.3603037E+08  0.9118800E+02  0.7818608E-02  0.1180000E+00
       11   -1    0    0    0    0  0.00000000000E+00  0.00000000000E+00  0.39999999673E+01  0.40000000000E+01  0.51109989000E-03 0. -1.
     -623   -1    0    0    0    0  0.00000000000E+00  0.00000000000E+00  0.12525980253E-10  0.17130000000E+03  0.17130000000E+03 0.  1.
       11    1    1    2    0    0 -0.26085375340E-01  0.22329784237E-01  0.22539388993E+00  0.22799502825E+00  0.51109989000E-03 0. -1.
     -623    1    1    2    0    0 -0.27532336405E-02 -0.68111073749E-02  0.27964783779E-02  0.17130000018E+03  0.17130000000E+03 0.  1.
      622    1    1    2    0    0  0.28838608980E-01 -0.15518676862E-01  0.37718095991E+01  0.37720047914E+01  0.20000000000E-01 0. -1.
</event>
<event>
 5   0  0.3603037E+08  0.9118800E+02  0.7818608E-02  0.1180000E+00
       11   -1    0    0    0    0  0.00000000000E+00  0.00000000000E+00  0.39999999673E+01  0.40000000000E+01  0.51109989000E-03 0. -1.
     -623   -1    0    0    0    0  0.00000000000E+00  0.00000000000E+00  0.12525980253E-10  0.17130000000E+03  0.17130000000E+03 0. -1.
       11    1    1    2    0    0  0.58430801130E-03  0.19362281384E-02  0.22440910126E-01  0.22537658812E-01  0.51109989000E-03 0. -1.
     -623    1    1    2    0    0 -0.39678456822E-03 -0.14770050543E-03  0.14740681353E-03  0.17130000000E+03  0.17130000000E+03 0. -1.
      622    1    1    2    0    0 -0.18752344308E-03 -0.17885276330E-02  0.39774116504E+01  0.39774623406E+01  0.20000000000E-01 0. -1.
</event>
<event>
 5   0  0.3603037E+08  0.9118800E+02  0.7818608E-02  0.1180000E+00
       11   -1    0    0    0    0  0.00000000000E+00  0.00000000000E+00  0.39999999673E+01  0.40000000000E+01  0.51109989000E-03 0.  1.
     -623   -1    0    0    0    0  0.00000000000E+00  0.00000000000E+00  0.12525980253E-10  0.17130000000E+03  0.17130000000E+03 0.  1.
       11    1    1    2    0    0 -0.25013978427E-02  0.30529970216E-02  0.43152570703E-01  0.43335705393E-01  0.51109989000E-03 0.  1.
     -623    1    1    2    0    0 -0.19870569274E-03  0.16289808034E-03  0.23587859468E-03  0.17130000000E+03  0.17130000000E+03 0.  1.
      622    1    1    2    0    0  0.27001035355E-02 -0.32158951020E-02  0.39566115181E+01  0.39566642943E+01  0.20000000000E-01 0.  1.
</event>
<event>
 5   0  0.3603037E+08  0.9118800E+02  0.7818608E-02  0.1180000E+00
       11   -1    0    0    0    0  0.00000000000E+00  0.00000000000E+00  0.39999999673E+01  0.40000000000E+01  0.51109989000E-03 0.  1.
     -623   -1    0    0    0    0  0.00000000000E+00  0.00000000000E+00  0.12525980253E-10  0.17130000000E+03  0.17130000000E+03 0.  1.
       11    1    1    2    0    0  0.10850278968E-02  0.28446621455E-03  0.91856252670E-02  0.92679630366E-02  0.51109989000E-03 0.  1.
     -623    1    1    2    0    0  0.33884631579E-03  0.84496644003E-03  0.13283787709E-03  0.17130000000E+03  0.17130000000E+03 0.  1.
      622    1    1    2    0    0 -0.14238742126E-02 -0.11294326546E-02  0.39906815042E+01  0.39907320345E+01  0.20000000000E-01 0.  1.
</event>
<event>
 5   0  0.3603037E+08  0.9118800E+02  0.7818608E-02  0.1180000E+00
       11   -1    0    0    0    0  0.00000000000E+00  0.00000000000E+00  0.39999999673E+01  0.40000000000E+01  0.51109989000E-03 0. -1.
     -623   -1    0    0    0    0  0.00000000000E+00  0.00000000000E+00  0.12525980253E-10  0.17130000000E+03  0.17130000000E+03 0.  1.
       11    1    1    2    0    0 -0.81597880015E-02 -0.83525715436E-03  0.29837095361E+00  0.29848411512E+00  0.51109989000E-03 0. -1.
     -623    1    1    2    0    0 -0.28603085210E-03  0.16893361295E-04  0.17688761853E-03  0.17130000000E+03  0.17130000000E+03 0.  1.
      622    1    1    2    0    0  0.84458188536E-02  0.81836379307E-03  0.37014521261E+01  0.37015158846E+01  0.20000000000E-01 0.  0.
</event>
<event>
 5   0  0.3603037E+08  0.9118800E+02  0.7818608E-02  0.1180000E+00
       11   -1    0    0    0    0  0.00000000000E+00  0.00000000000E+00  0.39999999673E+01  0.40000000000E+01  0.51109989000E-03 0.  1.
     -623   -1    0    0    0    0  0.00000000000E+00  0.00000000000E+00  0.12525980253E-10  0.17130000000E+03  0.17130000000E+03 0.  1.
       11    1    1    2    0    0  0.28295740482E-02 -0.35609198296E-02  0.55820701296E-01  0.56008022240E-01  0.51109989000E-03 0.  1.
     -623    1    1    2    0    0  0.40401790120E-03 -0.37994459097E-04  0.24096695084E-03  0.17130000000E+03  0.17130000000E+03 0.  1.
      622    1    1    2    0    0 -0.32335919494E-02  0.35989142887E-02  0.39439382991E+01  0.39439919771E+01  0.20000000000E-01 0.  1.
</event>
<event>
 5   0  0.3603037E+08  0.9118800E+02  0.7818608E-02  0.1180000E+00
       11   -1    0    0    0    0  0.00000000000E+00  0.00000000000E+00  0.39999999673E+01  0.40000000000E+01  0.51109989000E-03 0. -1.
     -623   -1    0    0    0    0  0.00000000000E+00  0.00000000000E+00  0.12525980253E-10  0.17130000000E+03  0.17130000000E+03 0.  1.
       11    1    1    2    0    0 -0.81476236821E-02  0.10772609633E-01  0.57418891185E+00  0.57434797867E+00  0.51109989000E-03 0. -1.
     -623    1    1    2    0    0  0.65606789724E-02 -0.10482833287E-01  0.21824410014E-03  0.17130000045E+03  0.17130000000E+03 0.  1.
      622    1    1    2    0    0  0.15869447097E-02 -0.28977634649E-03  0.34255928114E+01  0.34256515748E+01  0.20000000000E-01 0.  0.
</event>
<event>
 5   0  0.3603037E+08  0.9118800E+02  0.7818608E-02  0.1180000E+00
       11   -1    0    0    0    0  0.00000000000E+00  0.00000000000E+00  0.39999999673E+01  0.40000000000E+01  0.51109989000E-03 0. -1.
     -623   -1    0    0    0    0  0.00000000000E+00  0.00000000000E+00  0.12525980253E-10  0.17130000000E+03  0.17130000000E+03 0.  1.
       11    1    1    2    0    0 -0.25385707963E-01 -0.13617518544E-01  0.15194663945E+01  0.15197395356E+01  0.51109989000E-03 0. -1.
     -623    1    1    2    0    0 -0.33701667472E-03  0.40156394794E-03  0.52235452479E-03  0.17130000000E+03  0.17130000000E+03 0.  1.
      622    1    1    2    0    0  0.25722724638E-01  0.13215954596E-01  0.24800112183E+01  0.24802604628E+01  0.20000000000E-01 0. -1.
</event>
<event>
 5   0  0.3603037E+08  0.9118800E+02  0.7818608E-02  0.1180000E+00
       11   -1    0    0    0    0  0.00000000000E+00  0.00000000000E+00  0.39999999673E+01  0.40000000000E+01  0.51109989000E-03 0. -1.
     -623   -1    0    0    0    0  0.00000000000E+00  0.00000000000E+00  0.12525980253E-10  0.17130000000E+03  0.17130000000E+03 0.  1.
       11    1    1    2    0    0 -0.43275477403E-03  0.90142366588E-03  0.70628560415E-01  0.70637487273E-01  0.51109989000E-03 0. -1.
     -623    1    1    2    0    0 -0.32251963599E-03 -0.26454834333E-03  0.59918109294E-04  0.17130000000E+03  0.17130000000E+03 0.  1.
      622    1    1    2    0    0  0.75527441002E-03 -0.63687532256E-03  0.39293114888E+01  0.39293625122E+01  0.20000000000E-01 0. -1.
</event>
<event>
 5   0  0.3603037E+08  0.9118800E+02  0.7818608E-02  0.1180000E+00
       11   -1    0    0    0    0  0.00000000000E+00  0.00000000000E+00  0.39999999673E+01  0.40000000000E+01  0.51109989000E-03 0.  1.
     -623   -1    0    0    0    0  0.00000000000E+00  0.00000000000E+00  0.12525980253E-10  0.17130000000E+03  0.17130000000E+03 0. -1.
       11    1    1    2    0    0 -0.55378128375E-03  0.19027953902E-03  0.29075835809E-01  0.29086222308E-01  0.51109989000E-03 0.  1.
     -623    1    1    2    0    0  0.79028762053E-04  0.18563058753E-03  0.60766722469E-04  0.17130000000E+03  0.17130000000E+03 0. -1.
      622    1    1    2    0    0  0.47475252170E-03 -0.37591012655E-03  0.39708633648E+01  0.39709137776E+01  0.20000000000E-01 0.  1.
</event>
<event>
 5   0  0.3603037E+08  0.9118800E+02  0.7818608E-02  0.1180000E+00
       11   -1    0    0    0    0  0.00000000000E+00  0.00000000000E+00  0.39999999673E+01  0.40000000000E+01  0.51109989000E-03 0. -1.
     -623   -1    0    0    0    0  0.00000000000E+00  0.00000000000E+00  0.12525980253E-10  0.17130000000E+03  0.17130000000E+03 0. -1.
       11    1    1    2    0    0 -0.34365297088E-03 -0.10913512464E-01  0.52019987660E+00  0.52031470831E+00  0.51109989000E-03 0. -1.
     -623    1    1    2    0    0  0.12133624679E-01 -0.21347134381E-02  0.21715808162E-03  0.17130000044E+03  0.17130000000E+03 0. -1.
      622    1    1    2    0    0 -0.11789971708E-01  0.13048225902E-01  0.34795829327E+01  0.34796848485E+01  0.20000000000E-01 0. -1.
</event>
<event>
 5   0  0.3603037E+08  0.9118800E+02  0.7818608E-02  0.1180000E+00
       11   -1    0    0    0    0  0.00000000000E+00  0.00000000000E+00  0.39999999673E+01  0.40000000000E+01  0.51109989000E-03 0. -1.
     -623   -1    0    0    0    0  0.00000000000E+00  0.00000000000E+00  0.12525980253E-10  0.17130000000E+03  0.17130000000E+03 0. -1.
       11    1    1    2    0    0  0.96218340514E-02  0.34767691365E-02  0.16444284428E+01  0.16444603469E+01  0.51109989000E-03 0. -1.
     -623    1    1    2    0    0  0.80850727291E-03 -0.46813932698E-04  0.14237221750E-03  0.17130000000E+03  0.17130000000E+03 0. -1.
      622    1    1    2    0    0 -0.10430341324E-01 -0.34299552038E-02  0.23554291523E+01  0.23555396512E+01  0.20000000000E-01 0.  0.
</event>
<event>
 5   0  0.3603037E+08  0.9118800E+02  0.7818608E-02  0.1180000E+00
       11   -1    0    0    0    0  0.00000000000E+00  0.00000000000E+00  0.39999999673E+01  0.40000000000E+01  0.51109989000E-03 0. -1.
     -623   -1    0    0    0    0  0.00000000000E+00  0.00000000000E+00  0.12525980253E-10  0.17130000000E+03  0.17130000000E+03 0. -1.
       11    1    1    2    0    0  0.71414841078E-02  0.26938870122E-02  0.19152132088E+00  0.19167403423E+00  0.51109989000E-03 0. -1.
     -623    1    1    2    0    0 -0.12202877400E-01 -0.63884023136E-02  0.21090699767E-03  0.17130000055E+03  0.17130000000E+03 0. -1.
      622    1    1    2    0    0  0.50613932918E-02  0.36945153014E-02  0.38082677395E+01  0.38083254119E+01  0.20000000000E-01 0. -1.
</event>
<event>
 5   0  0.3603037E+08  0.9118800E+02  0.7818608E-02  0.1180000E+00
       11   -1    0    0    0    0  0.00000000000E+00  0.00000000000E+00  0.39999999673E+01  0.40000000000E+01  0.51109989000E-03 0.  1.
     -623   -1    0    0    0    0  0.00000000000E+00  0.00000000000E+00  0.12525980253E-10  0.17130000000E+03  0.17130000000E+03 0. -1.
       11    1    1    2    0    0 -0.14671956784E-03  0.87289421095E-03  0.71395808663E-02  0.72123718009E-02  0.51109989000E-03 0.  1.
     -623    1    1    2    0    0  0.14899053505E-02 -0.12747789097E-02  0.12310634774E-03  0.17130000001E+03  0.17130000000E+03 0. -1.
      622    1    1    2    0    0 -0.13431857827E-02  0.40188469878E-03  0.39927372801E+01  0.39927876169E+01  0.20000000000E-01 0.  1.
</event>
<event>
 5   0  0.3603037E+08  0.9118800E+02  0.7818608E-02  0.1180000E+00
       11   -1    0    0    0    0  0.00000000000E+00  0.00000000000E+00  0.39999999673E+01  0.40000000000E+01  0.51109989000E-03 0.  1.
     -623   -1    0    0    0    0  0.00000000000E+00  0.00000000000E+00  0.12525980253E-10  0.17130000000E+03  0.17130000000E+03 0.  1.
       11    1    1    2    0    0  0.66168371935E-02 -0.15089132667E-01  0.29960703730E+00  0.30006016476E+00  0.51109989000E-03 0.  1.
     -623    1    1    2    0    0  0.26803487950E-02  0.78867791298E-02  0.52604486799E-03  0.17130000020E+03  0.17130000000E+03 0.  1.
      622    1    1    2    0    0 -0.92971859885E-02  0.72023535374E-02  0.36998668852E+01  0.36999396319E+01  0.20000000000E-01 0.  1.
</event>
<event>
 5   0  0.3603037E+08  0.9118800E+02  0.7818608E-02  0.1180000E+00
       11   -1    0    0    0    0  0.00000000000E+00  0.00000000000E+00  0.39999999673E+01  0.40000000000E+01  0.51109989000E-03 0. -1.
     -623   -1    0    0    0    0  0.00000000000E+00  0.00000000000E+00  0.12525980253E-10  0.17130000000E+03  0.17130000000E+03 0.  1.
       11    1    1    2    0    0  0.86658329380E-04 -0.77106575355E-03  0.17328650308E-02  0.19662388243E-02  0.51109989000E-03 0. -1.
     -623    1    1    2    0    0 -0.31118917664E-03 -0.27627005340E-03  0.28351028462E-03  0.17130000000E+03  0.17130000000E+03 0.  1.
      622    1    1    2    0    0  0.22453084726E-03  0.10473358070E-02  0.39979835920E+01  0.39980337604E+01  0.20000000000E-01 0. -1.
</event>
<event>
 5   0  0.3603037E+08  0.9118800E+02  0.7818608E-02  0.1180000E+00
       11   -1    0    0    0    0  0.00000000000E+00  0.00000000000E+00  0.39999999673E+01  0.40000000000E+01  0.51109989000E-03 0.  1.
     -623   -1    0    0    0    0  0.00000000000E+00  0.00000000000E+00  0.12525980253E-10  0.17130000000E+03  0.17130000000E+03 0.  1.
       11    1    1    2    0    0  0.11719795940E-02 -0.18945983539E-02  0.21013418274E+01  0.21013430705E+01  0.51109989000E-03 0.  1.
     -623    1    1    2    0    0  0.32279447588E-02  0.62582203816E-02  0.11680889709E-03  0.17130000014E+03  0.17130000000E+03 0.  1.
      622    1    1    2    0    0 -0.43999243528E-02 -0.43636220277E-02  0.18985413311E+01  0.18986567848E+01  0.20000000000E-01 0. -1.
</event>
<event>
 5   0  0.3603037E+08  0.9118800E+02  0.7818608E-02  0.1180000E+00
       11   -1    0    0    0    0  0.00000000000E+00  0.00000000000E+00  0.39999999673E+01  0.40000000000E+01  0.51109989000E-03 0. -1.
     -623   -1    0    0    0    0  0.00000000000E+00  0.00000000000E+00  0.12525980253E-10  0.17130000000E+03  0.17130000000E+03 0.  1.
       11    1    1    2    0    0 -0.10166997366E-02 -0.26927740772E-02  0.13429451295E+00  0.13432632706E+00  0.51109989000E-03 0. -1.
     -623    1    1    2    0    0 -0.68330150451E-03  0.27027850991E-02  0.83915762977E-04  0.17130000002E+03  0.17130000000E+03 0.  1.
      622    1    1    2    0    0  0.17000012411E-02 -0.10011021864E-04  0.38656215386E+01  0.38656736502E+01  0.20000000000E-01 0. -1.
</event>
<event>
 5   0  0.3603037E+08  0.9118800E+02  0.7818608E-02  0.1180000E+00
       11   -1    0    0    0    0  0.00000000000E+00  0.00000000000E+00  0.39999999673E+01  0.40000000000E+01  0.51109989000E-03 0.  1.
     -623   -1    0    0    0    0  0.00000000000E+00  0.00000000000E+00  0.12525980253E-10  0.17130000000E+03  0.17130000000E+03 0. -1.
       11    1    1    2    0    0  0.26617998827E-02  0.75087978711E-02  0.17838311884E+00  0.17856165750E+00  0.51109989000E-03 0.  1.
     -623    1    1    2    0    0  0.22078466428E-02 -0.93151781317E-02  0.23464004066E-03  0.17130000027E+03  0.17130000000E+03 0. -1.
      622    1    1    2    0    0 -0.48696465255E-02  0.18063802606E-02  0.38213822085E+01  0.38214380748E+01  0.20000000000E-01 0.  1.
</event>
<event>
 5   0  0.3603037E+08  0.9118800E+02  0.7818608E-02  0.1180000E+00
       11   -1    0    0    0    0  0.00000000000E+00  0.00000000000E+00  0.39999999673E+01  0.40000000000E+01  0.51109989000E-03 0. -1.
     -623   -1    0    0    0    0  0.00000000000E+00  0.00000000000E+00  0.12525980253E-10  0.17130000000E+03  0.17130000000E+03 0.  1.
       11    1    1    2    0    0 -0.28416077824E-02  0.47313730292E-02  0.90050669803E+00  0.90052375596E+00  0.51109989000E-03 0. -1.
     -623    1    1    2    0    0  0.23419100983E-03 -0.47802801073E-03  0.85569048656E-04  0.17130000000E+03  0.17130000000E+03 0.  1.
      622    1    1    2    0    0  0.26074167726E-02 -0.42533450185E-02  0.30994077003E+01  0.30994762432E+01  0.20000000000E-01 0.  0.
</event>
<event>
 5   0  0.3603037E+08  0.9118800E+02  0.7818608E-02  0.1180000E+00
       11   -1    0    0    0    0  0.00000000000E+00  0.00000000000E+00  0.39999999673E+01  0.40000000000E+01  0.51109989000E-03 0. -1.
     -623   -1    0    0    0    0  0.00000000000E+00  0.00000000000E+00  0.12525980253E-10  0.17130000000E+03  0.17130000000E+03 0. -1.
       11    1    1    2    0    0 -0.99081307133E-03  0.51975331346E-02  0.11282278243E+00  0.11294794163E+00  0.51109989000E-03 0. -1.
     -623    1    1    2    0    0 -0.35828841575E-02 -0.11129826963E-02  0.18145788369E-03  0.17130000004E+03  0.17130000000E+03 0. -1.
      622    1    1    2    0    0  0.45736972288E-02 -0.40845504383E-02  0.38869957270E+01  0.38870520172E+01  0.20000000000E-01 0. -1.
</event>
<event>
 5   0  0.3603037E+08  0.9118800E+02  0.7818608E-02  0.1180000E+00
       11   -1    0    0    0    0  0.00000000000E+00  0.00000000000E+00  0.39999999673E+01  0.40000000000E+01  0.51109989000E-03 0.  1.
     -623   -1    0    0    0    0  0.00000000000E+00  0.00000000000E+00  0.12525980253E-10  0.17130000000E+03  0.17130000000E+03 0.  1.
       11    1    1    2    0    0 -0.90559304262E-02  0.25341230915E-01  0.88941255232E+00  0.88981972180E+00  0.51109989000E-03 0.  1.
     -623    1    1    2    0    0  0.16911226818E-01 -0.20583510994E-01  0.48707389319E-03  0.17130000207E+03  0.17130000000E+03 0.  1.
      622    1    1    2    0    0 -0.78552963915E-02 -0.47577199207E-02  0.31101003411E+01  0.31101782061E+01  0.20000000000E-01 0.  1.
</event>
<event>
 5   0  0.3603037E+08  0.9118800E+02  0.7818608E-02  0.1180000E+00
       11   -1    0    0    0    0  0.00000000000E+00  0.00000000000E+00  0.39999999673E+01  0.40000000000E+01  0.51109989000E-03 0.  1.
     -623   -1    0    0    0    0  0.00000000000E+00  0.00000000000E+00  0.12525980253E-10  0.17130000000E+03  0.17130000000E+03 0.  1.
       11    1    1    2    0    0  0.39511896066E-02 -0.20653632252E-03  0.10329971267E+01  0.10330048303E+01  0.51109989000E-03 0.  1.
     -623    1    1    2    0    0 -0.30693979970E-03 -0.51810491441E-04  0.77329699859E-04  0.17130000000E+03  0.17130000000E+03 0.  1.
      622    1    1    2    0    0 -0.36442498069E-02  0.25834681396E-03  0.29669255110E+01  0.29669951694E+01  0.20000000000E-01 0.  1.
</event>
<event>
 5   0  0.3603037E+08  0.9118800E+02  0.7818608E-02  0.1180000E+00
       11   -1    0    0    0    0  0.00000000000E+00  0.00000000000E+00  0.39999999673E+01  0.40000000000E+01  0.51109989000E-03 0. -1.
     -623   -1    0    0    0    0  0.00000000000E+00  0.00000000000E+00  0.12525980253E-10  0.17130000000E+03  0.17130000000E+03 0. -1.
       11    1    1    2    0    0  0.75042609511E-03  0.17931219098E-02  0.82089006584E-01  0.82113608185E-01  0.51109989000E-03 0. -1.
     -623    1    1    2    0    0 -0.94209480760E-03 -0.11937073510E-03  0.75982087671E-04  0.17130000000E+03  0.17130000000E+03 0. -1.
      622    1    1    2    0    0  0.19166871249E-03 -0.16737511747E-02  0.39178349787E+01  0.39178863892E+01  0.20000000000E-01 0. -1.
</event>
<event>
 5   0  0.3603037E+08  0.9118800E+02  0.7818608E-02  0.1180000E+00
       11   -1    0    0    0    0  0.00000000000E+00  0.00000000000E+00  0.39999999673E+01  0.40000000000E+01  0.51109989000E-03 0.  1.
     -623   -1    0    0    0    0  0.00000000000E+00  0.00000000000E+00  0.12525980253E-10  0.17130000000E+03  0.17130000000E+03 0.  1.
       11    1    1    2    0    0  0.15169001356E-03  0.50307383758E-02  0.77815807915E+00  0.77817452330E+00  0.51109989000E-03 0.  1.
     -623    1    1    2    0    0  0.85812309340E-03 -0.90337737177E-04  0.82437083170E-04  0.17130000000E+03  0.17130000000E+03 0.  1.
      622    1    1    2    0    0 -0.10098131070E-02 -0.49404006386E-02  0.32217594511E+01  0.32218254745E+01  0.20000000000E-01 0.  1.
</event>
<event>
 5   0  0.3603037E+08  0.9118800E+02  0.7818608E-02  0.1180000E+00
       11   -1    0    0    0    0  0.00000000000E+00  0.00000000000E+00  0.39999999673E+01  0.40000000000E+01  0.51109989000E-03 0.  1.
     -623   -1    0    0    0    0  0.00000000000E+00  0.00000000000E+00  0.12525980253E-10  0.17130000000E+03  0.17130000000E+03 0.  1.
       11    1    1    2    0    0 -0.26243321234E-01 -0.57494221432E-01  0.15436381111E+01  0.15449314473E+01  0.51109989000E-03 0.  1.
     -623    1    1    2    0    0  0.74762856870E-02  0.79233609705E-02  0.19473900926E-02  0.17130000036E+03  0.17130000000E+03 0.  1.
      622    1    1    2    0    0  0.18767035547E-01  0.49570860462E-01  0.24544144661E+01  0.24550681953E+01  0.20000000000E-01 0.  1.
</event>
<event>
 5   0  0.3603037E+08  0.9118800E+02  0.7818608E-02  0.1180000E+00
       11   -1    0    0    0    0  0.00000000000E+00  0.00000000000E+00  0.39999999673E+01  0.40000000000E+01  0.51109989000E-03 0.  1.
     -623   -1    0    0    0    0  0.00000000000E+00  0.00000000000E+00  0.12525980253E-10  0.17130000000E+03  0.17130000000E+03 0. -1.
       11    1    1    2    0    0 -0.36215790294E-02  0.23701381097E-01  0.12922110061E+01  0.12924335251E+01  0.51109989000E-03 0.  1.
     -623    1    1    2    0    0  0.17603674229E-02 -0.32804417707E-01  0.31544767484E-03  0.17130000315E+03  0.17130000000E+03 0. -1.
      622    1    1    2    0    0  0.18612116066E-02  0.91030366097E-02  0.27074735136E+01  0.27075633245E+01  0.20000000000E-01 0.  1.
</event>
<event>
 5   0  0.3603037E+08  0.9118800E+02  0.7818608E-02  0.1180000E+00
       11   -1    0    0    0    0  0.00000000000E+00  0.00000000000E+00  0.39999999673E+01  0.40000000000E+01  0.51109989000E-03 0. -1.
     -623   -1    0    0    0    0  0.00000000000E+00  0.00000000000E+00  0.12525980253E-10  0.17130000000E+03  0.17130000000E+03 0. -1.
       11    1    1    2    0    0  0.24263036155E-02 -0.54582491581E-02  0.21944519451E+00  0.21952706905E+00  0.51109989000E-03 0. -1.
     -623    1    1    2    0    0  0.29124103055E-03  0.84460540332E-03  0.13854010129E-03  0.17130000000E+03  0.17130000000E+03 0. -1.
      622    1    1    2    0    0 -0.27175446460E-02  0.46136437548E-02  0.37804162328E+01  0.37804729286E+01  0.20000000000E-01 0. -1.
</event>
<event>
 5   0  0.3603037E+08  0.9118800E+02  0.7818608E-02  0.1180000E+00
       11   -1    0    0    0    0  0.00000000000E+00  0.00000000000E+00  0.39999999673E+01  0.40000000000E+01  0.51109989000E-03 0. -1.
     -623   -1    0    0    0    0  0.00000000000E+00  0.00000000000E+00  0.12525980253E-10  0.17130000000E+03  0.17130000000E+03 0.  1.
       11    1    1    2    0    0 -0.28318522096E-02 -0.10135848964E-01  0.54792396549E+00  0.54802526219E+00  0.51109989000E-03 0. -1.
     -623    1    1    2    0    0 -0.95114753102E-03 -0.53469994547E-02  0.19608425565E-03  0.17130000009E+03  0.17130000000E+03 0.  1.
      622    1    1    2    0    0  0.37829997406E-02  0.15482848419E-01  0.34518799176E+01  0.34519746516E+01  0.20000000000E-01 0.  0.
</event>
<event>
 5   0  0.3603037E+08  0.9118800E+02  0.7818608E-02  0.1180000E+00
       11   -1    0    0    0    0  0.00000000000E+00  0.00000000000E+00  0.39999999673E+01  0.40000000000E+01  0.51109989000E-03 0. -1.
     -623   -1    0    0    0    0  0.00000000000E+00  0.00000000000E+00  0.12525980253E-10  0.17130000000E+03  0.17130000000E+03 0.  1.
       11    1    1    2    0    0 -0.80125321200E-02  0.45051935603E-02  0.14778589141E+00  0.14807237542E+00  0.51109989000E-03 0. -1.
     -623    1    1    2    0    0  0.20990623957E-02  0.37546839040E-02  0.35182354916E-03  0.17130000005E+03  0.17130000000E+03 0.  1.
      622    1    1    2    0    0  0.59134697243E-02 -0.82598774643E-02  0.38518622524E+01  0.38519275702E+01  0.20000000000E-01 0. -1.
</event>
<event>
 5   0  0.3603037E+08  0.9118800E+02  0.7818608E-02  0.1180000E+00
       11   -1    0    0    0    0  0.00000000000E+00  0.00000000000E+00  0.39999999673E+01  0.40000000000E+01  0.51109989000E-03 0.  1.
     -623   -1    0    0    0    0  0.00000000000E+00  0.00000000000E+00  0.12525980253E-10  0.17130000000E+03  0.17130000000E+03 0.  1.
       11    1    1    2    0    0 -0.10897885099E-02 -0.14304562144E-03  0.10266311799E+00  0.10267027378E+00  0.51109989000E-03 0.  1.
     -623    1    1    2    0    0  0.59225638350E-03 -0.30923160480E-02  0.59844310963E-04  0.17130000003E+03  0.17130000000E+03 0.  1.
      622    1    1    2    0    0  0.49753212640E-03  0.32353616694E-02  0.38972770051E+01  0.38973296973E+01  0.20000000000E-01 0.  1.
</event>
<event>
 5   0  0.3603037E+08  0.9118800E+02  0.7818608E-02  0.1180000E+00
       11   -1    0    0    0    0  0.00000000000E+00  0.00000000000E+00  0.39999999673E+01  0.40000000000E+01  0.51109989000E-03 0.  1.
     -623   -1    0    0    0    0  0.00000000000E+00  0.00000000000E+00  0.12525980253E-10  0.17130000000E+03  0.17130000000E+03 0. -1.
       11    1    1    2    0    0  0.67063107613E-02  0.19115594392E-02  0.27619667249E+00  0.27628516387E+00  0.51109989000E-03 0.  1.
     -623    1    1    2    0    0 -0.95153303931E-02  0.37488443968E-02  0.14783607251E-03  0.17130000031E+03  0.17130000000E+03 0. -1.
      622    1    1    2    0    0  0.28090196317E-02 -0.56604038360E-02  0.37236554588E+01  0.37237145308E+01  0.20000000000E-01 0.  1.
</event>
<event>
 5   0  0.3603037E+08  0.9118800E+02  0.7818608E-02  0.1180000E+00
       11   -1    0    0    0    0  0.00000000000E+00  0.00000000000E+00  0.39999999673E+01  0.40000000000E+01  0.51109989000E-03 0. -1.
     -623   -1    0    0    0    0  0.00000000000E+00  0.00000000000E+00  0.12525980253E-10  0.17130000000E+03  0.17130000000E+03 0. -1.
       11    1    1    2    0    0 -0.14465311608E-03  0.12880698087E-02  0.13913547071E+01  0.13913554047E+01  0.51109989000E-03 0. -1.
     -623    1    1    2    0    0 -0.33421990992E-03 -0.40619099621E-02  0.78901524013E-04  0.17130000005E+03  0.17130000000E+03 0. -1.
      622    1    1    2    0    0  0.47887302600E-03  0.27738401535E-02  0.26085663587E+01  0.26086445467E+01  0.20000000000E-01 0. -1.
</event>
<event>
 5   0  0.3603037E+08  0.9118800E+02  0.7818608E-02  0.1180000E+00
       11   -1    0    0    0    0  0.00000000000E+00  0.00000000000E+00  0.39999999673E+01  0.40000000000E+01  0.51109989000E-03 0.  1.
     -623   -1    0    0    0    0  0.00000000000E+00  0.00000000000E+00  0.12525980253E-10  0.17130000000E+03  0.17130000000E+03 0. -1.
       11    1    1    2    0    0  0.12780573909E-02  0.24064379933E-02  0.30400611321E-01  0.30526754915E-01  0.51109989000E-03 0.  1.
     -623    1    1    2    0    0  0.95424566737E-03 -0.15671861606E-02  0.17722212826E-03  0.17130000001E+03  0.17130000000E+03 0. -1.
      622    1    1    2    0    0 -0.22323030582E-02 -0.83925183272E-03  0.39694221339E+01  0.39694732352E+01  0.20000000000E-01 0.  1.
</event>
<event>
 5   0  0.3603037E+08  0.9118800E+02  0.7818608E-02  0.1180000E+00
       11   -1    0    0    0    0  0.00000000000E+00  0.00000000000E+00  0.39999999673E+01  0.40000000000E+01  0.51109989000E-03 0. -1.
     -623   -1    0    0    0    0  0.00000000000E+00  0.00000000000E+00  0.12525980253E-10  0.17130000000E+03  0.17130000000E+03 0.  1.
       11    1    1    2    0    0 -0.61457058938E-02  0.46864247079E-02  0.86882298954E-02  0.11639537621E-01  0.51109989000E-03 0. -1.
     -623    1    1    2    0    0  0.38458243270E-02 -0.54389191652E-02  0.30023112562E-02  0.17130000016E+03  0.17130000000E+03 0.  1.
      622    1    1    2    0    0  0.22998815668E-02  0.75249445732E-03  0.39883094262E+01  0.39883603066E+01  0.20000000000E-01 0. -1.
</event>
<event>
 5   0  0.3603037E+08  0.9118800E+02  0.7818608E-02  0.1180000E+00
       11   -1    0    0    0    0  0.00000000000E+00  0.00000000000E+00  0.39999999673E+01  0.40000000000E+01  0.51109989000E-03 0. -1.
     -623   -1    0    0    0    0  0.00000000000E+00  0.00000000000E+00  0.12525980253E-10  0.17130000000E+03  0.17130000000E+03 0.  1.
       11    1    1    2    0    0  0.21095429301E-02  0.28192595491E-02  0.10122179056E-01  0.10729311596E-01  0.51109989000E-03 0. -1.
     -623    1    1    2    0    0 -0.28528960499E-02 -0.78522151178E-03  0.65784933191E-03  0.17130000003E+03  0.17130000000E+03 0.  1.
      622    1    1    2    0    0  0.74335311982E-03 -0.20340380373E-02  0.39892199390E+01  0.39892706616E+01  0.20000000000E-01 0. -1.
</event>
<event>
 5   0  0.3603037E+08  0.9118800E+02  0.7818608E-02  0.1180000E+00
       11   -1    0    0    0    0  0.00000000000E+00  0.00000000000E+00  0.39999999673E+01  0.40000000000E+01  0.51109989000E-03 0. -1.
     -623   -1    0    0    0    0  0.00000000000E+00  0.00000000000E+00  0.12525980253E-10  0.17130000000E+03  0.17130000000E+03 0.  1.
       11    1    1    2    0    0 -0.16731597104E-02 -0.11229700402E-02  0.22647703343E-01  0.22742915657E-01  0.51109989000E-03 0. -1.
     -623    1    1    2    0    0  0.24628137439E-02  0.27744568819E-02  0.14592740933E-03  0.17130000004E+03  0.17130000000E+03 0.  1.
      622    1    1    2    0    0 -0.78965403350E-03 -0.16514868417E-02  0.39772063366E+01  0.39772570441E+01  0.20000000000E-01 0. -1.
</event>
<event>
 5   0  0.3603037E+08  0.9118800E+02  0.7818608E-02  0.1180000E+00
       11   -1    0    0    0    0  0.00000000000E+00  0.00000000000E+00  0.39999999673E+01  0.40000000000E+01  0.51109989000E-03 0.  1.
     -623   -1    0    0    0    0  0.00000000000E+00  0.00000000000E+00  0.12525980253E-10  0.17130000000E+03  0.17130000000E+03 0.  1.
       11    1    1    2    0    0  0.24256040649E-02  0.52888994392E-02  0.16544820116E+00  0.16555127454E+00  0.51109989000E-03 0.  1.
     -623    1    1    2    0    0 -0.18215486573E-03 -0.37090192040E-04  0.15945289696E-03  0.17130000000E+03  0.17130000000E+03 0.  1.
      622    1    1    2    0    0 -0.22434491992E-02 -0.52518092471E-02  0.38343923133E+01  0.38344487253E+01  0.20000000000E-01 0.  1.
</event>
<event>
 5   0  0.3603037E+08  0.9118800E+02  0.7818608E-02  0.1180000E+00
       11   -1    0    0    0    0  0.00000000000E+00  0.00000000000E+00  0.39999999673E+01  0.40000000000E+01  0.51109989000E-03 0. -1.
     -623   -1    0    0    0    0  0.00000000000E+00  0.00000000000E+00  0.12525980253E-10  0.17130000000E+03  0.17130000000E+03 0. -1.
       11    1    1    2    0    0 -0.50790711838E-03 -0.29188930066E-03  0.21593897727E-01  0.21607887651E-01  0.51109989000E-03 0. -1.
     -623    1    1    2    0    0  0.43275500830E-03 -0.35079546050E-03  0.64282706144E-04  0.17130000000E+03  0.17130000000E+03 0. -1.
      622    1    1    2    0    0  0.75152110086E-04  0.64268476116E-03  0.39783417869E+01  0.39783921114E+01  0.20000000000E-01 0. -1.
</event>
<event>
 5   0  0.3603037E+08  0.9118800E+02  0.7818608E-02  0.1180000E+00
       11   -1    0    0    0    0  0.00000000000E+00  0.00000000000E+00  0.39999999673E+01  0.40000000000E+01  0.51109989000E-03 0.  1.
     -623   -1    0    0    0    0  0.00000000000E+00  0.00000000000E+00  0.12525980253E-10  0.17130000000E+03  0.17130000000E+03 0.  1.
       11    1    1    2    0    0 -0.90792155867E-03  0.57572136060E-03  0.23916702129E+00  0.23916998363E+00  0.51109989000E-03 0.  1.
     -623    1    1    2    0    0 -0.12540518486E-02  0.20415660940E-02  0.57658765463E-04  0.17130000002E+03  0.17130000000E+03 0.  1.
      622    1    1    2    0    0  0.21619734073E-02 -0.26172874546E-02  0.37607752873E+01  0.37608299996E+01  0.20000000000E-01 0.  1.
</event>
<event>
 5   0  0.3603037E+08  0.9118800E+02  0.7818608E-02  0.1180000E+00
       11   -1    0    0    0    0  0.00000000000E+00  0.00000000000E+00  0.39999999673E+01  0.40000000000E+01  0.51109989000E-03 0. -1.
     -623   -1    0    0    0    0  0.00000000000E+00  0.00000000000E+00  0.12525980253E-10  0.17130000000E+03  0.17130000000E+03 0.  1.
       11    1    1    2    0    0 -0.39725768562E-02  0.38772572890E-02  0.26459560179E+01  0.26459618901E+01  0.51109989000E-03 0. -1.
     -623    1    1    2    0    0  0.15464316815E-03 -0.23554451189E-03  0.16383539144E-03  0.17130000000E+03  0.17130000000E+03 0.  1.
      622    1    1    2    0    0  0.38179336881E-02 -0.36417127771E-02  0.13538801141E+01  0.13540381095E+01  0.20000000000E-01 0. -1.
</event>
<event>
 5   0  0.3603037E+08  0.9118800E+02  0.7818608E-02  0.1180000E+00
       11   -1    0    0    0    0  0.00000000000E+00  0.00000000000E+00  0.39999999673E+01  0.40000000000E+01  0.51109989000E-03 0. -1.
     -623   -1    0    0    0    0  0.00000000000E+00  0.00000000000E+00  0.12525980253E-10  0.17130000000E+03  0.17130000000E+03 0.  1.
       11    1    1    2    0    0  0.10856186499E-02  0.16575365959E-02  0.25729840572E-01  0.25811081170E-01  0.51109989000E-03 0. -1.
     -623    1    1    2    0    0 -0.47498715378E-03  0.49198734282E-03  0.13216265349E-03  0.17130000000E+03  0.17130000000E+03 0.  1.
      622    1    1    2    0    0 -0.61063149608E-03 -0.21495239387E-02  0.39741379641E+01  0.39741889174E+01  0.20000000000E-01 0. -1.
</event>
<event>
 5   0  0.3603037E+08  0.9118800E+02  0.7818608E-02  0.1180000E+00
       11   -1    0    0    0    0  0.00000000000E+00  0.00000000000E+00  0.39999999673E+01  0.40000000000E+01  0.51109989000E-03 0. -1.
     -623   -1    0    0    0    0  0.00000000000E+00  0.00000000000E+00  0.12525980253E-10  0.17130000000E+03  0.17130000000E+03 0.  1.
       11    1    1    2    0    0 -0.66284842834E-04  0.47460342224E-03  0.20359504291E-01  0.20371555646E-01  0.51109989000E-03 0. -1.
     -623    1    1    2    0    0  0.30919673817E-03  0.62926018590E-03  0.62436935850E-04  0.17130000000E+03  0.17130000000E+03 0.  1.
      622    1    1    2    0    0 -0.24291189534E-03 -0.11038636081E-02  0.39795780261E+01  0.39796284429E+01  0.20000000000E-01 0. -1.
</event>
<event>
 5   0  0.3603037E+08  0.9118800E+02  0.7818608E-02  0.1180000E+00
       11   -1    0    0    0    0  0.00000000000E+00  0.00000000000E+00  0.39999999673E+01  0.40000000000E+01  0.51109989000E-03 0.  1.
     -623   -1    0    0    0    0  0.00000000000E+00  0.00000000000E+00  0.12525980253E-10  0.17130000000E+03  0.17130000000E+03 0.  1.
       11    1    1    2    0    0  0.55692536611E-03 -0.26394682639E-02  0.94327086211E-01  0.94367035409E-01  0.51109989000E-03 0.  1.
     -623    1    1    2    0    0  0.91302233315E-03  0.10853742251E-02  0.91716701225E-04  0.17130000001E+03  0.17130000000E+03 0.  1.
      622    1    1    2    0    0 -0.14699476993E-02  0.15540940389E-02  0.39055811644E+01  0.39056329587E+01  0.20000000000E-01 0.  1.
</event>
<event>
 5   0  0.3603037E+08  0.9118800E+02  0.7818608E-02  0.1180000E+00
       11   -1    0    0    0    0  0.00000000000E+00  0.00000000000E+00  0.39999999673E+01  0.40000000000E+01  0.51109989000E-03 0. -1.
     -623   -1    0    0    0    0  0.00000000000E+00  0.00000000000E+00  0.12525980253E-10  0.17130000000E+03  0.17130000000E+03 0.  1.
       11    1    1    2    0    0  0.15793185901E-02 -0.67480463472E-02  0.44955837049E-01  0.45489766788E-01  0.51109989000E-03 0. -1.
     -623    1    1    2    0    0 -0.16880933369E-02  0.92239422829E-02  0.58550682469E-03  0.17130000026E+03  0.17130000000E+03 0.  1.
      622    1    1    2    0    0  0.10877474677E-03 -0.24758959357E-02  0.39544586235E+01  0.39545099756E+01  0.20000000000E-01 0. -1.
</event>
<event>
 5   0  0.3603037E+08  0.9118800E+02  0.7818608E-02  0.1180000E+00
       11   -1    0    0    0    0  0.00000000000E+00  0.00000000000E+00  0.39999999673E+01  0.40000000000E+01  0.51109989000E-03 0. -1.
     -623   -1    0    0    0    0  0.00000000000E+00  0.00000000000E+00  0.12525980253E-10  0.17130000000E+03  0.17130000000E+03 0.  1.
       11    1    1    2    0    0 -0.10225753594E-02  0.10424689358E-02  0.55961716632E+00  0.55961930494E+00  0.51109989000E-03 0. -1.
     -623    1    1    2    0    0 -0.46950141656E-03 -0.13834937873E-03  0.60682644401E-04  0.17130000000E+03  0.17130000000E+03 0.  1.
      622    1    1    2    0    0  0.14920767760E-02 -0.90411955707E-03  0.34403221184E+01  0.34403806944E+01  0.20000000000E-01 0. -1.
</event>
<event>
 5   0  0.3603037E+08  0.9118800E+02  0.7818608E-02  0.1180000E+00
       11   -1    0    0    0    0  0.00000000000E+00  0.00000000000E+00  0.39999999673E+01  0.40000000000E+01  0.51109989000E-03 0.  1.
     -623   -1    0    0    0    0  0.00000000000E+00  0.00000000000E+00  0.12525980253E-10  0.17130000000E+03  0.17130000000E+03 0. -1.
       11    1    1    2    0    0  0.64133113259E-03  0.28096780454E-03  0.27903639637E-01  0.27917101832E-01  0.51109989000E-03 0.  1.
     -623    1    1    2    0    0 -0.24830850113E-03  0.31636262610E-03  0.63846134086E-04  0.17130000000E+03  0.17130000000E+03 0. -1.
      622    1    1    2    0    0 -0.39302263147E-03 -0.59733043064E-03  0.39720324816E+01  0.39720828977E+01  0.20000000000E-01 0.  1.
</event>
<event>
 5   0  0.3603037E+08  0.9118800E+02  0.7818608E-02  0.1180000E+00
       11   -1    0    0    0    0  0.00000000000E+00  0.00000000000E+00  0.39999999673E+01  0.40000000000E+01  0.51109989000E-03 0. -1.
     -623   -1    0    0    0    0  0.00000000000E+00  0.00000000000E+00  0.12525980253E-10  0.17130000000E+03  0.17130000000E+03 0. -1.
       11    1    1    2    0    0  0.42736352890E-02 -0.21254808709E-02  0.27636127607E-01  0.28049926875E-01  0.51109989000E-03 0. -1.
     -623    1    1    2    0    0 -0.25327520034E-02  0.10086896229E-02  0.46468089226E-03  0.17130000002E+03  0.17130000000E+03 0. -1.
      622    1    1    2    0    0 -0.17408832856E-02  0.11167912480E-02  0.39718991589E+01  0.39719500508E+01  0.20000000000E-01 0. -1.
</event>
<event>
 5   0  0.3603037E+08  0.9118800E+02  0.7818608E-02  0.1180000E+00
       11   -1    0    0    0    0  0.00000000000E+00  0.00000000000E+00  0.39999999673E+01  0.40000000000E+01  0.51109989000E-03 0. -1.
     -623   -1    0    0    0    0  0.00000000000E+00  0.00000000000E+00  0.12525980253E-10  0.17130000000E+03  0.17130000000E+03 0. -1.
       11    1    1    2    0    0  0.90403804653E-03 -0.20524846604E-03  0.74079341970E-01  0.74086905324E-01  0.51109989000E-03 0. -1.
     -623    1    1    2    0    0 -0.53738681612E-03  0.24847539001E-03  0.58493000244E-04  0.17130000000E+03  0.17130000000E+03 0. -1.
      622    1    1    2    0    0 -0.36665123040E-03 -0.43226923966E-04  0.39258621324E+01  0.39259130936E+01  0.20000000000E-01 0. -1.
</event>
<event>
 5   0  0.3603037E+08  0.9118800E+02  0.7818608E-02  0.1180000E+00
       11   -1    0    0    0    0  0.00000000000E+00  0.00000000000E+00  0.39999999673E+01  0.40000000000E+01  0.51109989000E-03 0. -1.
     -623   -1    0    0    0    0  0.00000000000E+00  0.00000000000E+00  0.12525980253E-10  0.17130000000E+03  0.17130000000E+03 0. -1.
       11    1    1    2    0    0  0.42524347394E-02 -0.21784068800E-02  0.15605531341E+00  0.15612927568E+00  0.51109989000E-03 0. -1.
     -623    1    1    2    0    0  0.90804002353E-04 -0.18740692365E-03  0.12914287554E-03  0.17130000000E+03  0.17130000000E+03 0. -1.
      622    1    1    2    0    0 -0.43432387418E-02  0.23658138037E-02  0.38438155111E+01  0.38438707241E+01  0.20000000000E-01 0. -1.
</event>
<event>
 5   0  0.3603037E+08  0.9118800E+02  0.7818608E-02  0.1180000E+00
       11   -1    0    0    0    0  0.00000000000E+00  0.00000000000E+00  0.39999999673E+01  0.40000000000E+01  0.51109989000E-03 0. -1.
     -623   -1    0    0    0    0  0.00000000000E+00  0.00000000000E+00  0.12525980253E-10  0.17130000000E+03  0.17130000000E+03 0.  1.
       11    1    1    2    0    0  0.62502873625E-03  0.13635079804E-02  0.68958610399E-01  0.68976814838E-01  0.51109989000E-03 0. -1.
     -623    1    1    2    0    0 -0.34292679400E-03 -0.33208829840E-02  0.69579462631E-04  0.17130000003E+03  0.17130000000E+03 0.  1.
      622    1    1    2    0    0 -0.28210194225E-03  0.19573750036E-02  0.39309717775E+01  0.39310231526E+01  0.20000000000E-01 0. -1.
</event>
<event>
 5   0  0.3603037E+08  0.9118800E+02  0.7818608E-02  0.1180000E+00
       11   -1    0    0    0    0  0.00000000000E+00  0.00000000000E+00  0.39999999673E+01  0.40000000000E+01  0.51109989000E-03 0. -1.
     -623   -1    0    0    0    0  0.00000000000E+00  0.00000000000E+00  0.12525980253E-10  0.17130000000E+03  0.17130000000E+03 0.  1.
       11    1    1    2    0    0  0.13264374191E-01  0.26116562421E-01  0.54824120505E+00  0.54902340441E+00  0.51109989000E-03 0. -1.
     -623    1    1    2    0    0 -0.31292317685E-02 -0.18162812928E-02  0.94060468806E-03  0.17130000004E+03  0.17130000000E+03 0.  1.
      622    1    1    2    0    0 -0.10135142422E-01 -0.24300281128E-01  0.34508181576E+01  0.34509765548E+01  0.20000000000E-01 0. -1.
</event>
<event>
 5   0  0.3603037E+08  0.9118800E+02  0.7818608E-02  0.1180000E+00
       11   -1    0    0    0    0  0.00000000000E+00  0.00000000000E+00  0.39999999673E+01  0.40000000000E+01  0.51109989000E-03 0.  1.
     -623   -1    0    0    0    0  0.00000000000E+00  0.00000000000E+00  0.12525980253E-10  0.17130000000E+03  0.17130000000E+03 0. -1.
       11    1    1    2    0    0 -0.11575851349E-02  0.18623905733E-02  0.90479030524E-01  0.90507042200E-01  0.51109989000E-03 0.  1.
     -623    1    1    2    0    0  0.26965277043E-03  0.49187987373E-04  0.79705320731E-04  0.17130000000E+03  0.17130000000E+03 0. -1.
      622    1    1    2    0    0  0.88793236450E-03 -0.19115785606E-02  0.39094412315E+01  0.39094929576E+01  0.20000000000E-01 0.  1.
</event>
<event>
 5   0  0.3603037E+08  0.9118800E+02  0.7818608E-02  0.1180000E+00
       11   -1    0    0    0    0  0.00000000000E+00  0.00000000000E+00  0.39999999673E+01  0.40000000000E+01  0.51109989000E-03 0. -1.
     -623   -1    0    0    0    0  0.00000000000E+00  0.00000000000E+00  0.12525980253E-10  0.17130000000E+03  0.17130000000E+03 0.  1.
       11    1    1    2    0    0  0.20113485051E-02  0.66981052380E-02  0.25954251696E+00  0.25963722666E+00  0.51109989000E-03 0. -1.
     -623    1    1    2    0    0 -0.22358184773E-02 -0.11901621775E-02  0.15222919511E-03  0.17130000002E+03  0.17130000000E+03 0.  1.
      622    1    1    2    0    0  0.22446997223E-03 -0.55079430606E-02  0.37403052212E+01  0.37403627545E+01  0.20000000000E-01 0. -1.
</event>
<event>
 5   0  0.3603037E+08  0.9118800E+02  0.7818608E-02  0.1180000E+00
       11   -1    0    0    0    0  0.00000000000E+00  0.00000000000E+00  0.39999999673E+01  0.40000000000E+01  0.51109989000E-03 0. -1.
     -623   -1    0    0    0    0  0.00000000000E+00  0.00000000000E+00  0.12525980253E-10  0.17130000000E+03  0.17130000000E+03 0.  1.
       11    1    1    2    0    0 -0.29068225859E-02  0.15306105135E-02  0.23453432025E+00  0.23455788408E+00  0.51109989000E-03 0. -1.
     -623    1    1    2    0    0  0.63440550087E-02 -0.93770827113E-02  0.86764583582E-04  0.17130000037E+03  0.17130000000E+03 0.  1.
      622    1    1    2    0    0 -0.34372324228E-02  0.78464721978E-02  0.37653788825E+01  0.37654417418E+01  0.20000000000E-01 0. -1.
</event>
<event>
 5   0  0.3603037E+08  0.9118800E+02  0.7818608E-02  0.1180000E+00
       11   -1    0    0    0    0  0.00000000000E+00  0.00000000000E+00  0.39999999673E+01  0.40000000000E+01  0.51109989000E-03 0.  1.
     -623   -1    0    0    0    0  0.00000000000E+00  0.00000000000E+00  0.12525980253E-10  0.17130000000E+03  0.17130000000E+03 0.  1.
       11    1    1    2    0    0 -0.30898303395E-03  0.97353916763E-03  0.12571880436E-01  0.12623654283E-01  0.51109989000E-03 0.  1.
     -623    1    1    2    0    0 -0.16058069657E-03 -0.15263346255E-04  0.10204272445E-03  0.17130000000E+03  0.17130000000E+03 0.  1.
      622    1    1    2    0    0  0.46956373052E-03 -0.95827582137E-03  0.39873260442E+01  0.39873763456E+01  0.20000000000E-01 0.  1.
</event>
<event>
 5   0  0.3603037E+08  0.9118800E+02  0.7818608E-02  0.1180000E+00
       11   -1    0    0    0    0  0.00000000000E+00  0.00000000000E+00  0.39999999673E+01  0.40000000000E+01  0.51109989000E-03 0. -1.
     -623   -1    0    0    0    0  0.00000000000E+00  0.00000000000E+00  0.12525980253E-10  0.17130000000E+03  0.17130000000E+03 0.  1.
       11    1    1    2    0    0 -0.20220147310E-02 -0.11759000311E-01  0.64710559925E+00  0.64721579124E+00  0.51109989000E-03 0. -1.
     -623    1    1    2    0    0  0.13056437692E-02 -0.11743257045E-03  0.19092860003E-03  0.17130000001E+03  0.17130000000E+03 0.  1.
      622    1    1    2    0    0  0.71637096179E-03  0.11876432881E-01  0.33527034395E+01  0.33527842036E+01  0.20000000000E-01 0. -1.
</event>
<event>
 5   0  0.3603037E+08  0.9118800E+02  0.7818608E-02  0.1180000E+00
       11   -1    0    0    0    0  0.00000000000E+00  0.00000000000E+00  0.39999999673E+01  0.40000000000E+01  0.51109989000E-03 0. -1.
     -623   -1    0    0    0    0  0.00000000000E+00  0.00000000000E+00  0.12525980253E-10  0.17130000000E+03  0.17130000000E+03 0. -1.
       11    1    1    2    0    0 -0.27458221147E-03  0.41332398844E-03  0.10191864722E-01  0.10216729382E-01  0.51109989000E-03 0. -1.
     -623    1    1    2    0    0  0.34286625224E-03  0.25536645077E-03  0.75017542102E-04  0.17130000000E+03  0.17130000000E+03 0. -1.
      622    1    1    2    0    0 -0.68284040768E-04 -0.66869043922E-03  0.39897330851E+01  0.39897832701E+01  0.20000000000E-01 0. -1.
</event>
<event>
 5   0  0.3603037E+08  0.9118800E+02  0.7818608E-02  0.1180000E+00
       11   -1    0    0    0    0  0.00000000000E+00  0.00000000000E+00  0.39999999673E+01  0.40000000000E+01  0.51109989000E-03 0.  1.
     -623   -1    0    0    0    0  0.00000000000E+00  0.00000000000E+00  0.12525980253E-10  0.17130000000E+03  0.17130000000E+03 0.  1.
       11    1    1    2    0    0 -0.27450873135E-02 -0.24653270551E-02  0.71997246084E+00  0.71998209626E+00  0.51109989000E-03 0.  1.
     -623    1    1    2    0    0 -0.11433221426E-02 -0.17964932401E-04  0.73827385935E-04  0.17130000000E+03  0.17130000000E+03 0.  1.
      622    1    1    2    0    0  0.38884094561E-02  0.24832919875E-02  0.32799536791E+01  0.32800178999E+01  0.20000000000E-01 0. -1.
</event>
<event>
 5   0  0.3603037E+08  0.9118800E+02  0.7818608E-02  0.1180000E+00
       11   -1    0    0    0    0  0.00000000000E+00  0.00000000000E+00  0.39999999673E+01  0.40000000000E+01  0.51109989000E-03 0.  1.
     -623   -1    0    0    0    0  0.00000000000E+00  0.00000000000E+00  0.12525980253E-10  0.17130000000E+03  0.17130000000E+03 0. -1.
       11    1    1    2    0    0 -0.10527197275E-01  0.27907009838E-02  0.15275923196E+01  0.15276312271E+01  0.51109989000E-03 0.  1.
     -623    1    1    2    0    0  0.50487456730E-03 -0.10822522554E-02  0.14067945274E-03  0.17130000000E+03  0.17130000000E+03 0. -1.
      622    1    1    2    0    0  0.10022322708E-01 -0.17084487284E-02  0.24722669683E+01  0.24723687686E+01  0.20000000000E-01 0.  1.
</event>
<event>
 5   0  0.3603037E+08  0.9118800E+02  0.7818608E-02  0.1180000E+00
       11   -1    0    0    0    0  0.00000000000E+00  0.00000000000E+00  0.39999999673E+01  0.40000000000E+01  0.51109989000E-03 0.  1.
     -623   -1    0    0    0    0  0.00000000000E+00  0.00000000000E+00  0.12525980253E-10  0.17130000000E+03  0.17130000000E+03 0. -1.
       11    1    1    2    0    0 -0.37637234646E-02  0.25228667496E-02  0.17850644262E+00  0.17856467105E+00  0.51109989000E-03 0.  1.
     -623    1    1    2    0    0  0.80662187796E-03 -0.10358384651E-04  0.11250456309E-03  0.17130000000E+03  0.17130000000E+03 0. -1.
      622    1    1    2    0    0  0.29571015866E-02 -0.25125083650E-02  0.38213810202E+01  0.38214353270E+01  0.20000000000E-01 0.  1.
</event>
<event>
 5   0  0.3603037E+08  0.9118800E+02  0.7818608E-02  0.1180000E+00
       11   -1    0    0    0    0  0.00000000000E+00  0.00000000000E+00  0.39999999673E+01  0.40000000000E+01  0.51109989000E-03 0. -1.
     -623   -1    0    0    0    0  0.00000000000E+00  0.00000000000E+00  0.12525980253E-10  0.17130000000E+03  0.17130000000E+03 0.  1.
       11    1    1    2    0    0  0.97342263158E-03  0.18683446036E-02 -0.14165347026E-02  0.25896050526E-02  0.51109989000E-03 0. -1.
     -623    1    1    2    0    0  0.57482043667E-03 -0.35770246265E-02  0.40568911910E-02  0.17130000009E+03  0.17130000000E+03 0.  1.
      622    1    1    2    0    0 -0.15482430683E-02  0.17086800230E-02  0.39973596109E+01  0.39974103086E+01  0.20000000000E-01 0. -1.
</event>
<event>
 5   0  0.3603037E+08  0.9118800E+02  0.7818608E-02  0.1180000E+00
       11   -1    0    0    0    0  0.00000000000E+00  0.00000000000E+00  0.39999999673E+01  0.40000000000E+01  0.51109989000E-03 0. -1.
     -623   -1    0    0    0    0  0.00000000000E+00  0.00000000000E+00  0.12525980253E-10  0.17130000000E+03  0.17130000000E+03 0. -1.
       11    1    1    2    0    0  0.38540302806E-03  0.16068111702E-04  0.33434478354E-01  0.33440609404E-01  0.51109989000E-03 0. -1.
     -623    1    1    2    0    0  0.22903768822E-04  0.35994303510E-03  0.56559488443E-04  0.17130000000E+03  0.17130000000E+03 0. -1.
      622    1    1    2    0    0 -0.40830679688E-03 -0.37601114680E-03  0.39665089295E+01  0.39665593902E+01  0.20000000000E-01 0. -1.
</event>
<event>
 5   0  0.3603037E+08  0.9118800E+02  0.7818608E-02  0.1180000E+00
       11   -1    0    0    0    0  0.00000000000E+00  0.00000000000E+00  0.39999999673E+01  0.40000000000E+01  0.51109989000E-03 0.  1.
     -623   -1    0    0    0    0  0.00000000000E+00  0.00000000000E+00  0.12525980253E-10  0.17130000000E+03  0.17130000000E+03 0.  1.
       11    1    1    2    0    0  0.20927631978E-02  0.35891821949E-02  0.27602921854E-01  0.27918531534E-01  0.51109989000E-03 0.  1.
     -623    1    1    2    0    0 -0.41782929897E-02 -0.75936861435E-02  0.36871459441E-03  0.17130000022E+03  0.17130000000E+03 0.  1.
      622    1    1    2    0    0  0.20855297920E-02  0.40045039485E-02  0.39720283309E+01  0.39720812488E+01  0.20000000000E-01 0.  1.
</event>
<event>
 5   0  0.3603037E+08  0.9118800E+02  0.7818608E-02  0.1180000E+00
       11   -1    0    0    0    0  0.00000000000E+00  0.00000000000E+00  0.39999999673E+01  0.40000000000E+01  0.51109989000E-03 0.  1.
     -623   -1    0    0    0    0  0.00000000000E+00  0.00000000000E+00  0.12525980253E-10  0.17130000000E+03  0.17130000000E+03 0. -1.
       11    1    1    2    0    0  0.73194076359E-02 -0.26754868246E-02  0.33372323050E+00  0.33381460087E+00  0.51109989000E-03 0.  1.
     -623    1    1    2    0    0 -0.69689406007E-02 -0.30843365210E-02  0.15060170052E-03  0.17130000017E+03  0.17130000000E+03 0. -1.
      622    1    1    2    0    0 -0.35046703525E-03  0.57598233456E-02  0.36661261352E+01  0.36661852295E+01  0.20000000000E-01 0.  1.
</event>
<event>
 5   0  0.3603037E+08  0.9118800E+02  0.7818608E-02  0.1180000E+00
       11   -1    0    0    0    0  0.00000000000E+00  0.00000000000E+00  0.39999999673E+01  0.40000000000E+01  0.51109989000E-03 0. -1.
     -623   -1    0    0    0    0  0.00000000000E+00  0.00000000000E+00  0.12525980253E-10  0.17130000000E+03  0.17130000000E+03 0. -1.
       11    1    1    2    0    0 -0.14714246313E-02  0.10523851003E-02  0.22030333923E-01  0.22110392092E-01  0.51109989000E-03 0. -1.
     -623    1    1    2    0    0  0.43972395936E-03  0.59235971131E-04  0.13059350251E-03  0.17130000000E+03  0.17130000000E+03 0. -1.
      622    1    1    2    0    0  0.10317006720E-02 -0.11116210714E-02  0.39778390399E+01  0.39778896073E+01  0.20000000000E-01 0. -1.
</event>
<event>
 5   0  0.3603037E+08  0.9118800E+02  0.7818608E-02  0.1180000E+00
       11   -1    0    0    0    0  0.00000000000E+00  0.00000000000E+00  0.39999999673E+01  0.40000000000E+01  0.51109989000E-03 0. -1.
     -623   -1    0    0    0    0  0.00000000000E+00  0.00000000000E+00  0.12525980253E-10  0.17130000000E+03  0.17130000000E+03 0. -1.
       11    1    1    2    0    0 -0.20790225760E-01  0.28412300588E-01  0.20434502564E+01  0.20437535820E+01  0.51109989000E-03 0. -1.
     -623    1    1    2    0    0 -0.21771856554E-02  0.24911724279E-02  0.78454374374E-03  0.17130000003E+03  0.17130000000E+03 0. -1.
      622    1    1    2    0    0  0.22967411416E-01 -0.30903473015E-01  0.19557651672E+01  0.19562463843E+01  0.20000000000E-01 0.  1.
</event>
<event>
 5   0  0.3603037E+08  0.9118800E+02  0.7818608E-02  0.1180000E+00
       11   -1    0    0    0    0  0.00000000000E+00  0.00000000000E+00  0.39999999673E+01  0.40000000000E+01  0.51109989000E-03 0. -1.
     -623   -1    0    0    0    0  0.00000000000E+00  0.00000000000E+00  0.12525980253E-10  0.17130000000E+03  0.17130000000E+03 0.  1.
       11    1    1    2    0    0  0.25136516423E-02 -0.29290860396E-02  0.10725714476E+00  0.10732778910E+00  0.51109989000E-03 0. -1.
     -623    1    1    2    0    0 -0.23780794254E-03  0.86393908604E-04  0.12369412837E-03  0.17130000000E+03  0.17130000000E+03 0.  1.
      622    1    1    2    0    0 -0.22758436997E-02  0.28426921310E-02  0.38926191285E+01  0.38926722107E+01  0.20000000000E-01 0. -1.
</event>
<event>
 5   0  0.3603037E+08  0.9118800E+02  0.7818608E-02  0.1180000E+00
       11   -1    0    0    0    0  0.00000000000E+00  0.00000000000E+00  0.39999999673E+01  0.40000000000E+01  0.51109989000E-03 0.  1.
     -623   -1    0    0    0    0  0.00000000000E+00  0.00000000000E+00  0.12525980253E-10  0.17130000000E+03  0.17130000000E+03 0.  1.
       11    1    1    2    0    0  0.73821485604E-02 -0.66826234203E-02  0.18137868724E+00  0.18165253364E+00  0.51109989000E-03 0.  1.
     -623    1    1    2    0    0 -0.87490243887E-02 -0.11920750619E-02  0.33478560241E-03  0.17130000023E+03  0.17130000000E+03 0.  1.
      622    1    1    2    0    0  0.13668758283E-02  0.78746984822E-02  0.38182864945E+01  0.38183472385E+01  0.20000000000E-01 0.  1.
</event>
<event>
 5   0  0.3603037E+08  0.9118800E+02  0.7818608E-02  0.1180000E+00
       11   -1    0    0    0    0  0.00000000000E+00  0.00000000000E+00  0.39999999673E+01  0.40000000000E+01  0.51109989000E-03 0. -1.
     -623   -1    0    0    0    0  0.00000000000E+00  0.00000000000E+00  0.12525980253E-10  0.17130000000E+03  0.17130000000E+03 0.  1.
       11    1    1    2    0    0  0.31179050549E-03  0.11949192222E-02  0.16553727571E+00  0.16554267099E+00  0.51109989000E-03 0. -1.
     -623    1    1    2    0    0  0.16278660766E-03 -0.22856373559E-03  0.57672988744E-04  0.17130000000E+03  0.17130000000E+03 0.  1.
      622    1    1    2    0    0 -0.47457711314E-03 -0.96635548664E-03  0.38344050187E+01  0.38344573288E+01  0.20000000000E-01 0. -1.
</event>
<event>
 5   0  0.3603037E+08  0.9118800E+02  0.7818608E-02  0.1180000E+00
       11   -1    0    0    0    0  0.00000000000E+00  0.00000000000E+00  0.39999999673E+01  0.40000000000E+01  0.51109989000E-03 0.  1.
     -623   -1    0    0    0    0  0.00000000000E+00  0.00000000000E+00  0.12525980253E-10  0.17130000000E+03  0.17130000000E+03 0. -1.
       11    1    1    2    0    0  0.78482081559E-02  0.45805398641E-02  0.51119747140E+00  0.51127848743E+00  0.51109989000E-03 0.  1.
     -623    1    1    2    0    0 -0.11558225313E-01  0.10475100906E-01  0.17348162720E-03  0.17130000071E+03  0.17130000000E+03 0. -1.
      622    1    1    2    0    0  0.37100171574E-02 -0.15055640770E-01  0.34886290143E+01  0.34887208023E+01  0.20000000000E-01 0.  1.
</event>
<event>
 5   0  0.3603037E+08  0.9118800E+02  0.7818608E-02  0.1180000E+00
       11   -1    0    0    0    0  0.00000000000E+00  0.00000000000E+00  0.39999999673E+01  0.40000000000E+01  0.51109989000E-03 0. -1.
     -623   -1    0    0    0    0  0.00000000000E+00  0.00000000000E+00  0.12525980253E-10  0.17130000000E+03  0.17130000000E+03 0. -1.
       11    1    1    2    0    0  0.45739404247E-01 -0.11582864952E-01  0.24609111397E+01  0.24613634747E+01  0.51109989000E-03 0. -1.
     -623    1    1    2    0    0 -0.58759110445E-01  0.11867394424E-01  0.64790169751E-03  0.17130001049E+03  0.17130000000E+03 0. -1.
      622    1    1    2    0    0  0.13019706198E-01 -0.28452947158E-03  0.15384409260E+01  0.15386260353E+01  0.20000000000E-01 0. -1.
</event>
<event>
 5   0  0.3603037E+08  0.9118800E+02  0.7818608E-02  0.1180000E+00
       11   -1    0    0    0    0  0.00000000000E+00  0.00000000000E+00  0.39999999673E+01  0.40000000000E+01  0.51109989000E-03 0.  1.
     -623   -1    0    0    0    0  0.00000000000E+00  0.00000000000E+00  0.12525980253E-10  0.17130000000E+03  0.17130000000E+03 0.  1.
       11    1    1    2    0    0 -0.27778225915E-02  0.43854206852E-02  0.85276921882E+00  0.85278517225E+00  0.51109989000E-03 0.  1.
     -623    1    1    2    0    0 -0.67005488852E-03 -0.74837189991E-03  0.83462918495E-04  0.17130000000E+03  0.17130000000E+03 0.  1.
      622    1    1    2    0    0  0.34478774801E-02 -0.36370487853E-02  0.31471472856E+01  0.31472148248E+01  0.20000000000E-01 0.  1.
</event>
<event>
 5   0  0.3603037E+08  0.9118800E+02  0.7818608E-02  0.1180000E+00
       11   -1    0    0    0    0  0.00000000000E+00  0.00000000000E+00  0.39999999673E+01  0.40000000000E+01  0.51109989000E-03 0.  1.
     -623   -1    0    0    0    0  0.00000000000E+00  0.00000000000E+00  0.12525980253E-10  0.17130000000E+03  0.17130000000E+03 0.  1.
       11    1    1    2    0    0 -0.76855696699E-03 -0.10491865666E-01  0.32186035281E+00  0.32203263477E+00  0.51109989000E-03 0.  1.
     -623    1    1    2    0    0 -0.33175125595E-02  0.13323658896E-02  0.24034028538E-03  0.17130000004E+03  0.17130000000E+03 0.  1.
      622    1    1    2    0    0  0.40860695265E-02  0.91594997768E-02  0.36778992743E+01  0.36779673278E+01  0.20000000000E-01 0.  1.
</event>
<event>
 5   0  0.3603037E+08  0.9118800E+02  0.7818608E-02  0.1180000E+00
       11   -1    0    0    0    0  0.00000000000E+00  0.00000000000E+00  0.39999999673E+01  0.40000000000E+01  0.51109989000E-03 0.  1.
     -623   -1    0    0    0    0  0.00000000000E+00  0.00000000000E+00  0.12525980253E-10  0.17130000000E+03  0.17130000000E+03 0.  1.
       11    1    1    2    0    0  0.98574270626E-03 -0.16172042177E-02  0.11054569431E+00  0.11056309867E+00  0.51109989000E-03 0.  1.
     -623    1    1    2    0    0 -0.78260343073E-03 -0.57803441561E-03  0.69420990951E-04  0.17130000000E+03  0.17130000000E+03 0.  1.
      622    1    1    2    0    0 -0.20313927553E-03  0.21952386333E-02  0.38893848521E+01  0.38894368985E+01  0.20000000000E-01 0.  1.
</event>
<event>
 5   0  0.3603037E+08  0.9118800E+02  0.7818608E-02  0.1180000E+00
       11   -1    0    0    0    0  0.00000000000E+00  0.00000000000E+00  0.39999999673E+01  0.40000000000E+01  0.51109989000E-03 0.  1.
     -623   -1    0    0    0    0  0.00000000000E+00  0.00000000000E+00  0.12525980253E-10  0.17130000000E+03  0.17130000000E+03 0.  1.
       11    1    1    2    0    0  0.84122001914E-04  0.13350895039E-03  0.36018965000E+00  0.36019004718E+00  0.51109989000E-03 0.  1.
     -623    1    1    2    0    0  0.33516385523E-03  0.53255541663E-04  0.55342168047E-04  0.17130000000E+03  0.17130000000E+03 0.  1.
      622    1    1    2    0    0 -0.41928585715E-03 -0.18676449205E-03  0.36397549752E+01  0.36398099525E+01  0.20000000000E-01 0.  1.
</event>
<event>
 5   0  0.3603037E+08  0.9118800E+02  0.7818608E-02  0.1180000E+00
       11   -1    0    0    0    0  0.00000000000E+00  0.00000000000E+00  0.39999999673E+01  0.40000000000E+01  0.51109989000E-03 0.  1.
     -623   -1    0    0    0    0  0.00000000000E+00  0.00000000000E+00  0.12525980253E-10  0.17130000000E+03  0.17130000000E+03 0.  1.
       11    1    1    2    0    0  0.94562059051E-02  0.99165777255E-03  0.29762755576E-01  0.31248776868E-01  0.51109989000E-03 0.  1.
     -623    1    1    2    0    0 -0.61197899154E-02  0.49963629789E-02  0.15424916200E-02  0.17130000019E+03  0.17130000000E+03 0.  1.
      622    1    1    2    0    0 -0.33364159896E-02 -0.59880207514E-02  0.39686947202E+01  0.39687510340E+01  0.20000000000E-01 0.  1.
</event>
<event>
 5   0  0.3603037E+08  0.9118800E+02  0.7818608E-02  0.1180000E+00
       11   -1    0    0    0    0  0.00000000000E+00  0.00000000000E+00  0.39999999673E+01  0.40000000000E+01  0.51109989000E-03 0.  1.
     -623   -1    0    0    0    0  0.00000000000E+00  0.00000000000E+00  0.12525980253E-10  0.17130000000E+03  0.17130000000E+03 0. -1.
       11    1    1    2    0    0 -0.13793236681E-01  0.27842482742E-01  0.25558349403E+01  0.25560238576E+01  0.51109989000E-03 0.  1.
     -623    1    1    2    0    0  0.41549234789E-03 -0.43018752916E-02  0.58135600288E-03  0.17130000006E+03  0.17130000000E+03 0. -1.
      622    1    1    2    0    0  0.13377744333E-01 -0.23540607450E-01  0.14435836711E+01  0.14439760869E+01  0.20000000000E-01 0.  0.
</event>
<event>
 5   0  0.3603037E+08  0.9118800E+02  0.7818608E-02  0.1180000E+00
       11   -1    0    0    0    0  0.00000000000E+00  0.00000000000E+00  0.39999999673E+01  0.40000000000E+01  0.51109989000E-03 0.  1.
     -623   -1    0    0    0    0  0.00000000000E+00  0.00000000000E+00  0.12525980253E-10  0.17130000000E+03  0.17130000000E+03 0. -1.
       11    1    1    2    0    0  0.14734034273E-02 -0.12936407753E-02  0.24722151925E+00  0.24722982269E+00  0.51109989000E-03 0.  1.
     -623    1    1    2    0    0  0.44265288555E-04 -0.20787736560E-03  0.62172560749E-04  0.17130000000E+03  0.17130000000E+03 0. -1.
      622    1    1    2    0    0 -0.15176687159E-02  0.15015181409E-02  0.37527162755E+01  0.37527701772E+01  0.20000000000E-01 0.  1.
</event>
<event>
 5   0  0.3603037E+08  0.9118800E+02  0.7818608E-02  0.1180000E+00
       11   -1    0    0    0    0  0.00000000000E+00  0.00000000000E+00  0.39999999673E+01  0.40000000000E+01  0.51109989000E-03 0. -1.
     -623   -1    0    0    0    0  0.00000000000E+00  0.00000000000E+00  0.12525980253E-10  0.17130000000E+03  0.17130000000E+03 0.  1.
       11    1    1    2    0    0  0.22107992043E-03 -0.17218792456E-02  0.19213902353E+01  0.19213910875E+01  0.51109989000E-03 0. -1.
     -623    1    1    2    0    0  0.74815827584E-03 -0.80996304618E-03  0.98811605966E-04  0.17130000000E+03  0.17130000000E+03 0.  1.
      622    1    1    2    0    0 -0.96923819627E-03  0.25318422918E-02  0.20785109205E+01  0.20786089089E+01  0.20000000000E-01 0.  1.
</event>
<event>
 5   0  0.3603037E+08  0.9118800E+02  0.7818608E-02  0.1180000E+00
       11   -1    0    0    0    0  0.00000000000E+00  0.00000000000E+00  0.39999999673E+01  0.40000000000E+01  0.51109989000E-03 0.  1.
     -623   -1    0    0    0    0  0.00000000000E+00  0.00000000000E+00  0.12525980253E-10  0.17130000000E+03  0.17130000000E+03 0.  1.
       11    1    1    2    0    0 -0.52250796421E-03  0.92909830400E-02  0.47181895999E-02  0.10445952079E-01  0.51109989000E-03 0.  1.
     -623    1    1    2    0    0  0.48706313568E-02 -0.64342704151E-02  0.57815410003E-02  0.17130000029E+03  0.17130000000E+03 0.  1.
      622    1    1    2    0    0 -0.43481233926E-02 -0.28567126249E-02  0.39895002368E+01  0.39895537603E+01  0.20000000000E-01 0.  1.
</event>
<event>
 5   0  0.3603037E+08  0.9118800E+02  0.7818608E-02  0.1180000E+00
       11   -1    0    0    0    0  0.00000000000E+00  0.00000000000E+00  0.39999999673E+01  0.40000000000E+01  0.51109989000E-03 0. -1.
     -623   -1    0    0    0    0  0.00000000000E+00  0.00000000000E+00  0.12525980253E-10  0.17130000000E+03  0.17130000000E+03 0.  1.
       11    1    1    2    0    0 -0.28308795604E-02  0.78805616528E-03  0.67308359542E+00  0.67309020388E+00  0.51109989000E-03 0. -1.
     -623    1    1    2    0    0  0.13467351264E-03  0.44974446390E-04  0.67889127755E-04  0.17130000000E+03  0.17130000000E+03 0.  1.
      622    1    1    2    0    0  0.26962060478E-02 -0.83303061167E-03  0.33268484828E+01  0.33269097960E+01  0.20000000000E-01 0. -1.
</event>
<event>
 5   0  0.3603037E+08  0.9118800E+02  0.7818608E-02  0.1180000E+00
       11   -1    0    0    0    0  0.00000000000E+00  0.00000000000E+00  0.39999999673E+01  0.40000000000E+01  0.51109989000E-03 0.  1.
     -623   -1    0    0    0    0  0.00000000000E+00  0.00000000000E+00  0.12525980253E-10  0.17130000000E+03  0.17130000000E+03 0.  1.
       11    1    1    2    0    0 -0.61591198486E-02  0.44034001229E-02  0.51365859386E-01  0.51923380293E-01  0.51109989000E-03 0.  1.
     -623    1    1    2    0    0  0.43086691323E-02 -0.16108358288E-02  0.60963030807E-03  0.17130000006E+03  0.17130000000E+03 0.  1.
      622    1    1    2    0    0  0.18504507163E-02 -0.27925642940E-02  0.39480244777E+01  0.39480765569E+01  0.20000000000E-01 0.  1.
</event>
<event>
 5   0  0.3603037E+08  0.9118800E+02  0.7818608E-02  0.1180000E+00
       11   -1    0    0    0    0  0.00000000000E+00  0.00000000000E+00  0.39999999673E+01  0.40000000000E+01  0.51109989000E-03 0. -1.
     -623   -1    0    0    0    0  0.00000000000E+00  0.00000000000E+00  0.12525980253E-10  0.17130000000E+03  0.17130000000E+03 0.  1.
       11    1    1    2    0    0  0.61065818039E-03 -0.37246733139E-03  0.18166335856E+00  0.18166548572E+00  0.51109989000E-03 0. -1.
     -623    1    1    2    0    0 -0.26517662224E-03 -0.31783592073E-04  0.54510980111E-04  0.17130000000E+03  0.17130000000E+03 0.  1.
      622    1    1    2    0    0 -0.34548155815E-03  0.40425092346E-03  0.38182820978E+01  0.38183345141E+01  0.20000000000E-01 0. -1.
</event>
<event>
 5   0  0.3603037E+08  0.9118800E+02  0.7818608E-02  0.1180000E+00
       11   -1    0    0    0    0  0.00000000000E+00  0.00000000000E+00  0.39999999673E+01  0.40000000000E+01  0.51109989000E-03 0. -1.
     -623   -1    0    0    0    0  0.00000000000E+00  0.00000000000E+00  0.12525980253E-10  0.17130000000E+03  0.17130000000E+03 0.  1.
       11    1    1    2    0    0 -0.69926366065E-03  0.10242953417E-02  0.36264026077E-02  0.38665447623E-02  0.51109989000E-03 0. -1.
     -623    1    1    2    0    0  0.24531794026E-02  0.37764814069E-03  0.29080726197E-03  0.17130000002E+03  0.17130000000E+03 0.  1.
      622    1    1    2    0    0 -0.17539157419E-02 -0.14019434824E-02  0.39960827575E+01  0.39961334370E+01  0.20000000000E-01 0. -1.
</event>
<event>
 5   0  0.3603037E+08  0.9118800E+02  0.7818608E-02  0.1180000E+00
       11   -1    0    0    0    0  0.00000000000E+00  0.00000000000E+00  0.39999999673E+01  0.40000000000E+01  0.51109989000E-03 0. -1.
     -623   -1    0    0    0    0  0.00000000000E+00  0.00000000000E+00  0.12525980253E-10  0.17130000000E+03  0.17130000000E+03 0.  1.
       11    1    1    2    0    0 -0.32568087478E-03  0.26875498984E-02  0.18395106054E-01  0.18600272615E-01  0.51109989000E-03 0. -1.
     -623    1    1    2    0    0 -0.70610939323E-03 -0.26463697133E-03  0.25624062672E-03  0.17130000000E+03  0.17130000000E+03 0.  1.
      622    1    1    2    0    0  0.10317902680E-02 -0.24229129271E-02  0.39813486207E+01  0.39813997255E+01  0.20000000000E-01 0. -1.
</event>
<event>
 5   0  0.3603037E+08  0.9118800E+02  0.7818608E-02  0.1180000E+00
       11   -1    0    0    0    0  0.00000000000E+00  0.00000000000E+00  0.39999999673E+01  0.40000000000E+01  0.51109989000E-03 0. -1.
     -623   -1    0    0    0    0  0.00000000000E+00  0.00000000000E+00  0.12525980253E-10  0.17130000000E+03  0.17130000000E+03 0.  1.
       11    1    1    2    0    0  0.51828643504E-02  0.40823893892E-02  0.58324605291E+00  0.58328359093E+00  0.51109989000E-03 0. -1.
     -623    1    1    2    0    0 -0.10126777387E-03  0.11327477335E-03  0.10239678780E-03  0.17130000000E+03  0.17130000000E+03 0.  1.
      622    1    1    2    0    0 -0.50815965765E-02 -0.41956641625E-02  0.34166515177E+01  0.34167164090E+01  0.20000000000E-01 0. -1.
</event>
<event>
 5   0  0.3603037E+08  0.9118800E+02  0.7818608E-02  0.1180000E+00
       11   -1    0    0    0    0  0.00000000000E+00  0.00000000000E+00  0.39999999673E+01  0.40000000000E+01  0.51109989000E-03 0. -1.
     -623   -1    0    0    0    0  0.00000000000E+00  0.00000000000E+00  0.12525980253E-10  0.17130000000E+03  0.17130000000E+03 0.  1.
       11    1    1    2    0    0  0.12102891934E-02  0.50684156315E-03  0.79688461981E-01  0.79700902643E-01  0.51109989000E-03 0. -1.
     -623    1    1    2    0    0 -0.31348414620E-03  0.12451379989E-03  0.63578631249E-04  0.17130000000E+03  0.17130000000E+03 0.  1.
      622    1    1    2    0    0 -0.89680504723E-03 -0.63135536303E-03  0.39202479267E+01  0.39202990970E+01  0.20000000000E-01 0. -1.
</event>
<event>
 5   0  0.3603037E+08  0.9118800E+02  0.7818608E-02  0.1180000E+00
       11   -1    0    0    0    0  0.00000000000E+00  0.00000000000E+00  0.39999999673E+01  0.40000000000E+01  0.51109989000E-03 0.  1.
     -623   -1    0    0    0    0  0.00000000000E+00  0.00000000000E+00  0.12525980253E-10  0.17130000000E+03  0.17130000000E+03 0. -1.
       11    1    1    2    0    0  0.32480889123E-02 -0.97296830280E-03  0.34131465591E+00  0.34133188000E+00  0.51109989000E-03 0.  1.
     -623    1    1    2    0    0 -0.22300970474E-04  0.22451024313E-02  0.73514545520E-04  0.17130000001E+03  0.17130000000E+03 0. -1.
      622    1    1    2    0    0 -0.32257879418E-02 -0.12721341285E-02  0.36586117969E+01  0.36586681053E+01  0.20000000000E-01 0.  1.
</event>
<event>
 5   0  0.3603037E+08  0.9118800E+02  0.7818608E-02  0.1180000E+00
       11   -1    0    0    0    0  0.00000000000E+00  0.00000000000E+00  0.39999999673E+01  0.40000000000E+01  0.51109989000E-03 0.  1.
     -623   -1    0    0    0    0  0.00000000000E+00  0.00000000000E+00  0.12525980253E-10  0.17130000000E+03  0.17130000000E+03 0. -1.
       11    1    1    2    0    0 -0.23046813675E-04  0.23527222629E-02  0.11082437854E+00  0.11085052970E+00  0.51109989000E-03 0.  1.
     -623    1    1    2    0    0 -0.17647191196E-02 -0.13077751383E-02  0.78109368627E-04  0.17130000001E+03  0.17130000000E+03 0. -1.
      622    1    1    2    0    0  0.17877659333E-02 -0.10449471246E-02  0.38890974794E+01  0.38891494562E+01  0.20000000000E-01 0.  1.
</event>
<event>
 5   0  0.3603037E+08  0.9118800E+02  0.7818608E-02  0.1180000E+00
       11   -1    0    0    0    0  0.00000000000E+00  0.00000000000E+00  0.39999999673E+01  0.40000000000E+01  0.51109989000E-03 0. -1.
     -623   -1    0    0    0    0  0.00000000000E+00  0.00000000000E+00  0.12525980253E-10  0.17130000000E+03  0.17130000000E+03 0.  1.
       11    1    1    2    0    0 -0.12257512738E-01  0.84989475281E-02  0.21066793351E+01  0.21067321996E+01  0.51109989000E-03 0. -1.
     -623    1    1    2    0    0 -0.40768866957E-02 -0.39333704605E-02  0.23454029821E-03  0.17130000009E+03  0.17130000000E+03 0.  1.
      622    1    1    2    0    0  0.16334399434E-01 -0.45655770677E-02  0.18930860920E+01  0.18932677066E+01  0.20000000000E-01 0. -1.
</event>
<event>
 5   0  0.3603037E+08  0.9118800E+02  0.7818608E-02  0.1180000E+00
       11   -1    0    0    0    0  0.00000000000E+00  0.00000000000E+00  0.39999999673E+01  0.40000000000E+01  0.51109989000E-03 0. -1.
     -623   -1    0    0    0    0  0.00000000000E+00  0.00000000000E+00  0.12525980253E-10  0.17130000000E+03  0.17130000000E+03 0. -1.
       11    1    1    2    0    0 -0.38373404424E-03 -0.11742051072E-03  0.27513115864E-01  0.27520788599E-01  0.51109989000E-03 0. -1.
     -623    1    1    2    0    0  0.33490547698E-04  0.20223848001E-04  0.58003450127E-04  0.17130000000E+03  0.17130000000E+03 0. -1.
      622    1    1    2    0    0  0.35024349654E-03  0.97196662718E-04  0.39724288480E+01  0.39724792114E+01  0.20000000000E-01 0. -1.
</event>
<event>
 5   0  0.3603037E+08  0.9118800E+02  0.7818608E-02  0.1180000E+00
       11   -1    0    0    0    0  0.00000000000E+00  0.00000000000E+00  0.39999999673E+01  0.40000000000E+01  0.51109989000E-03 0. -1.
     -623   -1    0    0    0    0  0.00000000000E+00  0.00000000000E+00  0.12525980253E-10  0.17130000000E+03  0.17130000000E+03 0.  1.
       11    1    1    2    0    0  0.12216520144E-02  0.67301048262E-02  0.18639653449E+00  0.18652269577E+00  0.51109989000E-03 0. -1.
     -623    1    1    2    0    0 -0.51376755116E-02  0.14519243266E-02  0.18944620379E-03  0.17130000008E+03  0.17130000000E+03 0.  1.
      622    1    1    2    0    0  0.39160234972E-02 -0.81820291528E-02  0.38134139867E+01  0.38134772209E+01  0.20000000000E-01 0. -1.
</event>
<event>
 5   0  0.3603037E+08  0.9118800E+02  0.7818608E-02  0.1180000E+00
       11   -1    0    0    0    0  0.00000000000E+00  0.00000000000E+00  0.39999999673E+01  0.40000000000E+01  0.51109989000E-03 0.  1.
     -623   -1    0    0    0    0  0.00000000000E+00  0.00000000000E+00  0.12525980253E-10  0.17130000000E+03  0.17130000000E+03 0.  1.
       11    1    1    2    0    0  0.11730506862E-02 -0.90891731386E-03  0.89621731963E-01  0.89635474229E-01  0.51109989000E-03 0.  1.
     -623    1    1    2    0    0 -0.14731728277E-02 -0.26837271195E-02  0.66545367259E-04  0.17130000003E+03  0.17130000000E+03 0.  1.
      622    1    1    2    0    0  0.30012214141E-03  0.35926444334E-02  0.39103116900E+01  0.39103644984E+01  0.20000000000E-01 0.  1.
</event>
<event>
 5   0  0.3603037E+08  0.9118800E+02  0.7818608E-02  0.1180000E+00
       11   -1    0    0    0    0  0.00000000000E+00  0.00000000000E+00  0.39999999673E+01  0.40000000000E+01  0.51109989000E-03 0. -1.
     -623   -1    0    0    0    0  0.00000000000E+00  0.00000000000E+00  0.12525980253E-10  0.17130000000E+03  0.17130000000E+03 0.  1.
       11    1    1    2    0    0  0.47345459750E-02 -0.74868448294E-02  0.20598720260E+00  0.20617821812E+00  0.51109989000E-03 0. -1.
     -623    1    1    2    0    0 -0.13654868332E-02  0.48325691644E-03  0.25166737955E-03  0.17130000001E+03  0.17130000000E+03 0.  1.
      622    1    1    2    0    0 -0.33690591418E-02  0.70035879129E-02  0.37937610974E+01  0.37938217756E+01  0.20000000000E-01 0. -1.
</event>
<event>
 5   0  0.3603037E+08  0.9118800E+02  0.7818608E-02  0.1180000E+00
       11   -1    0    0    0    0  0.00000000000E+00  0.00000000000E+00  0.39999999673E+01  0.40000000000E+01  0.51109989000E-03 0. -1.
     -623   -1    0    0    0    0  0.00000000000E+00  0.00000000000E+00  0.12525980253E-10  0.17130000000E+03  0.17130000000E+03 0.  1.
       11    1    1    2    0    0  0.10697360158E-02 -0.17346820437E-02  0.53750091189E+00  0.53750501855E+00  0.51109989000E-03 0. -1.
     -623    1    1    2    0    0 -0.12490062177E-02 -0.70426831691E-03  0.62705969025E-04  0.17130000001E+03  0.17130000000E+03 0.  1.
      622    1    1    2    0    0  0.17927020184E-03  0.24389503606E-02  0.34624363495E+01  0.34624949754E+01  0.20000000000E-01 0. -1.
</event>
<event>
 5   0  0.3603037E+08  0.9118800E+02  0.7818608E-02  0.1180000E+00
       11   -1    0    0    0    0  0.00000000000E+00  0.00000000000E+00  0.39999999673E+01  0.40000000000E+01  0.51109989000E-03 0. -1.
     -623   -1    0    0    0    0  0.00000000000E+00  0.00000000000E+00  0.12525980253E-10  0.17130000000E+03  0.17130000000E+03 0.  1.
       11    1    1    2    0    0  0.47294360213E-02 -0.55724770045E-02  0.25519822322E+00  0.25530337722E+00  0.51109989000E-03 0. -1.
     -623    1    1    2    0    0  0.13024100824E-02 -0.35803878060E-03  0.16809023415E-03  0.17130000001E+03  0.17130000000E+03 0.  1.
      622    1    1    2    0    0 -0.60318461037E-02  0.59305157851E-02  0.37446336539E+01  0.37446966174E+01  0.20000000000E-01 0. -1.
</event>
<event>
 5   0  0.3603037E+08  0.9118800E+02  0.7818608E-02  0.1180000E+00
       11   -1    0    0    0    0  0.00000000000E+00  0.00000000000E+00  0.39999999673E+01  0.40000000000E+01  0.51109989000E-03 0.  1.
     -623   -1    0    0    0    0  0.00000000000E+00  0.00000000000E+00  0.12525980253E-10  0.17130000000E+03  0.17130000000E+03 0.  1.
       11    1    1    2    0    0  0.12267300122E-01  0.87966495217E-02  0.16972246428E+00  0.17039320349E+00  0.51109989000E-03 0.  1.
     -623    1    1    2    0    0 -0.59620935391E-03  0.33888296473E-02  0.76013949947E-03  0.17130000004E+03  0.17130000000E+03 0.  1.
      622    1    1    2    0    0 -0.11671090768E-01 -0.12185479169E-01  0.38295173636E+01  0.38296067603E+01  0.20000000000E-01 0.  1.
</event>
<event>
 5   0  0.3603037E+08  0.9118800E+02  0.7818608E-02  0.1180000E+00
       11   -1    0    0    0    0  0.00000000000E+00  0.00000000000E+00  0.39999999673E+01  0.40000000000E+01  0.51109989000E-03 0.  1.
     -623   -1    0    0    0    0  0.00000000000E+00  0.00000000000E+00  0.12525980253E-10  0.17130000000E+03  0.17130000000E+03 0.  1.
       11    1    1    2    0    0  0.95810628192E-02 -0.58460445044E-02  0.11060980358E+01  0.11061550972E+01  0.51109989000E-03 0.  1.
     -623    1    1    2    0    0  0.88634906200E-03 -0.27635244682E-02  0.15790565449E-03  0.17130000002E+03  0.17130000000E+03 0.  1.
      622    1    1    2    0    0 -0.10467411881E-01  0.86095689726E-02  0.28937440259E+01  0.28938448782E+01  0.20000000000E-01 0.  1.
</event>
<event>
 5   0  0.3603037E+08  0.9118800E+02  0.7818608E-02  0.1180000E+00
       11   -1    0    0    0    0  0.00000000000E+00  0.00000000000E+00  0.39999999673E+01  0.40000000000E+01  0.51109989000E-03 0.  1.
     -623   -1    0    0    0    0  0.00000000000E+00  0.00000000000E+00  0.12525980253E-10  0.17130000000E+03  0.17130000000E+03 0.  1.
       11    1    1    2    0    0  0.11834657751E-02  0.19228240568E-04  0.10759520404E-01  0.10836487468E-01  0.51109989000E-03 0. -1.
     -623    1    1    2    0    0 -0.12269776875E-03  0.47892439930E-04  0.12721226272E-03  0.17130000000E+03  0.17130000000E+03 0.  1.
      622    1    1    2    0    0 -0.10607680064E-02 -0.67120680498E-04  0.39891132347E+01  0.39891635124E+01  0.20000000000E-01 0.  1.
</event>
<event>
 5   0  0.3603037E+08  0.9118800E+02  0.7818608E-02  0.1180000E+00
       11   -1    0    0    0    0  0.00000000000E+00  0.00000000000E+00  0.39999999673E+01  0.40000000000E+01  0.51109989000E-03 0. -1.
     -623   -1    0    0    0    0  0.00000000000E+00  0.00000000000E+00  0.12525980253E-10  0.17130000000E+03  0.17130000000E+03 0.  1.
       11    1    1    2    0    0 -0.48260973913E-02  0.28756881456E-02  0.31635299044E+00  0.31640328156E+00  0.51109989000E-03 0. -1.
     -623    1    1    2    0    0  0.10151271078E-02 -0.10316691478E-02  0.10699275595E-03  0.17130000001E+03  0.17130000000E+03 0.  1.
      622    1    1    2    0    0  0.38109702835E-02 -0.18440189979E-02  0.36835399842E+01  0.36835967123E+01  0.20000000000E-01 0.  0.
</event>
<event>
 5   0  0.3603037E+08  0.9118800E+02  0.7818608E-02  0.1180000E+00
       11   -1    0    0    0    0  0.00000000000E+00  0.00000000000E+00  0.39999999673E+01  0.40000000000E+01  0.51109989000E-03 0. -1.
     -623   -1    0    0    0    0  0.00000000000E+00  0.00000000000E+00  0.12525980253E-10  0.17130000000E+03  0.17130000000E+03 0.  1.
       11    1    1    2    0    0 -0.28220032880E-02 -0.51937471734E-02  0.71672578541E+00  0.71675034106E+00  0.51109989000E-03 0. -1.
     -623    1    1    2    0    0  0.49896560658E-03  0.82661001122E-04  0.90239770590E-04  0.17130000000E+03  0.17130000000E+03 0.  1.
      622    1    1    2    0    0  0.23230376814E-02  0.51110861723E-02  0.32831839422E+01  0.32832496582E+01  0.20000000000E-01 0. -1.
</event>
<event>
 5   0  0.3603037E+08  0.9118800E+02  0.7818608E-02  0.1180000E+00
       11   -1    0    0    0    0  0.00000000000E+00  0.00000000000E+00  0.39999999673E+01  0.40000000000E+01  0.51109989000E-03 0.  1.
     -623   -1    0    0    0    0  0.00000000000E+00  0.00000000000E+00  0.12525980253E-10  0.17130000000E+03  0.17130000000E+03 0.  1.
       11    1    1    2    0    0  0.15391490339E-01 -0.48438977184E-02  0.14890851300E+01  0.14891726384E+01  0.51109989000E-03 0.  1.
     -623    1    1    2    0    0 -0.83226185722E-04  0.45014618376E-03  0.21764573415E-03  0.17130000000E+03  0.17130000000E+03 0.  1.
      622    1    1    2    0    0 -0.15308264153E-01  0.43937515347E-02  0.25106971916E+01  0.25108273608E+01  0.20000000000E-01 0.  0.
</event>
<event>
 5   0  0.3603037E+08  0.9118800E+02  0.7818608E-02  0.1180000E+00
       11   -1    0    0    0    0  0.00000000000E+00  0.00000000000E+00  0.39999999673E+01  0.40000000000E+01  0.51109989000E-03 0. -1.
     -623   -1    0    0    0    0  0.00000000000E+00  0.00000000000E+00  0.12525980253E-10  0.17130000000E+03  0.17130000000E+03 0.  1.
       11    1    1    2    0    0  0.10902550795E-03 -0.59541595137E-03  0.23624699553E-01  0.23637979144E-01  0.51109989000E-03 0. -1.
     -623    1    1    2    0    0 -0.85692113496E-04  0.72489489205E-04  0.63579002583E-04  0.17130000000E+03  0.17130000000E+03 0.  1.
      622    1    1    2    0    0 -0.23333394452E-04  0.52292646217E-03  0.39763116888E+01  0.39763620208E+01  0.20000000000E-01 0. -1.
</event>
<event>
 5   0  0.3603037E+08  0.9118800E+02  0.7818608E-02  0.1180000E+00
       11   -1    0    0    0    0  0.00000000000E+00  0.00000000000E+00  0.39999999673E+01  0.40000000000E+01  0.51109989000E-03 0. -1.
     -623   -1    0    0    0    0  0.00000000000E+00  0.00000000000E+00  0.12525980253E-10  0.17130000000E+03  0.17130000000E+03 0.  1.
       11    1    1    2    0    0  0.32350327467E-02  0.36838012115E-02  0.41659568463E+00  0.41662484504E+00  0.51109989000E-03 0. -1.
     -623    1    1    2    0    0 -0.49565578181E-04  0.90299243790E-04  0.88344972247E-04  0.17130000000E+03  0.17130000000E+03 0.  1.
      622    1    1    2    0    0 -0.31854671685E-02 -0.37741004553E-02  0.35833159378E+01  0.35833751549E+01  0.20000000000E-01 0. -1.
</event>
<event>
 5   0  0.3603037E+08  0.9118800E+02  0.7818608E-02  0.1180000E+00
       11   -1    0    0    0    0  0.00000000000E+00  0.00000000000E+00  0.39999999673E+01  0.40000000000E+01  0.51109989000E-03 0.  1.
     -623   -1    0    0    0    0  0.00000000000E+00  0.00000000000E+00  0.12525980253E-10  0.17130000000E+03  0.17130000000E+03 0.  1.
       11    1    1    2    0    0 -0.21136324578E-02 -0.32281793523E-03  0.79530717998E-01  0.79561095897E-01  0.51109989000E-03 0.  1.
     -623    1    1    2    0    0 -0.18231091049E-03 -0.15694921912E-02  0.82496588261E-04  0.17130000001E+03  0.17130000000E+03 0.  1.
      622    1    1    2    0    0  0.22959433683E-02  0.18923101264E-02  0.39203867528E+01  0.39204388968E+01  0.20000000000E-01 0.  1.
</event>
<event>
 5   0  0.3603037E+08  0.9118800E+02  0.7818608E-02  0.1180000E+00
       11   -1    0    0    0    0  0.00000000000E+00  0.00000000000E+00  0.39999999673E+01  0.40000000000E+01  0.51109989000E-03 0.  1.
     -623   -1    0    0    0    0  0.00000000000E+00  0.00000000000E+00  0.12525980253E-10  0.17130000000E+03  0.17130000000E+03 0. -1.
       11    1    1    2    0    0 -0.99935374993E-02 -0.31059653220E-01  0.47588626690E+00  0.47700374537E+00  0.51109989000E-03 0.  1.
     -623    1    1    2    0    0 -0.22913425022E-02 -0.11378464171E-02  0.13427965827E-02  0.17130000002E+03  0.17130000000E+03 0. -1.
      622    1    1    2    0    0  0.12284880001E-01  0.32197499637E-01  0.35227709039E+01  0.35229962303E+01  0.20000000000E-01 0.  1.
</event>
<event>
 5   0  0.3603037E+08  0.9118800E+02  0.7818608E-02  0.1180000E+00
       11   -1    0    0    0    0  0.00000000000E+00  0.00000000000E+00  0.39999999673E+01  0.40000000000E+01  0.51109989000E-03 0.  1.
     -623   -1    0    0    0    0  0.00000000000E+00  0.00000000000E+00  0.12525980253E-10  0.17130000000E+03  0.17130000000E+03 0.  1.
       11    1    1    2    0    0 -0.11172719080E-02  0.56169595161E-02  0.76050977885E+00  0.76053151380E+00  0.51109989000E-03 0.  1.
     -623    1    1    2    0    0  0.21017977747E-02 -0.42896496098E-04  0.88399613770E-04  0.17130000001E+03  0.17130000000E+03 0.  1.
      622    1    1    2    0    0 -0.98452586672E-03 -0.55740630200E-02  0.32394017889E+01  0.32394684733E+01  0.20000000000E-01 0.  1.
</event>
<event>
 5   0  0.3603037E+08  0.9118800E+02  0.7818608E-02  0.1180000E+00
       11   -1    0    0    0    0  0.00000000000E+00  0.00000000000E+00  0.39999999673E+01  0.40000000000E+01  0.51109989000E-03 0.  1.
     -623   -1    0    0    0    0  0.00000000000E+00  0.00000000000E+00  0.12525980253E-10  0.17130000000E+03  0.17130000000E+03 0. -1.
       11    1    1    2    0    0  0.11164579953E-02 -0.80165024764E-03  0.24584674464E-01  0.24628369021E-01  0.51109989000E-03 0.  1.
     -623    1    1    2    0    0 -0.22186310298E-03 -0.36337643296E-04  0.94161152098E-04  0.17130000000E+03  0.17130000000E+03 0. -1.
      622    1    1    2    0    0 -0.89459489234E-03  0.83798789094E-03  0.39753211317E+01  0.39753716308E+01  0.20000000000E-01 0.  1.
</event>
<event>
 5   0  0.3603037E+08  0.9118800E+02  0.7818608E-02  0.1180000E+00
       11   -1    0    0    0    0  0.00000000000E+00  0.00000000000E+00  0.39999999673E+01  0.40000000000E+01  0.51109989000E-03 0. -1.
     -623   -1    0    0    0    0  0.00000000000E+00  0.00000000000E+00  0.12525980253E-10  0.17130000000E+03  0.17130000000E+03 0. -1.
       11    1    1    2    0    0  0.99866415476E-03 -0.25876661880E-03  0.19213243614E-01  0.19247707423E-01  0.51109989000E-03 0. -1.
     -623    1    1    2    0    0  0.35074011879E-03  0.75846640613E-03  0.84935383360E-04  0.17130000000E+03  0.17130000000E+03 0. -1.
      622    1    1    2    0    0 -0.13494042735E-02 -0.49969978733E-03  0.39807017884E+01  0.39807522905E+01  0.20000000000E-01 0. -1.
</event>
<event>
 5   0  0.3603037E+08  0.9118800E+02  0.7818608E-02  0.1180000E+00
       11   -1    0    0    0    0  0.00000000000E+00  0.00000000000E+00  0.39999999673E+01  0.40000000000E+01  0.51109989000E-03 0. -1.
     -623   -1    0    0    0    0  0.00000000000E+00  0.00000000000E+00  0.12525980253E-10  0.17130000000E+03  0.17130000000E+03 0. -1.
       11    1    1    2    0    0 -0.49433068673E-03 -0.10731379155E-02  0.60415855296E-02  0.61772133233E-02  0.51109989000E-03 0. -1.
     -623    1    1    2    0    0  0.43919890556E-03 -0.29826116818E-03  0.18590956471E-03  0.17130000000E+03  0.17130000000E+03 0. -1.
      622    1    1    2    0    0  0.55131781173E-04  0.13713990837E-02  0.39937724723E+01  0.39938227858E+01  0.20000000000E-01 0. -1.
</event>
<event>
 5   0  0.3603037E+08  0.9118800E+02  0.7818608E-02  0.1180000E+00
       11   -1    0    0    0    0  0.00000000000E+00  0.00000000000E+00  0.39999999673E+01  0.40000000000E+01  0.51109989000E-03 0.  1.
     -623   -1    0    0    0    0  0.00000000000E+00  0.00000000000E+00  0.12525980253E-10  0.17130000000E+03  0.17130000000E+03 0. -1.
       11    1    1    2    0    0 -0.34591576086E-03  0.10214412227E-01  0.76609198386E+00  0.76616032450E+00  0.51109989000E-03 0.  1.
     -623    1    1    2    0    0  0.70353585590E-03  0.19451518756E-03  0.14692820521E-03  0.17130000000E+03  0.17130000000E+03 0. -1.
      622    1    1    2    0    0 -0.35762009504E-03 -0.10408927415E-01  0.32337610553E+01  0.32338396739E+01  0.20000000000E-01 0.  1.
</event>
<event>
 5   0  0.3603037E+08  0.9118800E+02  0.7818608E-02  0.1180000E+00
       11   -1    0    0    0    0  0.00000000000E+00  0.00000000000E+00  0.39999999673E+01  0.40000000000E+01  0.51109989000E-03 0.  1.
     -623   -1    0    0    0    0  0.00000000000E+00  0.00000000000E+00  0.12525980253E-10  0.17130000000E+03  0.17130000000E+03 0.  1.
       11    1    1    2    0    0  0.12545425208E-01 -0.50551256490E-02  0.51389679770E+00  0.51407501583E+00  0.51109989000E-03 0.  1.
     -623    1    1    2    0    0 -0.20242369393E-01  0.26785258974E-02  0.24608445533E-03  0.17130000122E+03  0.17130000000E+03 0.  1.
      622    1    1    2    0    0  0.76969441848E-02  0.23765997517E-02  0.34858570852E+01  0.34859237670E+01  0.20000000000E-01 0.  1.
</event>
<event>
 5   0  0.3603037E+08  0.9118800E+02  0.7818608E-02  0.1180000E+00
       11   -1    0    0    0    0  0.00000000000E+00  0.00000000000E+00  0.39999999673E+01  0.40000000000E+01  0.51109989000E-03 0. -1.
     -623   -1    0    0    0    0  0.00000000000E+00  0.00000000000E+00  0.12525980253E-10  0.17130000000E+03  0.17130000000E+03 0.  1.
       11    1    1    2    0    0  0.47449570247E-02  0.60426063825E-02  0.20196175270E+01  0.20196322052E+01  0.51109989000E-03 0. -1.
     -623    1    1    2    0    0 -0.68010385708E-03  0.87555235325E-03  0.13189956887E-03  0.17130000000E+03  0.17130000000E+03 0.  1.
      622    1    1    2    0    0 -0.40648531676E-02 -0.69181587357E-02  0.19802505408E+01  0.19803677911E+01  0.20000000000E-01 0.  1.
</event>
<event>
 5   0  0.3603037E+08  0.9118800E+02  0.7818608E-02  0.1180000E+00
       11   -1    0    0    0    0  0.00000000000E+00  0.00000000000E+00  0.39999999673E+01  0.40000000000E+01  0.51109989000E-03 0. -1.
     -623   -1    0    0    0    0  0.00000000000E+00  0.00000000000E+00  0.12525980253E-10  0.17130000000E+03  0.17130000000E+03 0. -1.
       11    1    1    2    0    0 -0.15644521327E-02 -0.71197478712E-03  0.44854015833E-01  0.44889847131E-01  0.51109989000E-03 0. -1.
     -623    1    1    2    0    0  0.71468814964E-04  0.49086985497E-03  0.86655183736E-04  0.17130000000E+03  0.17130000000E+03 0. -1.
      622    1    1    2    0    0  0.14929833177E-02  0.22110493215E-03  0.39550592963E+01  0.39551101521E+01  0.20000000000E-01 0. -1.
</event>
<event>
 5   0  0.3603037E+08  0.9118800E+02  0.7818608E-02  0.1180000E+00
       11   -1    0    0    0    0  0.00000000000E+00  0.00000000000E+00  0.39999999673E+01  0.40000000000E+01  0.51109989000E-03 0. -1.
     -623   -1    0    0    0    0  0.00000000000E+00  0.00000000000E+00  0.12525980253E-10  0.17130000000E+03  0.17130000000E+03 0.  1.
       11    1    1    2    0    0  0.95545305895E-03  0.13542401338E-02  0.13476917102E+00  0.13478033067E+00  0.51109989000E-03 0. -1.
     -623    1    1    2    0    0  0.75522308937E-04 -0.53953886340E-03  0.63095096044E-04  0.17130000000E+03  0.17130000000E+03 0.  1.
      622    1    1    2    0    0 -0.10309753679E-02 -0.81470127040E-03  0.38651677012E+01  0.38652196685E+01  0.20000000000E-01 0. -1.
</event>
<event>
 5   0  0.3603037E+08  0.9118800E+02  0.7818608E-02  0.1180000E+00
       11   -1    0    0    0    0  0.00000000000E+00  0.00000000000E+00  0.39999999673E+01  0.40000000000E+01  0.51109989000E-03 0. -1.
     -623   -1    0    0    0    0  0.00000000000E+00  0.00000000000E+00  0.12525980253E-10  0.17130000000E+03  0.17130000000E+03 0. -1.
       11    1    1    2    0    0  0.19301330387E-02  0.78687863337E-02  0.18132569104E+00  0.18150732951E+00  0.51109989000E-03 0. -1.
     -623    1    1    2    0    0  0.40742615868E-02 -0.12864369364E-01  0.24250324214E-03  0.17130000053E+03  0.17130000000E+03 0. -1.
      622    1    1    2    0    0 -0.60043946254E-02  0.49955830301E-02  0.38184317731E+01  0.38184921388E+01  0.20000000000E-01 0. -1.
</event>
<event>
 5   0  0.3603037E+08  0.9118800E+02  0.7818608E-02  0.1180000E+00
       11   -1    0    0    0    0  0.00000000000E+00  0.00000000000E+00  0.39999999673E+01  0.40000000000E+01  0.51109989000E-03 0.  1.
     -623   -1    0    0    0    0  0.00000000000E+00  0.00000000000E+00  0.12525980253E-10  0.17130000000E+03  0.17130000000E+03 0.  1.
       11    1    1    2    0    0  0.22837806195E-01  0.45769825277E-03  0.48958272860E+00  0.49011558254E+00  0.51109989000E-03 0.  1.
     -623    1    1    2    0    0  0.50394902758E-02 -0.36691285606E-02  0.70209922145E-03  0.17130000011E+03  0.17130000000E+03 0.  1.
      622    1    1    2    0    0 -0.27877296471E-01  0.32114303079E-02  0.35097151395E+01  0.35098843026E+01  0.20000000000E-01 0.  1.
</event>
<event>
 5   0  0.3603037E+08  0.9118800E+02  0.7818608E-02  0.1180000E+00
       11   -1    0    0    0    0  0.00000000000E+00  0.00000000000E+00  0.39999999673E+01  0.40000000000E+01  0.51109989000E-03 0.  1.
     -623   -1    0    0    0    0  0.00000000000E+00  0.00000000000E+00  0.12525980253E-10  0.17130000000E+03  0.17130000000E+03 0.  1.
       11    1    1    2    0    0 -0.17912845714E-03  0.21414142110E-02  0.21850657319E-01  0.21962016960E-01  0.51109989000E-03 0. -1.
     -623    1    1    2    0    0  0.12790022168E-03 -0.60106331560E-03  0.16190309395E-03  0.17130000000E+03  0.17130000000E+03 0.  1.
      622    1    1    2    0    0  0.51228235461E-04 -0.15403508954E-02  0.39779874069E+01  0.39780379819E+01  0.20000000000E-01 0.  1.
</event>
<event>
 5   0  0.3603037E+08  0.9118800E+02  0.7818608E-02  0.1180000E+00
       11   -1    0    0    0    0  0.00000000000E+00  0.00000000000E+00  0.39999999673E+01  0.40000000000E+01  0.51109989000E-03 0.  1.
     -623   -1    0    0    0    0  0.00000000000E+00  0.00000000000E+00  0.12525980253E-10  0.17130000000E+03  0.17130000000E+03 0. -1.
       11    1    1    2    0    0  0.13356328850E-02  0.35555018100E-02  0.15276544975E+00  0.15281351173E+00  0.51109989000E-03 0.  1.
     -623    1    1    2    0    0  0.72124696076E-03 -0.76532823408E-03  0.10158065212E-03  0.17130000000E+03  0.17130000000E+03 0. -1.
      622    1    1    2    0    0 -0.20568798458E-02 -0.27901735759E-02  0.38471329370E+01  0.38471864850E+01  0.20000000000E-01 0.  1.
</event>
<event>
 5   0  0.3603037E+08  0.9118800E+02  0.7818608E-02  0.1180000E+00
       11   -1    0    0    0    0  0.00000000000E+00  0.00000000000E+00  0.39999999673E+01  0.40000000000E+01  0.51109989000E-03 0. -1.
     -623   -1    0    0    0    0  0.00000000000E+00  0.00000000000E+00  0.12525980253E-10  0.17130000000E+03  0.17130000000E+03 0. -1.
       11    1    1    2    0    0  0.28017926946E-03 -0.15124156654E-02  0.70457917892E+00  0.70458104324E+00  0.51109989000E-03 0. -1.
     -623    1    1    2    0    0 -0.44346785288E-03 -0.41135477924E-03  0.63089203544E-04  0.17130000000E+03  0.17130000000E+03 0. -1.
      622    1    1    2    0    0  0.16328858342E-03  0.19237704447E-02  0.32953576992E+01  0.32954189557E+01  0.20000000000E-01 0. -1.
</event>
<event>
 5   0  0.3603037E+08  0.9118800E+02  0.7818608E-02  0.1180000E+00
       11   -1    0    0    0    0  0.00000000000E+00  0.00000000000E+00  0.39999999673E+01  0.40000000000E+01  0.51109989000E-03 0. -1.
     -623   -1    0    0    0    0  0.00000000000E+00  0.00000000000E+00  0.12525980253E-10  0.17130000000E+03  0.17130000000E+03 0. -1.
       11    1    1    2    0    0 -0.14876842172E-01  0.35482451923E-02  0.52321336238E+00  0.52343709676E+00  0.51109989000E-03 0. -1.
     -623    1    1    2    0    0  0.38795959407E-02  0.28420572802E-02  0.30456511944E-03  0.17130000007E+03  0.17130000000E+03 0. -1.
      622    1    1    2    0    0  0.10997246231E-01 -0.63903024725E-02  0.34764820399E+01  0.34765628355E+01  0.20000000000E-01 0. -1.
</event>
<event>
 5   0  0.3603037E+08  0.9118800E+02  0.7818608E-02  0.1180000E+00
       11   -1    0    0    0    0  0.00000000000E+00  0.00000000000E+00  0.39999999673E+01  0.40000000000E+01  0.51109989000E-03 0.  1.
     -623   -1    0    0    0    0  0.00000000000E+00  0.00000000000E+00  0.12525980253E-10  0.17130000000E+03  0.17130000000E+03 0.  1.
       11    1    1    2    0    0 -0.44396415858E-03 -0.14635526254E-02  0.15092903225E+00  0.15093764635E+00  0.51109989000E-03 0.  1.
     -623    1    1    2    0    0 -0.31867393547E-03 -0.10629276068E-03  0.60938555527E-04  0.17130000000E+03  0.17130000000E+03 0.  1.
      622    1    1    2    0    0  0.76263809405E-03  0.15698453861E-02  0.38490099966E+01  0.38490623533E+01  0.20000000000E-01 0.  1.
</event>
<event>
 5   0  0.3603037E+08  0.9118800E+02  0.7818608E-02  0.1180000E+00
       11   -1    0    0    0    0  0.00000000000E+00  0.00000000000E+00  0.39999999673E+01  0.40000000000E+01  0.51109989000E-03 0.  1.
     -623   -1    0    0    0    0  0.00000000000E+00  0.00000000000E+00  0.12525980253E-10  0.17130000000E+03  0.17130000000E+03 0. -1.
       11    1    1    2    0    0  0.18805437771E-02 -0.54909917606E-03  0.48207702112E+00  0.48208127268E+00  0.51109989000E-03 0.  1.
     -623    1    1    2    0    0 -0.76739527658E-03 -0.79679363381E-03  0.61508336166E-04  0.17130000000E+03  0.17130000000E+03 0. -1.
      622    1    1    2    0    0 -0.11131485005E-02  0.13458928099E-02  0.35178614379E+01  0.35179187237E+01  0.20000000000E-01 0.  1.
</event>
<event>
 5   0  0.3603037E+08  0.9118800E+02  0.7818608E-02  0.1180000E+00
       11   -1    0    0    0    0  0.00000000000E+00  0.00000000000E+00  0.39999999673E+01  0.40000000000E+01  0.51109989000E-03 0.  1.
     -623   -1    0    0    0    0  0.00000000000E+00  0.00000000000E+00  0.12525980253E-10  0.17130000000E+03  0.17130000000E+03 0.  1.
       11    1    1    2    0    0 -0.79803912973E-03 -0.48533114519E-02  0.14043268550E+01  0.14043355612E+01  0.51109989000E-03 0.  1.
     -623    1    1    2    0    0  0.58823997080E-02 -0.82338628339E-02  0.12399854133E-03  0.17130000030E+03  0.17130000000E+03 0.  1.
      622    1    1    2    0    0 -0.50843605783E-02  0.13087174286E-01  0.25955491138E+01  0.25956641399E+01  0.20000000000E-01 0.  0.
</event>
<event>
 5   0  0.3603037E+08  0.9118800E+02  0.7818608E-02  0.1180000E+00
       11   -1    0    0    0    0  0.00000000000E+00  0.00000000000E+00  0.39999999673E+01  0.40000000000E+01  0.51109989000E-03 0. -1.
     -623   -1    0    0    0    0  0.00000000000E+00  0.00000000000E+00  0.12525980253E-10  0.17130000000E+03  0.17130000000E+03 0. -1.
       11    1    1    2    0    0  0.20006421357E-02  0.21059342829E-03  0.41270329768E-01  0.41322490965E-01  0.51109989000E-03 0. -1.
     -623    1    1    2    0    0 -0.18466088816E-02  0.23667943340E-02  0.10351917910E-03  0.17130000003E+03  0.17130000000E+03 0. -1.
      622    1    1    2    0    0 -0.15403325410E-03 -0.25773877623E-02  0.39586261184E+01  0.39586774827E+01  0.20000000000E-01 0. -1.
</event>
<event>
 5   0  0.3603037E+08  0.9118800E+02  0.7818608E-02  0.1180000E+00
       11   -1    0    0    0    0  0.00000000000E+00  0.00000000000E+00  0.39999999673E+01  0.40000000000E+01  0.51109989000E-03 0. -1.
     -623   -1    0    0    0    0  0.00000000000E+00  0.00000000000E+00  0.12525980253E-10  0.17130000000E+03  0.17130000000E+03 0. -1.
       11    1    1    2    0    0  0.63660830195E-03 -0.73329014593E-03  0.49097275681E-02  0.50308678971E-02  0.51109989000E-03 0. -1.
     -623    1    1    2    0    0 -0.77742387726E-04 -0.47743634379E-03  0.17139429312E-03  0.17130000000E+03  0.17130000000E+03 0. -1.
      622    1    1    2    0    0 -0.55886591422E-03  0.12107264897E-02  0.39949188455E+01  0.39949691313E+01  0.20000000000E-01 0. -1.
</event>
<event>
 5   0  0.3603037E+08  0.9118800E+02  0.7818608E-02  0.1180000E+00
       11   -1    0    0    0    0  0.00000000000E+00  0.00000000000E+00  0.39999999673E+01  0.40000000000E+01  0.51109989000E-03 0. -1.
     -623   -1    0    0    0    0  0.00000000000E+00  0.00000000000E+00  0.12525980253E-10  0.17130000000E+03  0.17130000000E+03 0. -1.
       11    1    1    2    0    0 -0.31865660449E-02  0.18991220373E-02  0.52062400451E-01  0.52196892905E-01  0.51109989000E-03 0. -1.
     -623    1    1    2    0    0  0.16868336748E-03 -0.12520134787E-02  0.18633254223E-03  0.17130000000E+03  0.17130000000E+03 0. -1.
      622    1    1    2    0    0  0.30178826774E-02 -0.64710855860E-03  0.39477512344E+01  0.39478031023E+01  0.20000000000E-01 0. -1.
</event>
<event>
 5   0  0.3603037E+08  0.9118800E+02  0.7818608E-02  0.1180000E+00
       11   -1    0    0    0    0  0.00000000000E+00  0.00000000000E+00  0.39999999673E+01  0.40000000000E+01  0.51109989000E-03 0. -1.
     -623   -1    0    0    0    0  0.00000000000E+00  0.00000000000E+00  0.12525980253E-10  0.17130000000E+03  0.17130000000E+03 0. -1.
       11    1    1    2    0    0 -0.55798658722E-02 -0.15059073905E-02  0.65570017470E+00  0.65572584438E+00  0.51109989000E-03 0. -1.
     -623    1    1    2    0    0  0.70116822992E-02  0.57014849594E-02  0.88618048051E-04  0.17130000024E+03  0.17130000000E+03 0. -1.
      622    1    1    2    0    0 -0.14318164270E-02 -0.41955775689E-02  0.33442111746E+01  0.33442739172E+01  0.20000000000E-01 0. -1.
</event>
<event>
 5   0  0.3603037E+08  0.9118800E+02  0.7818608E-02  0.1180000E+00
       11   -1    0    0    0    0  0.00000000000E+00  0.00000000000E+00  0.39999999673E+01  0.40000000000E+01  0.51109989000E-03 0. -1.
     -623   -1    0    0    0    0  0.00000000000E+00  0.00000000000E+00  0.12525980253E-10  0.17130000000E+03  0.17130000000E+03 0.  1.
       11    1    1    2    0    0  0.10624152907E-01  0.52796940090E-02  0.19349963010E+01  0.19350327371E+01  0.51109989000E-03 0. -1.
     -623    1    1    2    0    0 -0.23356596330E-03 -0.81207594867E-04  0.16594708131E-03  0.17130000000E+03  0.17130000000E+03 0.  1.
      622    1    1    2    0    0 -0.10390586944E-01 -0.51984864141E-02  0.20648377193E+01  0.20649672626E+01  0.20000000000E-01 0.  0.
</event>
<event>
 5   0  0.3603037E+08  0.9118800E+02  0.7818608E-02  0.1180000E+00
       11   -1    0    0    0    0  0.00000000000E+00  0.00000000000E+00  0.39999999673E+01  0.40000000000E+01  0.51109989000E-03 0.  1.
     -623   -1    0    0    0    0  0.00000000000E+00  0.00000000000E+00  0.12525980253E-10  0.17130000000E+03  0.17130000000E+03 0.  1.
       11    1    1    2    0    0 -0.84152836967E-03 -0.39611369182E-03  0.75970045791E-02  0.76707741895E-02  0.51109989000E-03 0.  1.
     -623    1    1    2    0    0 -0.20907176411E-03  0.37188275408E-03  0.12397224002E-03  0.17130000000E+03  0.17130000000E+03 0.  1.
      622    1    1    2    0    0  0.10506001338E-02  0.24230937742E-04  0.39922789905E+01  0.39923292252E+01  0.20000000000E-01 0.  1.
</event>
<event>
 5   0  0.3603037E+08  0.9118800E+02  0.7818608E-02  0.1180000E+00
       11   -1    0    0    0    0  0.00000000000E+00  0.00000000000E+00  0.39999999673E+01  0.40000000000E+01  0.51109989000E-03 0. -1.
     -623   -1    0    0    0    0  0.00000000000E+00  0.00000000000E+00  0.12525980253E-10  0.17130000000E+03  0.17130000000E+03 0. -1.
       11    1    1    2    0    0 -0.14043915935E-02  0.11516459458E-01  0.12089377325E+00  0.12145026467E+00  0.51109989000E-03 0. -1.
     -623    1    1    2    0    0 -0.10097363543E-02 -0.11364327516E-01  0.60916011593E-03  0.17130000038E+03  0.17130000000E+03 0. -1.
      622    1    1    2    0    0  0.24141279478E-02 -0.15213194228E-03  0.38784970340E+01  0.38785493543E+01  0.20000000000E-01 0. -1.
</event>
<event>
 5   0  0.3603037E+08  0.9118800E+02  0.7818608E-02  0.1180000E+00
       11   -1    0    0    0    0  0.00000000000E+00  0.00000000000E+00  0.39999999673E+01  0.40000000000E+01  0.51109989000E-03 0.  1.
     -623   -1    0    0    0    0  0.00000000000E+00  0.00000000000E+00  0.12525980253E-10  0.17130000000E+03  0.17130000000E+03 0.  1.
       11    1    1    2    0    0  0.45712068037E-03 -0.30247867168E-02  0.44107095052E-01  0.44216007831E-01  0.51109989000E-03 0.  1.
     -623    1    1    2    0    0 -0.14948492863E-03  0.46485463688E-03  0.16028039663E-03  0.17130000000E+03  0.17130000000E+03 0.  1.
      622    1    1    2    0    0 -0.30763575174E-03  0.25599320799E-02  0.39557325919E+01  0.39557839914E+01  0.20000000000E-01 0.  1.
</event>
<event>
 5   0  0.3603037E+08  0.9118800E+02  0.7818608E-02  0.1180000E+00
       11   -1    0    0    0    0  0.00000000000E+00  0.00000000000E+00  0.39999999673E+01  0.40000000000E+01  0.51109989000E-03 0.  1.
     -623   -1    0    0    0    0  0.00000000000E+00  0.00000000000E+00  0.12525980253E-10  0.17130000000E+03  0.17130000000E+03 0. -1.
       11    1    1    2    0    0 -0.60442548971E-02 -0.14401266887E-01  0.81157837680E+00  0.81172880473E+00  0.51109989000E-03 0.  1.
     -623    1    1    2    0    0  0.45189949432E-02 -0.15154770825E-02  0.25328862644E-03  0.17130000007E+03  0.17130000000E+03 0. -1.
      622    1    1    2    0    0  0.15252599540E-02  0.15916743969E-01  0.31881683019E+01  0.31882711288E+01  0.20000000000E-01 0.  1.
</event>
<event>
 5   0  0.3603037E+08  0.9118800E+02  0.7818608E-02  0.1180000E+00
       11   -1    0    0    0    0  0.00000000000E+00  0.00000000000E+00  0.39999999673E+01  0.40000000000E+01  0.51109989000E-03 0.  1.
     -623   -1    0    0    0    0  0.00000000000E+00  0.00000000000E+00  0.12525980253E-10  0.17130000000E+03  0.17130000000E+03 0. -1.
       11    1    1    2    0    0  0.14755511674E-02  0.63030878171E-03  0.28494552886E-01  0.28544269224E-01  0.51109989000E-03 0.  1.
     -623    1    1    2    0    0 -0.25330712262E-02 -0.56249600090E-03  0.10020444603E-03  0.17130000002E+03  0.17130000000E+03 0. -1.
      622    1    1    2    0    0  0.10575200588E-02 -0.67812780813E-04  0.39714052100E+01  0.39714557111E+01  0.20000000000E-01 0.  1.
</event>
<event>
 5   0  0.3603037E+08  0.9118800E+02  0.7818608E-02  0.1180000E+00
       11   -1    0    0    0    0  0.00000000000E+00  0.00000000000E+00  0.39999999673E+01  0.40000000000E+01  0.51109989000E-03 0. -1.
     -623   -1    0    0    0    0  0.00000000000E+00  0.00000000000E+00  0.12525980253E-10  0.17130000000E+03  0.17130000000E+03 0.  1.
       11    1    1    2    0    0 -0.18633033953E-03 -0.97913371774E-03  0.12441049380E-01  0.12491371148E-01  0.51109989000E-03 0. -1.
     -623    1    1    2    0    0 -0.75025944937E-03 -0.43208349372E-04  0.10068880732E-03  0.17130000000E+03  0.17130000000E+03 0.  1.
      622    1    1    2    0    0  0.93658978890E-03  0.10223420671E-02  0.39874582292E+01  0.39875086272E+01  0.20000000000E-01 0. -1.
</event>
<event>
 5   0  0.3603037E+08  0.9118800E+02  0.7818608E-02  0.1180000E+00
       11   -1    0    0    0    0  0.00000000000E+00  0.00000000000E+00  0.39999999673E+01  0.40000000000E+01  0.51109989000E-03 0.  1.
     -623   -1    0    0    0    0  0.00000000000E+00  0.00000000000E+00  0.12525980253E-10  0.17130000000E+03  0.17130000000E+03 0. -1.
       11    1    1    2    0    0 -0.12251873156E-02  0.13635321644E-03  0.58299659272E-02  0.59807524583E-02  0.51109989000E-03 0.  1.
     -623    1    1    2    0    0  0.28702937579E-03 -0.32397206950E-03  0.20094433149E-03  0.17130000000E+03  0.17130000000E+03 0. -1.
      622    1    1    2    0    0  0.93815793978E-03  0.18761885305E-03  0.39939690571E+01  0.39940192469E+01  0.20000000000E-01 0.  1.
</event>
<event>
 5   0  0.3603037E+08  0.9118800E+02  0.7818608E-02  0.1180000E+00
       11   -1    0    0    0    0  0.00000000000E+00  0.00000000000E+00  0.39999999673E+01  0.40000000000E+01  0.51109989000E-03 0. -1.
     -623   -1    0    0    0    0  0.00000000000E+00  0.00000000000E+00  0.12525980253E-10  0.17130000000E+03  0.17130000000E+03 0. -1.
       11    1    1    2    0    0 -0.21382251514E-02 -0.68543096326E-03  0.37091437622E+00  0.37092152476E+00  0.51109989000E-03 0. -1.
     -623    1    1    2    0    0  0.13982843177E-03  0.54272716595E-04  0.62831919371E-04  0.17130000000E+03  0.17130000000E+03 0. -1.
      622    1    1    2    0    0  0.19983967196E-02  0.63115824666E-03  0.36290227592E+01  0.36290784752E+01  0.20000000000E-01 0. -1.
</event>
<event>
 5   0  0.3603037E+08  0.9118800E+02  0.7818608E-02  0.1180000E+00
       11   -1    0    0    0    0  0.00000000000E+00  0.00000000000E+00  0.39999999673E+01  0.40000000000E+01  0.51109989000E-03 0.  1.
     -623   -1    0    0    0    0  0.00000000000E+00  0.00000000000E+00  0.12525980253E-10  0.17130000000E+03  0.17130000000E+03 0.  1.
       11    1    1    2    0    0 -0.26442512297E-02  0.17164619506E-01  0.46892479166E+00  0.46924656385E+00  0.51109989000E-03 0.  1.
     -623    1    1    2    0    0 -0.11841558153E-01 -0.13669082616E-01  0.41078713984E-03  0.17130000096E+03  0.17130000000E+03 0.  1.
      622    1    1    2    0    0  0.14485809383E-01 -0.34955368905E-02  0.35306643886E+01  0.35307524810E+01  0.20000000000E-01 0.  1.
</event>
<event>
 5   0  0.3603037E+08  0.9118800E+02  0.7818608E-02  0.1180000E+00
       11   -1    0    0    0    0  0.00000000000E+00  0.00000000000E+00  0.39999999673E+01  0.40000000000E+01  0.51109989000E-03 0. -1.
     -623   -1    0    0    0    0  0.00000000000E+00  0.00000000000E+00  0.12525980253E-10  0.17130000000E+03  0.17130000000E+03 0. -1.
       11    1    1    2    0    0  0.12044450798E-02 -0.60771581711E-02  0.82800856267E-01  0.83033881997E-01  0.51109989000E-03 0. -1.
     -623    1    1    2    0    0 -0.35287445010E-02  0.42344239901E-02  0.28526535187E-03  0.17130000009E+03  0.17130000000E+03 0. -1.
      622    1    1    2    0    0  0.23242994213E-02  0.18427341810E-02  0.39169138457E+01  0.39169660291E+01  0.20000000000E-01 0. -1.
</event>
<event>
 5   0  0.3603037E+08  0.9118800E+02  0.7818608E-02  0.1180000E+00
       11   -1    0    0    0    0  0.00000000000E+00  0.00000000000E+00  0.39999999673E+01  0.40000000000E+01  0.51109989000E-03 0.  1.
     -623   -1    0    0    0    0  0.00000000000E+00  0.00000000000E+00  0.12525980253E-10  0.17130000000E+03  0.17130000000E+03 0.  1.
       11    1    1    2    0    0 -0.70360332873E-02 -0.57246753704E-02  0.27090638979E+00  0.27105868539E+00  0.51109989000E-03 0.  1.
     -623    1    1    2    0    0  0.12451397082E-03 -0.78635968441E-03  0.21798963147E-03  0.17130000000E+03  0.17130000000E+03 0.  1.
      622    1    1    2    0    0  0.69115193165E-02  0.65110350548E-02  0.37288755879E+01  0.37289413126E+01  0.20000000000E-01 0.  1.
</event>
<event>
 5   0  0.3603037E+08  0.9118800E+02  0.7818608E-02  0.1180000E+00
       11   -1    0    0    0    0  0.00000000000E+00  0.00000000000E+00  0.39999999673E+01  0.40000000000E+01  0.51109989000E-03 0.  1.
     -623   -1    0    0    0    0  0.00000000000E+00  0.00000000000E+00  0.12525980253E-10  0.17130000000E+03  0.17130000000E+03 0. -1.
       11    1    1    2    0    0  0.25956908643E-02  0.11313112810E-01  0.11095654999E+01  0.11096263262E+01  0.51109989000E-03 0.  1.
     -623    1    1    2    0    0  0.40812117625E-03 -0.59969045135E-03  0.15140791403E-03  0.17130000000E+03  0.17130000000E+03 0. -1.
      622    1    1    2    0    0 -0.30038120406E-02 -0.10713422359E-01  0.28902830596E+01  0.28903736722E+01  0.20000000000E-01 0.  1.
</event>
<event>
 5   0  0.3603037E+08  0.9118800E+02  0.7818608E-02  0.1180000E+00
       11   -1    0    0    0    0  0.00000000000E+00  0.00000000000E+00  0.39999999673E+01  0.40000000000E+01  0.51109989000E-03 0. -1.
     -623   -1    0    0    0    0  0.00000000000E+00  0.00000000000E+00  0.12525980253E-10  0.17130000000E+03  0.17130000000E+03 0.  1.
       11    1    1    2    0    0  0.12137059421E-01 -0.14503112304E-02  0.18069508762E+01  0.18069922916E+01  0.51109989000E-03 0. -1.
     -623    1    1    2    0    0 -0.84427656817E-02 -0.45413247276E-02  0.14414911571E-03  0.17130000027E+03  0.17130000000E+03 0.  1.
      622    1    1    2    0    0 -0.36942937391E-02  0.59916359580E-02  0.21929049420E+01  0.21930074401E+01  0.20000000000E-01 0. -1.
</event>
<event>
 5   0  0.3603037E+08  0.9118800E+02  0.7818608E-02  0.1180000E+00
       11   -1    0    0    0    0  0.00000000000E+00  0.00000000000E+00  0.39999999673E+01  0.40000000000E+01  0.51109989000E-03 0. -1.
     -623   -1    0    0    0    0  0.00000000000E+00  0.00000000000E+00  0.12525980253E-10  0.17130000000E+03  0.17130000000E+03 0. -1.
       11    1    1    2    0    0  0.26262785774E-02  0.18463780350E-02  0.17494551052E+00  0.17497571066E+00  0.51109989000E-03 0. -1.
     -623    1    1    2    0    0 -0.27690968924E-02 -0.23368998013E-02  0.82527573949E-04  0.17130000004E+03  0.17130000000E+03 0. -1.
      622    1    1    2    0    0  0.14281831497E-03  0.49052176622E-03  0.38249719293E+01  0.38250242510E+01  0.20000000000E-01 0. -1.
</event>
<event>
 5   0  0.3603037E+08  0.9118800E+02  0.7818608E-02  0.1180000E+00
       11   -1    0    0    0    0  0.00000000000E+00  0.00000000000E+00  0.39999999673E+01  0.40000000000E+01  0.51109989000E-03 0.  1.
     -623   -1    0    0    0    0  0.00000000000E+00  0.00000000000E+00  0.12525980253E-10  0.17130000000E+03  0.17130000000E+03 0. -1.
       11    1    1    2    0    0  0.53515214319E-03 -0.26725926623E-02  0.52463124081E-01  0.52536365966E-01  0.51109989000E-03 0.  1.
     -623    1    1    2    0    0 -0.41712779884E-02  0.29354484428E-03  0.12631770274E-03  0.17130000005E+03  0.17130000000E+03 0. -1.
      622    1    1    2    0    0  0.36361258452E-02  0.23790478180E-02  0.39474105256E+01  0.39474635829E+01  0.20000000000E-01 0.  1.
</event>
<event>
 5   0  0.3603037E+08  0.9118800E+02  0.7818608E-02  0.1180000E+00
       11   -1    0    0    0    0  0.00000000000E+00  0.00000000000E+00  0.39999999673E+01  0.40000000000E+01  0.51109989000E-03 0.  1.
     -623   -1    0    0    0    0  0.00000000000E+00  0.00000000000E+00  0.12525980253E-10  0.17130000000E+03  0.17130000000E+03 0. -1.
       11    1    1    2    0    0  0.27272599661E-02 -0.15136013729E-01  0.99344169115E+00  0.99356086467E+00  0.51109989000E-03 0.  1.
     -623    1    1    2    0    0  0.46591822954E-02  0.28186410920E-02  0.22005904327E-03  0.17130000009E+03  0.17130000000E+03 0. -1.
      622    1    1    2    0    0 -0.73864422615E-02  0.12317372637E-01  0.30063382172E+01  0.30064390486E+01  0.20000000000E-01 0.  1.
</event>
<event>
 5   0  0.3603037E+08  0.9118800E+02  0.7818608E-02  0.1180000E+00
       11   -1    0    0    0    0  0.00000000000E+00  0.00000000000E+00  0.39999999673E+01  0.40000000000E+01  0.51109989000E-03 0. -1.
     -623   -1    0    0    0    0  0.00000000000E+00  0.00000000000E+00  0.12525980253E-10  0.17130000000E+03  0.17130000000E+03 0.  1.
       11    1    1    2    0    0  0.80703434095E-03 -0.75109920548E-03  0.82221556415E-02  0.83114690977E-02  0.51109989000E-03 0. -1.
     -623    1    1    2    0    0  0.15403861600E-02  0.13279289888E-02  0.14012929032E-03  0.17130000001E+03  0.17130000000E+03 0.  1.
      622    1    1    2    0    0 -0.23474205010E-02 -0.57682978328E-03  0.39916376824E+01  0.39916885188E+01  0.20000000000E-01 0. -1.
</event>
<event>
 5   0  0.3603037E+08  0.9118800E+02  0.7818608E-02  0.1180000E+00
       11   -1    0    0    0    0  0.00000000000E+00  0.00000000000E+00  0.39999999673E+01  0.40000000000E+01  0.51109989000E-03 0.  1.
     -623   -1    0    0    0    0  0.00000000000E+00  0.00000000000E+00  0.12525980253E-10  0.17130000000E+03  0.17130000000E+03 0.  1.
       11    1    1    2    0    0  0.29988438138E-01 -0.16685246237E-01  0.18960467387E+01  0.18963573504E+01  0.51109989000E-03 0.  1.
     -623    1    1    2    0    0 -0.14569831868E-01  0.13198691236E-01  0.46618119785E-03  0.17130000113E+03  0.17130000000E+03 0.  1.
      622    1    1    2    0    0 -0.15418606270E-01  0.34865550010E-02  0.21034870474E+01  0.21036415208E+01  0.20000000000E-01 0.  1.
</event>
<event>
 5   0  0.3603037E+08  0.9118800E+02  0.7818608E-02  0.1180000E+00
       11   -1    0    0    0    0  0.00000000000E+00  0.00000000000E+00  0.39999999673E+01  0.40000000000E+01  0.51109989000E-03 0. -1.
     -623   -1    0    0    0    0  0.00000000000E+00  0.00000000000E+00  0.12525980253E-10  0.17130000000E+03  0.17130000000E+03 0. -1.
       11    1    1    2    0    0  0.43260769902E-05  0.23782104237E-02  0.34014093827E-01  0.34100963380E-01  0.51109989000E-03 0. -1.
     -623    1    1    2    0    0 -0.14033838633E-02 -0.10659122892E-02  0.13774017841E-03  0.17130000001E+03  0.17130000000E+03 0. -1.
      622    1    1    2    0    0  0.13990577863E-02 -0.13122981345E-02  0.39658481334E+01  0.39658990275E+01  0.20000000000E-01 0. -1.
</event>
<event>
 5   0  0.3603037E+08  0.9118800E+02  0.7818608E-02  0.1180000E+00
       11   -1    0    0    0    0  0.00000000000E+00  0.00000000000E+00  0.39999999673E+01  0.40000000000E+01  0.51109989000E-03 0.  1.
     -623   -1    0    0    0    0  0.00000000000E+00  0.00000000000E+00  0.12525980253E-10  0.17130000000E+03  0.17130000000E+03 0. -1.
       11    1    1    2    0    0  0.75226293001E-02 -0.61066248286E-02  0.18622308898E+01  0.18622561663E+01  0.51109989000E-03 0.  1.
     -623    1    1    2    0    0  0.10771305421E-02  0.68486633984E-03  0.14298150116E-03  0.17130000000E+03  0.17130000000E+03 0. -1.
      622    1    1    2    0    0 -0.85997598421E-02  0.54217584888E-02  0.21376260961E+01  0.21377438289E+01  0.20000000000E-01 0.  1.
</event>
<event>
 5   0  0.3603037E+08  0.9118800E+02  0.7818608E-02  0.1180000E+00
       11   -1    0    0    0    0  0.00000000000E+00  0.00000000000E+00  0.39999999673E+01  0.40000000000E+01  0.51109989000E-03 0. -1.
     -623   -1    0    0    0    0  0.00000000000E+00  0.00000000000E+00  0.12525980253E-10  0.17130000000E+03  0.17130000000E+03 0.  1.
       11    1    1    2    0    0  0.21273486538E-02  0.76170317458E-03  0.10218183512E+00  0.10220809388E+00  0.51109989000E-03 0. -1.
     -623    1    1    2    0    0 -0.15962917881E-02 -0.44010602213E-03  0.77595022857E-04  0.17130000001E+03  0.17130000000E+03 0.  1.
      622    1    1    2    0    0 -0.53105686565E-03 -0.32159715246E-03  0.38977405372E+01  0.38977918981E+01  0.20000000000E-01 0. -1.
</event>
<event>
 5   0  0.3603037E+08  0.9118800E+02  0.7818608E-02  0.1180000E+00
       11   -1    0    0    0    0  0.00000000000E+00  0.00000000000E+00  0.39999999673E+01  0.40000000000E+01  0.51109989000E-03 0. -1.
     -623   -1    0    0    0    0  0.00000000000E+00  0.00000000000E+00  0.12525980253E-10  0.17130000000E+03  0.17130000000E+03 0.  1.
       11    1    1    2    0    0  0.39488425410E-02 -0.23292916206E-02  0.43121268162E+00  0.43123735572E+00  0.51109989000E-03 0. -1.
     -623    1    1    2    0    0 -0.12762888907E-03  0.14633095651E-04  0.83480237152E-04  0.17130000000E+03  0.17130000000E+03 0.  1.
      622    1    1    2    0    0 -0.38212136519E-02  0.23146585249E-02  0.35687038055E+01  0.35687626442E+01  0.20000000000E-01 0.  0.
</event>
<event>
 5   0  0.3603037E+08  0.9118800E+02  0.7818608E-02  0.1180000E+00
       11   -1    0    0    0    0  0.00000000000E+00  0.00000000000E+00  0.39999999673E+01  0.40000000000E+01  0.51109989000E-03 0. -1.
     -623   -1    0    0    0    0  0.00000000000E+00  0.00000000000E+00  0.12525980253E-10  0.17130000000E+03  0.17130000000E+03 0. -1.
       11    1    1    2    0    0 -0.36122577665E-03  0.21580901367E-02  0.50038328425E-01  0.50088754932E-01  0.51109989000E-03 0. -1.
     -623    1    1    2    0    0 -0.15439699737E-02 -0.20299183428E-02  0.10150881706E-03  0.17130000002E+03  0.17130000000E+03 0. -1.
      622    1    1    2    0    0  0.19051957503E-02 -0.12817179390E-03  0.39498601301E+01  0.39499112261E+01  0.20000000000E-01 0. -1.
</event>
<event>
 5   0  0.3603037E+08  0.9118800E+02  0.7818608E-02  0.1180000E+00
       11   -1    0    0    0    0  0.00000000000E+00  0.00000000000E+00  0.39999999673E+01  0.40000000000E+01  0.51109989000E-03 0. -1.
     -623   -1    0    0    0    0  0.00000000000E+00  0.00000000000E+00  0.12525980253E-10  0.17130000000E+03  0.17130000000E+03 0.  1.
       11    1    1    2    0    0  0.13447658672E-01 -0.33682993479E-02  0.26760082307E+01  0.26760441881E+01  0.51109989000E-03 0. -1.
     -623    1    1    2    0    0  0.74419892603E-02 -0.10097517068E-01  0.42078326801E-03  0.17130000046E+03  0.17130000000E+03 0.  1.
      622    1    1    2    0    0 -0.20889647932E-01  0.13465816416E-01  0.13235709534E+01  0.13239553521E+01  0.20000000000E-01 0.  1.
</event>
<event>
 5   0  0.3603037E+08  0.9118800E+02  0.7818608E-02  0.1180000E+00
       11   -1    0    0    0    0  0.00000000000E+00  0.00000000000E+00  0.39999999673E+01  0.40000000000E+01  0.51109989000E-03 0. -1.
     -623   -1    0    0    0    0  0.00000000000E+00  0.00000000000E+00  0.12525980253E-10  0.17130000000E+03  0.17130000000E+03 0. -1.
       11    1    1    2    0    0 -0.69907902727E-02  0.15947298958E-02  0.45602848777E+00  0.45608514248E+00  0.51109989000E-03 0. -1.
     -623    1    1    2    0    0 -0.15738634034E-03 -0.35488448172E-03  0.12048380962E-03  0.17130000000E+03  0.17130000000E+03 0. -1.
      622    1    1    2    0    0  0.71481766130E-02 -0.12398454141E-02  0.35438509958E+01  0.35439148570E+01  0.20000000000E-01 0. -1.
</event>
<event>
 5   0  0.3603037E+08  0.9118800E+02  0.7818608E-02  0.1180000E+00
       11   -1    0    0    0    0  0.00000000000E+00  0.00000000000E+00  0.39999999673E+01  0.40000000000E+01  0.51109989000E-03 0. -1.
     -623   -1    0    0    0    0  0.00000000000E+00  0.00000000000E+00  0.12525980253E-10  0.17130000000E+03  0.17130000000E+03 0. -1.
       11    1    1    2    0    0  0.10994554494E-01 -0.65698598115E-02  0.23110517861E+01  0.23110873334E+01  0.51109989000E-03 0. -1.
     -623    1    1    2    0    0 -0.11229167541E-01  0.10421425227E-01  0.15903172333E-03  0.17130000069E+03  0.17130000000E+03 0. -1.
      622    1    1    2    0    0  0.23461304703E-03 -0.38515654157E-02  0.16887891495E+01  0.16889119815E+01  0.20000000000E-01 0.  1.
</event>
<event>
 5   0  0.3603037E+08  0.9118800E+02  0.7818608E-02  0.1180000E+00
       11   -1    0    0    0    0  0.00000000000E+00  0.00000000000E+00  0.39999999673E+01  0.40000000000E+01  0.51109989000E-03 0. -1.
     -623   -1    0    0    0    0  0.00000000000E+00  0.00000000000E+00  0.12525980253E-10  0.17130000000E+03  0.17130000000E+03 0.  1.
       11    1    1    2    0    0  0.18375770125E-02  0.54542954482E-02  0.45562324781E+00  0.45565988543E+00  0.51109989000E-03 0. -1.
     -623    1    1    2    0    0 -0.17522374540E-03  0.56542137136E-04  0.97707667340E-04  0.17130000000E+03  0.17130000000E+03 0.  1.
      622    1    1    2    0    0 -0.16623532671E-02 -0.55108375853E-02  0.35442790119E+01  0.35443401144E+01  0.20000000000E-01 0. -1.
</event>
<event>
 5   0  0.3603037E+08  0.9118800E+02  0.7818608E-02  0.1180000E+00
       11   -1    0    0    0    0  0.00000000000E+00  0.00000000000E+00  0.39999999673E+01  0.40000000000E+01  0.51109989000E-03 0. -1.
     -623   -1    0    0    0    0  0.00000000000E+00  0.00000000000E+00  0.12525980253E-10  0.17130000000E+03  0.17130000000E+03 0. -1.
       11    1    1    2    0    0 -0.13407777279E-02  0.33596829365E-02  0.18030779200E+00  0.18034479819E+00  0.51109989000E-03 0. -1.
     -623    1    1    2    0    0 -0.46797819033E-04  0.11797835042E-03  0.91169927764E-04  0.17130000000E+03  0.17130000000E+03 0. -1.
      622    1    1    2    0    0  0.13875755469E-02 -0.34776612869E-02  0.38196010054E+01  0.38196552017E+01  0.20000000000E-01 0.  0.
</event>
<event>
 5   0  0.3603037E+08  0.9118800E+02  0.7818608E-02  0.1180000E+00
       11   -1    0    0    0    0  0.00000000000E+00  0.00000000000E+00  0.39999999673E+01  0.40000000000E+01  0.51109989000E-03 0.  1.
     -623   -1    0    0    0    0  0.00000000000E+00  0.00000000000E+00  0.12525980253E-10  0.17130000000E+03  0.17130000000E+03 0.  1.
       11    1    1    2    0    0  0.34478315090E-03  0.44903924915E-02  0.26230057415E+00  0.26233973188E+00  0.51109989000E-03 0.  1.
     -623    1    1    2    0    0  0.26512241364E-03 -0.62770515460E-04  0.95307396302E-04  0.17130000000E+03  0.17130000000E+03 0.  1.
      622    1    1    2    0    0 -0.60990556454E-03 -0.44276219761E-02  0.37376040858E+01  0.37376602679E+01  0.20000000000E-01 0.  1.
</event>
<event>
 5   0  0.3603037E+08  0.9118800E+02  0.7818608E-02  0.1180000E+00
       11   -1    0    0    0    0  0.00000000000E+00  0.00000000000E+00  0.39999999673E+01  0.40000000000E+01  0.51109989000E-03 0. -1.
     -623   -1    0    0    0    0  0.00000000000E+00  0.00000000000E+00  0.12525980253E-10  0.17130000000E+03  0.17130000000E+03 0.  1.
       11    1    1    2    0    0 -0.54388798304E-03  0.85693196820E-03  0.61052585301E-01  0.61063160243E-01  0.51109989000E-03 0. -1.
     -623    1    1    2    0    0  0.11496993919E-02  0.38301491857E-03  0.61563801808E-04  0.17130000000E+03  0.17130000000E+03 0.  1.
      622    1    1    2    0    0 -0.60581140883E-03 -0.12399468868E-02  0.39388858183E+01  0.39389368355E+01  0.20000000000E-01 0. -1.
</event>
<event>
 5   0  0.3603037E+08  0.9118800E+02  0.7818608E-02  0.1180000E+00
       11   -1    0    0    0    0  0.00000000000E+00  0.00000000000E+00  0.39999999673E+01  0.40000000000E+01  0.51109989000E-03 0.  1.
     -623   -1    0    0    0    0  0.00000000000E+00  0.00000000000E+00  0.12525980253E-10  0.17130000000E+03  0.17130000000E+03 0. -1.
       11    1    1    2    0    0 -0.50592432284E-02 -0.41573461923E-02  0.43473763557E+00  0.43478724967E+00  0.51109989000E-03 0.  1.
     -623    1    1    2    0    0 -0.85684124591E-04  0.18539764010E-03  0.11160462907E-03  0.17130000000E+03  0.17130000000E+03 0. -1.
      622    1    1    2    0    0  0.51449273529E-02  0.39719485522E-02  0.35651507272E+01  0.35652127502E+01  0.20000000000E-01 0.  1.
</event>
<event>
 5   0  0.3603037E+08  0.9118800E+02  0.7818608E-02  0.1180000E+00
       11   -1    0    0    0    0  0.00000000000E+00  0.00000000000E+00  0.39999999673E+01  0.40000000000E+01  0.51109989000E-03 0.  1.
     -623   -1    0    0    0    0  0.00000000000E+00  0.00000000000E+00  0.12525980253E-10  0.17130000000E+03  0.17130000000E+03 0. -1.
       11    1    1    2    0    0 -0.42026352566E-02 -0.10790470568E-02  0.92651768632E-01  0.92754719220E-01  0.51109989000E-03 0.  1.
     -623    1    1    2    0    0  0.16167166137E-03 -0.41591630787E-03  0.15648155121E-03  0.17130000000E+03  0.17130000000E+03 0. -1.
      622    1    1    2    0    0  0.40409635952E-02  0.14949633647E-02  0.39071917172E+01  0.39072452801E+01  0.20000000000E-01 0.  1.
</event>
<event>
 5   0  0.3603037E+08  0.9118800E+02  0.7818608E-02  0.1180000E+00
       11   -1    0    0    0    0  0.00000000000E+00  0.00000000000E+00  0.39999999673E+01  0.40000000000E+01  0.51109989000E-03 0. -1.
     -623   -1    0    0    0    0  0.00000000000E+00  0.00000000000E+00  0.12525980253E-10  0.17130000000E+03  0.17130000000E+03 0.  1.
       11    1    1    2    0    0 -0.49518197059E-03  0.33747181040E-02  0.13230973406E+00  0.13235467833E+00  0.51109989000E-03 0. -1.
     -623    1    1    2    0    0 -0.48612876678E-03 -0.22231149425E-03  0.98033116657E-04  0.17130000000E+03  0.17130000000E+03 0.  1.
      622    1    1    2    0    0  0.98131073738E-03 -0.31524066098E-02  0.38675922002E+01  0.38676453208E+01  0.20000000000E-01 0. -1.
</event>
<event>
 5   0  0.3603037E+08  0.9118800E+02  0.7818608E-02  0.1180000E+00
       11   -1    0    0    0    0  0.00000000000E+00  0.00000000000E+00  0.39999999673E+01  0.40000000000E+01  0.51109989000E-03 0.  1.
     -623   -1    0    0    0    0  0.00000000000E+00  0.00000000000E+00  0.12525980253E-10  0.17130000000E+03  0.17130000000E+03 0. -1.
       11    1    1    2    0    0 -0.11928403908E-01  0.13826071291E-01  0.15437073883E+01  0.15438154711E+01  0.51109989000E-03 0.  1.
     -623    1    1    2    0    0  0.71998210832E-03 -0.33886122595E-02  0.23726665764E-03  0.17130000004E+03  0.17130000000E+03 0. -1.
      622    1    1    2    0    0  0.11208421799E-01 -0.10437459032E-01  0.24560553124E+01  0.24561844937E+01  0.20000000000E-01 0.  0.
</event>
<event>
 5   0  0.3603037E+08  0.9118800E+02  0.7818608E-02  0.1180000E+00
       11   -1    0    0    0    0  0.00000000000E+00  0.00000000000E+00  0.39999999673E+01  0.40000000000E+01  0.51109989000E-03 0.  1.
     -623   -1    0    0    0    0  0.00000000000E+00  0.00000000000E+00  0.12525980253E-10  0.17130000000E+03  0.17130000000E+03 0.  1.
       11    1    1    2    0    0 -0.95803231237E-03 -0.65546569294E-03  0.91548361903E-01  0.91557147457E-01  0.51109989000E-03 0.  1.
     -623    1    1    2    0    0 -0.15746933002E-04 -0.17039440335E-03  0.60133182094E-04  0.17130000000E+03  0.17130000000E+03 0.  1.
      622    1    1    2    0    0  0.97377924538E-03  0.82586009629E-03  0.39083914723E+01  0.39084428524E+01  0.20000000000E-01 0.  1.
</event>
<event>
 5   0  0.3603037E+08  0.9118800E+02  0.7818608E-02  0.1180000E+00
       11   -1    0    0    0    0  0.00000000000E+00  0.00000000000E+00  0.39999999673E+01  0.40000000000E+01  0.51109989000E-03 0. -1.
     -623   -1    0    0    0    0  0.00000000000E+00  0.00000000000E+00  0.12525980253E-10  0.17130000000E+03  0.17130000000E+03 0. -1.
       11    1    1    2    0    0 -0.15499285854E-02 -0.87011798288E-03  0.14988008972E-01  0.15101689259E-01  0.51109989000E-03 0. -1.
     -623    1    1    2    0    0  0.87683854333E-03  0.23153222611E-02  0.16417433534E-03  0.17130000002E+03  0.17130000000E+03 0. -1.
      622    1    1    2    0    0  0.67309004205E-03 -0.14452042782E-02  0.39848477841E+01  0.39848982928E+01  0.20000000000E-01 0. -1.
</event>
<event>
 5   0  0.3603037E+08  0.9118800E+02  0.7818608E-02  0.1180000E+00
       11   -1    0    0    0    0  0.00000000000E+00  0.00000000000E+00  0.39999999673E+01  0.40000000000E+01  0.51109989000E-03 0.  1.
     -623   -1    0    0    0    0  0.00000000000E+00  0.00000000000E+00  0.12525980253E-10  0.17130000000E+03  0.17130000000E+03 0. -1.
       11    1    1    2    0    0 -0.29478005752E-03 -0.15582029635E-03  0.70941669870E-01  0.70944294480E-01  0.51109989000E-03 0.  1.
     -623    1    1    2    0    0 -0.46967754548E-03  0.12743300542E-02  0.53734087049E-04  0.17130000001E+03  0.17130000000E+03 0. -1.
      622    1    1    2    0    0  0.76445760301E-03 -0.11185097579E-02  0.39290045634E+01  0.39290557001E+01  0.20000000000E-01 0.  1.
</event>
<event>
 5   0  0.3603037E+08  0.9118800E+02  0.7818608E-02  0.1180000E+00
       11   -1    0    0    0    0  0.00000000000E+00  0.00000000000E+00  0.39999999673E+01  0.40000000000E+01  0.51109989000E-03 0.  1.
     -623   -1    0    0    0    0  0.00000000000E+00  0.00000000000E+00  0.12525980253E-10  0.17130000000E+03  0.17130000000E+03 0. -1.
       11    1    1    2    0    0  0.43306240243E-02 -0.18014260380E-01  0.21550356150E+01  0.21551153173E+01  0.51109989000E-03 0.  1.
     -623    1    1    2    0    0  0.12660396231E-01  0.55820244062E-02  0.30878174586E-03  0.17130000056E+03  0.17130000000E+03 0. -1.
      622    1    1    2    0    0 -0.16991020256E-01  0.12432235974E-01  0.18446555706E+01  0.18448841236E+01  0.20000000000E-01 0. -1.
</event>
<event>
 5   0  0.3603037E+08  0.9118800E+02  0.7818608E-02  0.1180000E+00
       11   -1    0    0    0    0  0.00000000000E+00  0.00000000000E+00  0.39999999673E+01  0.40000000000E+01  0.51109989000E-03 0.  1.
     -623   -1    0    0    0    0  0.00000000000E+00  0.00000000000E+00  0.12525980253E-10  0.17130000000E+03  0.17130000000E+03 0.  1.
       11    1    1    2    0    0  0.65618373801E-03 -0.15130717644E-02  0.87137221658E-01  0.87154326241E-01  0.51109989000E-03 0.  1.
     -623    1    1    2    0    0 -0.49767144021E-04 -0.42256240958E-04  0.68542110068E-04  0.17130000000E+03  0.17130000000E+03 0.  1.
      622    1    1    2    0    0 -0.60641659399E-03  0.15553280054E-02  0.39127942036E+01  0.39128456737E+01  0.20000000000E-01 0.  1.
</event>
<event>
 5   0  0.3603037E+08  0.9118800E+02  0.7818608E-02  0.1180000E+00
       11   -1    0    0    0    0  0.00000000000E+00  0.00000000000E+00  0.39999999673E+01  0.40000000000E+01  0.51109989000E-03 0.  1.
     -623   -1    0    0    0    0  0.00000000000E+00  0.00000000000E+00  0.12525980253E-10  0.17130000000E+03  0.17130000000E+03 0. -1.
       11    1    1    2    0    0 -0.40957496109E-02  0.27659724325E-02  0.63445840367E-01  0.63640094662E-01  0.51109989000E-03 0.  1.
     -623    1    1    2    0    0  0.12288082847E-02 -0.10631994524E-02  0.24645056626E-03  0.17130000001E+03  0.17130000000E+03 0. -1.
      622    1    1    2    0    0  0.28669413262E-02 -0.17027729801E-02  0.39363076764E+01  0.39363598975E+01  0.20000000000E-01 0.  0.
</event>
<event>
 5   0  0.3603037E+08  0.9118800E+02  0.7818608E-02  0.1180000E+00
       11   -1    0    0    0    0  0.00000000000E+00  0.00000000000E+00  0.39999999673E+01  0.40000000000E+01  0.51109989000E-03 0.  1.
     -623   -1    0    0    0    0  0.00000000000E+00  0.00000000000E+00  0.12525980253E-10  0.17130000000E+03  0.17130000000E+03 0.  1.
       11    1    1    2    0    0  0.20385711488E-02  0.29581100379E-02  0.25684152209E+00  0.25686715415E+00  0.51109989000E-03 0.  1.
     -623    1    1    2    0    0 -0.64617804313E-02 -0.28026594026E-02  0.81792488810E-04  0.17130000014E+03  0.17130000000E+03 0.  1.
      622    1    1    2    0    0  0.44232092825E-02 -0.15545063533E-03  0.37430766528E+01  0.37431327010E+01  0.20000000000E-01 0.  1.
</event>
<event>
 5   0  0.3603037E+08  0.9118800E+02  0.7818608E-02  0.1180000E+00
       11   -1    0    0    0    0  0.00000000000E+00  0.00000000000E+00  0.39999999673E+01  0.40000000000E+01  0.51109989000E-03 0. -1.
     -623   -1    0    0    0    0  0.00000000000E+00  0.00000000000E+00  0.12525980253E-10  0.17130000000E+03  0.17130000000E+03 0. -1.
       11    1    1    2    0    0 -0.44478884307E-02  0.45326293726E-02  0.77973068275E+00  0.77975671032E+00  0.51109989000E-03 0. -1.
     -623    1    1    2    0    0  0.33672407457E-02 -0.61463049781E-03  0.90701699030E-04  0.17130000003E+03  0.17130000000E+03 0. -1.
      622    1    1    2    0    0  0.10806476851E-02 -0.39179988748E-02  0.32201785829E+01  0.32202432555E+01  0.20000000000E-01 0. -1.
</event>
<event>
 5   0  0.3603037E+08  0.9118800E+02  0.7818608E-02  0.1180000E+00
       11   -1    0    0    0    0  0.00000000000E+00  0.00000000000E+00  0.39999999673E+01  0.40000000000E+01  0.51109989000E-03 0.  1.
     -623   -1    0    0    0    0  0.00000000000E+00  0.00000000000E+00  0.12525980253E-10  0.17130000000E+03  0.17130000000E+03 0.  1.
       11    1    1    2    0    0 -0.70256569910E-02 -0.15832152096E-01  0.16446072760E+01  0.16446985652E+01  0.51109989000E-03 0.  1.
     -623    1    1    2    0    0 -0.47236333295E-03 -0.84204796085E-03  0.24713623404E-03  0.17130000000E+03  0.17130000000E+03 0.  1.
      622    1    1    2    0    0  0.74980203239E-02  0.16674200057E-01  0.23551455551E+01  0.23553014319E+01  0.20000000000E-01 0.  0.
</event>
<event>
 5   0  0.3603037E+08  0.9118800E+02  0.7818608E-02  0.1180000E+00
       11   -1    0    0    0    0  0.00000000000E+00  0.00000000000E+00  0.39999999673E+01  0.40000000000E+01  0.51109989000E-03 0.  1.
     -623   -1    0    0    0    0  0.00000000000E+00  0.00000000000E+00  0.12525980253E-10  0.17130000000E+03  0.17130000000E+03 0.  1.
       11    1    1    2    0    0 -0.53424279883E-02  0.80601683792E-03  0.32292669419E+00  0.32297229330E+00  0.51109989000E-03 0.  1.
     -623    1    1    2    0    0  0.14316456611E-02 -0.98620921131E-03  0.10205163192E-03  0.17130000001E+03  0.17130000000E+03 0.  1.
      622    1    1    2    0    0  0.39107823272E-02  0.18019237339E-03  0.36769712215E+01  0.36770276978E+01  0.20000000000E-01 0.  0.
</event>
<event>
 5   0  0.3603037E+08  0.9118800E+02  0.7818608E-02  0.1180000E+00
       11   -1    0    0    0    0  0.00000000000E+00  0.00000000000E+00  0.39999999673E+01  0.40000000000E+01  0.51109989000E-03 0.  1.
     -623   -1    0    0    0    0  0.00000000000E+00  0.00000000000E+00  0.12525980253E-10  0.17130000000E+03  0.17130000000E+03 0. -1.
       11    1    1    2    0    0 -0.99125535904E-03 -0.31076419047E-02  0.17283290699E+00  0.17286444107E+00  0.51109989000E-03 0.  1.
     -623    1    1    2    0    0  0.86134153978E-03 -0.34396764310E-03  0.85321423685E-04  0.17130000000E+03  0.17130000000E+03 0. -1.
      622    1    1    2    0    0  0.12991381926E-03  0.34516095478E-02  0.38270817389E+01  0.38271355564E+01  0.20000000000E-01 0.  1.
</event>
<event>
 5   0  0.3603037E+08  0.9118800E+02  0.7818608E-02  0.1180000E+00
       11   -1    0    0    0    0  0.00000000000E+00  0.00000000000E+00  0.39999999673E+01  0.40000000000E+01  0.51109989000E-03 0. -1.
     -623   -1    0    0    0    0  0.00000000000E+00  0.00000000000E+00  0.12525980253E-10  0.17130000000E+03  0.17130000000E+03 0. -1.
       11    1    1    2    0    0 -0.14425745319E-02  0.20699854806E-01  0.10736961241E+01  0.10738967330E+01  0.51109989000E-03 0. -1.
     -623    1    1    2    0    0  0.80497325906E-02 -0.27899021419E-02  0.33141233484E-03  0.17130000021E+03  0.17130000000E+03 0. -1.
      622    1    1    2    0    0 -0.66071580587E-02 -0.17909952664E-01  0.29259724309E+01  0.29261030548E+01  0.20000000000E-01 0. -1.
</event>
<event>
 5   0  0.3603037E+08  0.9118800E+02  0.7818608E-02  0.1180000E+00
       11   -1    0    0    0    0  0.00000000000E+00  0.00000000000E+00  0.39999999673E+01  0.40000000000E+01  0.51109989000E-03 0. -1.
     -623   -1    0    0    0    0  0.00000000000E+00  0.00000000000E+00  0.12525980253E-10  0.17130000000E+03  0.17130000000E+03 0. -1.
       11    1    1    2    0    0  0.48386808816E-03 -0.13225237136E-02  0.12084188034E+01  0.12084197320E+01  0.51109989000E-03 0. -1.
     -623    1    1    2    0    0  0.73627955012E-04  0.15759167941E-03  0.72839790163E-04  0.17130000000E+03  0.17130000000E+03 0. -1.
      622    1    1    2    0    0 -0.55749604318E-03  0.11649320342E-02  0.27915083242E+01  0.27915802679E+01  0.20000000000E-01 0. -1.
</event>
<event>
 5   0  0.3603037E+08  0.9118800E+02  0.7818608E-02  0.1180000E+00
       11   -1    0    0    0    0  0.00000000000E+00  0.00000000000E+00  0.39999999673E+01  0.40000000000E+01  0.51109989000E-03 0. -1.
     -623   -1    0    0    0    0  0.00000000000E+00  0.00000000000E+00  0.12525980253E-10  0.17130000000E+03  0.17130000000E+03 0.  1.
       11    1    1    2    0    0 -0.28325507284E-02  0.11973613368E-02  0.51296291239E-01  0.51390930456E-01  0.51109989000E-03 0. -1.
     -623    1    1    2    0    0 -0.11312895858E-03  0.20273210112E-03  0.14660485312E-03  0.17130000000E+03  0.17130000000E+03 0.  1.
      622    1    1    2    0    0  0.29456796870E-02 -0.14000934379E-02  0.39485570713E+01  0.39486090693E+01  0.20000000000E-01 0. -1.
</event>
<event>
 5   0  0.3603037E+08  0.9118800E+02  0.7818608E-02  0.1180000E+00
       11   -1    0    0    0    0  0.00000000000E+00  0.00000000000E+00  0.39999999673E+01  0.40000000000E+01  0.51109989000E-03 0.  1.
     -623   -1    0    0    0    0  0.00000000000E+00  0.00000000000E+00  0.12525980253E-10  0.17130000000E+03  0.17130000000E+03 0. -1.
       11    1    1    2    0    0  0.53485025022E-03  0.15441537172E-02  0.13677127392E+00  0.13678199102E+00  0.51109989000E-03 0.  1.
     -623    1    1    2    0    0 -0.11583448424E-02  0.56696310718E-03  0.63087126776E-04  0.17130000000E+03  0.17130000000E+03 0. -1.
      622    1    1    2    0    0  0.62349459220E-03 -0.21111168243E-02  0.38631656063E+01  0.38632180041E+01  0.20000000000E-01 0.  1.
</event>
<event>
 5   0  0.3603037E+08  0.9118800E+02  0.7818608E-02  0.1180000E+00
       11   -1    0    0    0    0  0.00000000000E+00  0.00000000000E+00  0.39999999673E+01  0.40000000000E+01  0.51109989000E-03 0. -1.
     -623   -1    0    0    0    0  0.00000000000E+00  0.00000000000E+00  0.12525980253E-10  0.17130000000E+03  0.17130000000E+03 0.  1.
       11    1    1    2    0    0 -0.54969431853E-03  0.24225054075E-03  0.85145116608E+00  0.85145153138E+00  0.51109989000E-03 0. -1.
     -623    1    1    2    0    0  0.42518480321E-04 -0.20729835901E-02  0.64440298952E-04  0.17130000001E+03  0.17130000000E+03 0.  1.
      622    1    1    2    0    0  0.50717583821E-03  0.18307330493E-02  0.31484843610E+01  0.31485484561E+01  0.20000000000E-01 0. -1.
</event>
<event>
 5   0  0.3603037E+08  0.9118800E+02  0.7818608E-02  0.1180000E+00
       11   -1    0    0    0    0  0.00000000000E+00  0.00000000000E+00  0.39999999673E+01  0.40000000000E+01  0.51109989000E-03 0.  1.
     -623   -1    0    0    0    0  0.00000000000E+00  0.00000000000E+00  0.12525980253E-10  0.17130000000E+03  0.17130000000E+03 0. -1.
       11    1    1    2    0    0  0.21483878638E-01 -0.18141602500E-01  0.16982810032E+01  0.16985138510E+01  0.51109989000E-03 0.  1.
     -623    1    1    2    0    0 -0.29066739379E-02  0.62176186876E-02  0.42572664170E-03  0.17130000014E+03  0.17130000000E+03 0. -1.
      622    1    1    2    0    0 -0.18577204700E-01  0.11923983813E-01  0.23012932375E+01  0.23014860110E+01  0.20000000000E-01 0.  0.
</event>
<event>
 5   0  0.3603037E+08  0.9118800E+02  0.7818608E-02  0.1180000E+00
       11   -1    0    0    0    0  0.00000000000E+00  0.00000000000E+00  0.39999999673E+01  0.40000000000E+01  0.51109989000E-03 0.  1.
     -623   -1    0    0    0    0  0.00000000000E+00  0.00000000000E+00  0.12525980253E-10  0.17130000000E+03  0.17130000000E+03 0.  1.
       11    1    1    2    0    0  0.19735184429E-02 -0.10470227745E-02  0.62614194300E-01  0.62656121655E-01  0.51109989000E-03 0.  1.
     -623    1    1    2    0    0 -0.62305847415E-03 -0.75657192679E-03  0.93338230647E-04  0.17130000000E+03  0.17130000000E+03 0.  1.
      622    1    1    2    0    0 -0.13504599687E-02  0.18035947013E-02  0.39372924348E+01  0.39373438755E+01  0.20000000000E-01 0.  1.
</event>
<event>
 5   0  0.3603037E+08  0.9118800E+02  0.7818608E-02  0.1180000E+00
       11   -1    0    0    0    0  0.00000000000E+00  0.00000000000E+00  0.39999999673E+01  0.40000000000E+01  0.51109989000E-03 0. -1.
     -623   -1    0    0    0    0  0.00000000000E+00  0.00000000000E+00  0.12525980253E-10  0.17130000000E+03  0.17130000000E+03 0.  1.
       11    1    1    2    0    0 -0.10875061842E-01  0.48778231709E-02  0.55113108931E+00  0.55126019170E+00  0.51109989000E-03 0. -1.
     -623    1    1    2    0    0  0.37096605453E-02  0.16122673492E-02  0.20066105767E-03  0.17130000005E+03  0.17130000000E+03 0.  1.
      622    1    1    2    0    0  0.71654012965E-02 -0.64900905201E-02  0.34486682170E+01  0.34487397604E+01  0.20000000000E-01 0. -1.
</event>
<event>
 5   0  0.3603037E+08  0.9118800E+02  0.7818608E-02  0.1180000E+00
       11   -1    0    0    0    0  0.00000000000E+00  0.00000000000E+00  0.39999999673E+01  0.40000000000E+01  0.51109989000E-03 0.  1.
     -623   -1    0    0    0    0  0.00000000000E+00  0.00000000000E+00  0.12525980253E-10  0.17130000000E+03  0.17130000000E+03 0.  1.
       11    1    1    2    0    0 -0.17435763703E-02  0.10152253400E-02  0.27379468601E+00  0.27380259687E+00  0.51109989000E-03 0.  1.
     -623    1    1    2    0    0 -0.17383463177E-02 -0.19884827330E-03  0.63277858381E-04  0.17130000001E+03  0.17130000000E+03 0.  1.
      622    1    1    2    0    0  0.34819226880E-02 -0.81637706671E-03  0.37261420035E+01  0.37261973942E+01  0.20000000000E-01 0.  1.
</event>
<event>
 5   0  0.3603037E+08  0.9118800E+02  0.7818608E-02  0.1180000E+00
       11   -1    0    0    0    0  0.00000000000E+00  0.00000000000E+00  0.39999999673E+01  0.40000000000E+01  0.51109989000E-03 0.  1.
     -623   -1    0    0    0    0  0.00000000000E+00  0.00000000000E+00  0.12525980253E-10  0.17130000000E+03  0.17130000000E+03 0. -1.
       11    1    1    2    0    0  0.45344881683E-02 -0.31039456294E-02  0.20958968201E+01  0.20959040860E+01  0.51109989000E-03 0.  1.
     -623    1    1    2    0    0 -0.76474690498E-03 -0.53141368232E-03  0.11947793539E-03  0.17130000000E+03  0.17130000000E+03 0. -1.
      622    1    1    2    0    0 -0.37697412634E-02  0.36353593117E-02  0.19039836693E+01  0.19040959114E+01  0.20000000000E-01 0.  1.
</event>
<event>
 5   0  0.3603037E+08  0.9118800E+02  0.7818608E-02  0.1180000E+00
       11   -1    0    0    0    0  0.00000000000E+00  0.00000000000E+00  0.39999999673E+01  0.40000000000E+01  0.51109989000E-03 0.  1.
     -623   -1    0    0    0    0  0.00000000000E+00  0.00000000000E+00  0.12525980253E-10  0.17130000000E+03  0.17130000000E+03 0. -1.
       11    1    1    2    0    0  0.32797348954E-03  0.30493473144E-04  0.42367609500E-02  0.42801706407E-02  0.51109989000E-03 0.  1.
     -623    1    1    2    0    0  0.33570598615E-03  0.19868466541E-02  0.94007178381E-04  0.17130000001E+03  0.17130000000E+03 0. -1.
      622    1    1    2    0    0 -0.66367947570E-03 -0.20173401272E-02  0.39956691992E+01  0.39957198175E+01  0.20000000000E-01 0.  1.
</event>
<event>
 5   0  0.3603037E+08  0.9118800E+02  0.7818608E-02  0.1180000E+00
       11   -1    0    0    0    0  0.00000000000E+00  0.00000000000E+00  0.39999999673E+01  0.40000000000E+01  0.51109989000E-03 0. -1.
     -623   -1    0    0    0    0  0.00000000000E+00  0.00000000000E+00  0.12525980253E-10  0.17130000000E+03  0.17130000000E+03 0. -1.
       11    1    1    2    0    0  0.58191273686E-02  0.89127620032E-02  0.18311407379E+01  0.18311717458E+01  0.51109989000E-03 0. -1.
     -623    1    1    2    0    0 -0.48673018399E-02 -0.17825352972E-02  0.13520148834E-03  0.17130000008E+03  0.17130000000E+03 0. -1.
      622    1    1    2    0    0 -0.95182552874E-03 -0.71302267060E-02  0.21687240280E+01  0.21688281757E+01  0.20000000000E-01 0. -1.
</event>
<event>
 5   0  0.3603037E+08  0.9118800E+02  0.7818608E-02  0.1180000E+00
       11   -1    0    0    0    0  0.00000000000E+00  0.00000000000E+00  0.39999999673E+01  0.40000000000E+01  0.51109989000E-03 0.  1.
     -623   -1    0    0    0    0  0.00000000000E+00  0.00000000000E+00  0.12525980253E-10  0.17130000000E+03  0.17130000000E+03 0.  1.
       11    1    1    2    0    0  0.12002104442E-02 -0.28883008523E-03  0.78416081858E-01  0.78427463575E-01  0.51109989000E-03 0.  1.
     -623    1    1    2    0    0  0.66082217549E-03  0.13960959221E-02  0.62954248666E-04  0.17130000001E+03  0.17130000000E+03 0.  1.
      622    1    1    2    0    0 -0.18610326197E-02 -0.11072658369E-02  0.39215209313E+01  0.39215725295E+01  0.20000000000E-01 0.  1.
</event>
<event>
 5   0  0.3603037E+08  0.9118800E+02  0.7818608E-02  0.1180000E+00
       11   -1    0    0    0    0  0.00000000000E+00  0.00000000000E+00  0.39999999673E+01  0.40000000000E+01  0.51109989000E-03 0.  1.
     -623   -1    0    0    0    0  0.00000000000E+00  0.00000000000E+00  0.12525980253E-10  0.17130000000E+03  0.17130000000E+03 0. -1.
       11    1    1    2    0    0 -0.13829433141E-01 -0.16577407413E-02  0.20806266598E+01  0.20806733430E+01  0.51109989000E-03 0.  1.
     -623    1    1    2    0    0  0.92762981159E-02  0.58246480423E-02  0.16113122603E-03  0.17130000035E+03  0.17130000000E+03 0. -1.
      622    1    1    2    0    0  0.45531350254E-02 -0.41669073011E-02  0.19192121763E+01  0.19193263068E+01  0.20000000000E-01 0.  0.
</event>
<event>
 5   0  0.3603037E+08  0.9118800E+02  0.7818608E-02  0.1180000E+00
       11   -1    0    0    0    0  0.00000000000E+00  0.00000000000E+00  0.39999999673E+01  0.40000000000E+01  0.51109989000E-03 0. -1.
     -623   -1    0    0    0    0  0.00000000000E+00  0.00000000000E+00  0.12525980253E-10  0.17130000000E+03  0.17130000000E+03 0. -1.
       11    1    1    2    0    0 -0.65470315637E-02 -0.27119864161E-02  0.12806260259E+00  0.12825954116E+00  0.51109989000E-03 0. -1.
     -623    1    1    2    0    0  0.41293705172E-02  0.65248425068E-03  0.24991643422E-03  0.17130000005E+03  0.17130000000E+03 0. -1.
      622    1    1    2    0    0  0.24176610466E-02  0.20595021655E-02  0.38716874483E+01  0.38717404076E+01  0.20000000000E-01 0. -1.
</event>
<event>
 5   0  0.3603037E+08  0.9118800E+02  0.7818608E-02  0.1180000E+00
       11   -1    0    0    0    0  0.00000000000E+00  0.00000000000E+00  0.39999999673E+01  0.40000000000E+01  0.51109989000E-03 0. -1.
     -623   -1    0    0    0    0  0.00000000000E+00  0.00000000000E+00  0.12525980253E-10  0.17130000000E+03  0.17130000000E+03 0. -1.
       11    1    1    2    0    0  0.37897104762E-02  0.21344755576E-02  0.67436693376E-01  0.67578744635E-01  0.51109989000E-03 0. -1.
     -623    1    1    2    0    0  0.24656351589E-03  0.24763261103E-03  0.19567163370E-03  0.17130000000E+03  0.17130000000E+03 0. -1.
      622    1    1    2    0    0 -0.40362739921E-02 -0.23821081686E-02  0.39323676024E+01  0.39324212549E+01  0.20000000000E-01 0. -1.
</event>
<event>
 5   0  0.3603037E+08  0.9118800E+02  0.7818608E-02  0.1180000E+00
       11   -1    0    0    0    0  0.00000000000E+00  0.00000000000E+00  0.39999999673E+01  0.40000000000E+01  0.51109989000E-03 0. -1.
     -623   -1    0    0    0    0  0.00000000000E+00  0.00000000000E+00  0.12525980253E-10  0.17130000000E+03  0.17130000000E+03 0.  1.
       11    1    1    2    0    0  0.95507639032E-03 -0.65938476764E-03  0.28865758236E+00  0.28866036797E+00  0.51109989000E-03 0. -1.
     -623    1    1    2    0    0 -0.23782187833E-02 -0.37510648866E-02  0.59593369556E-04  0.17130000006E+03  0.17130000000E+03 0.  1.
      622    1    1    2    0    0  0.14231423930E-02  0.44104496543E-02  0.37112827916E+01  0.37113395744E+01  0.20000000000E-01 0. -1.
</event>
<event>
 5   0  0.3603037E+08  0.9118800E+02  0.7818608E-02  0.1180000E+00
       11   -1    0    0    0    0  0.00000000000E+00  0.00000000000E+00  0.39999999673E+01  0.40000000000E+01  0.51109989000E-03 0. -1.
     -623   -1    0    0    0    0  0.00000000000E+00  0.00000000000E+00  0.12525980253E-10  0.17130000000E+03  0.17130000000E+03 0.  1.
       11    1    1    2    0    0 -0.61467631370E-03 -0.12549315047E-03  0.14020964630E-01  0.14044295868E-01  0.51109989000E-03 0. -1.
     -623    1    1    2    0    0  0.49394192783E-04 -0.34946753286E-04  0.73518425444E-04  0.17130000000E+03  0.17130000000E+03 0.  1.
      622    1    1    2    0    0  0.56528212091E-03  0.16043990376E-03  0.39859054843E+01  0.39859557041E+01  0.20000000000E-01 0. -1.
</event>
<event>
 5   0  0.3603037E+08  0.9118800E+02  0.7818608E-02  0.1180000E+00
       11   -1    0    0    0    0  0.00000000000E+00  0.00000000000E+00  0.39999999673E+01  0.40000000000E+01  0.51109989000E-03 0.  1.
     -623   -1    0    0    0    0  0.00000000000E+00  0.00000000000E+00  0.12525980253E-10  0.17130000000E+03  0.17130000000E+03 0.  1.
       11    1    1    2    0    0 -0.45183595632E-02 -0.12299284157E-01  0.16433435063E+01  0.16433958224E+01  0.51109989000E-03 0.  1.
     -623    1    1    2    0    0 -0.14253500300E-02 -0.28364185468E-02  0.19328633344E-03  0.17130000003E+03  0.17130000000E+03 0.  1.
      622    1    1    2    0    0  0.59437095932E-02  0.15135702704E-01  0.23564631747E+01  0.23566041481E+01  0.20000000000E-01 0.  0.
</event>
<event>
 5   0  0.3603037E+08  0.9118800E+02  0.7818608E-02  0.1180000E+00
       11   -1    0    0    0    0  0.00000000000E+00  0.00000000000E+00  0.39999999673E+01  0.40000000000E+01  0.51109989000E-03 0.  1.
     -623   -1    0    0    0    0  0.00000000000E+00  0.00000000000E+00  0.12525980253E-10  0.17130000000E+03  0.17130000000E+03 0. -1.
       11    1    1    2    0    0  0.36622976781E-02  0.30262783726E-03  0.92100932737E+00  0.92101680025E+00  0.51109989000E-03 0.  1.
     -623    1    1    2    0    0 -0.75484583770E-02  0.68132399256E-02  0.83374756575E-04  0.17130000030E+03  0.17130000000E+03 0. -1.
      622    1    1    2    0    0  0.38861606988E-02 -0.71158677629E-02  0.30789072652E+01  0.30789828979E+01  0.20000000000E-01 0.  1.
</event>
<event>
 5   0  0.3603037E+08  0.9118800E+02  0.7818608E-02  0.1180000E+00
       11   -1    0    0    0    0  0.00000000000E+00  0.00000000000E+00  0.39999999673E+01  0.40000000000E+01  0.51109989000E-03 0.  1.
     -623   -1    0    0    0    0  0.00000000000E+00  0.00000000000E+00  0.12525980253E-10  0.17130000000E+03  0.17130000000E+03 0.  1.
       11    1    1    2    0    0  0.32257316940E-02 -0.15152636870E-02  0.61262798477E-01  0.61368502241E-01  0.51109989000E-03 0.  1.
     -623    1    1    2    0    0 -0.31880850059E-02  0.43425931703E-02  0.15755028076E-03  0.17130000008E+03  0.17130000000E+03 0.  1.
      622    1    1    2    0    0 -0.37646688141E-04 -0.28273294833E-02  0.39385796186E+01  0.39386314130E+01  0.20000000000E-01 0.  1.
</event>
<event>
 5   0  0.3603037E+08  0.9118800E+02  0.7818608E-02  0.1180000E+00
       11   -1    0    0    0    0  0.00000000000E+00  0.00000000000E+00  0.39999999673E+01  0.40000000000E+01  0.51109989000E-03 0.  1.
     -623   -1    0    0    0    0  0.00000000000E+00  0.00000000000E+00  0.12525980253E-10  0.17130000000E+03  0.17130000000E+03 0.  1.
       11    1    1    2    0    0  0.13935043411E-02 -0.23034127006E-02  0.16703666179E+00  0.16705913674E+00  0.51109989000E-03 0.  1.
     -623    1    1    2    0    0  0.12139383559E-03  0.63163490051E-04  0.75576053667E-04  0.17130000000E+03  0.17130000000E+03 0.  1.
      622    1    1    2    0    0 -0.15148981767E-02  0.22402492106E-02  0.38328877295E+01  0.38329408632E+01  0.20000000000E-01 0.  1.
</event>
<event>
 5   0  0.3603037E+08  0.9118800E+02  0.7818608E-02  0.1180000E+00
       11   -1    0    0    0    0  0.00000000000E+00  0.00000000000E+00  0.39999999673E+01  0.40000000000E+01  0.51109989000E-03 0. -1.
     -623   -1    0    0    0    0  0.00000000000E+00  0.00000000000E+00  0.12525980253E-10  0.17130000000E+03  0.17130000000E+03 0.  1.
       11    1    1    2    0    0 -0.21217005759E-03 -0.33348470279E-03  0.28857248050E-01  0.28864480163E-01  0.51109989000E-03 0. -1.
     -623    1    1    2    0    0 -0.58173324185E-04 -0.60912211128E-03  0.57685397850E-04  0.17130000000E+03  0.17130000000E+03 0.  1.
      622    1    1    2    0    0  0.27034338178E-03  0.94260681407E-03  0.39710850339E+01  0.39711355187E+01  0.20000000000E-01 0. -1.
</event>
<event>
 5   0  0.3603037E+08  0.9118800E+02  0.7818608E-02  0.1180000E+00
       11   -1    0    0    0    0  0.00000000000E+00  0.00000000000E+00  0.39999999673E+01  0.40000000000E+01  0.51109989000E-03 0. -1.
     -623   -1    0    0    0    0  0.00000000000E+00  0.00000000000E+00  0.12525980253E-10  0.17130000000E+03  0.17130000000E+03 0.  1.
       11    1    1    2    0    0 -0.86024071907E-03  0.26323400552E-02  0.17003968482E+00  0.17006300263E+00  0.51109989000E-03 0. -1.
     -623    1    1    2    0    0  0.38357690661E-02 -0.41095100426E-02  0.77038714766E-04  0.17130000009E+03  0.17130000000E+03 0.  1.
      622    1    1    2    0    0 -0.29755283470E-02  0.14771699874E-02  0.38298832438E+01  0.38299369051E+01  0.20000000000E-01 0. -1.
</event>
<event>
 5   0  0.3603037E+08  0.9118800E+02  0.7818608E-02  0.1180000E+00
       11   -1    0    0    0    0  0.00000000000E+00  0.00000000000E+00  0.39999999673E+01  0.40000000000E+01  0.51109989000E-03 0.  1.
     -623   -1    0    0    0    0  0.00000000000E+00  0.00000000000E+00  0.12525980253E-10  0.17130000000E+03  0.17130000000E+03 0. -1.
       11    1    1    2    0    0 -0.19461899920E-02  0.62580952204E-02  0.11827158486E+00  0.11845412790E+00  0.51109989000E-03 0.  1.
     -623    1    1    2    0    0 -0.22915956772E-02  0.52981429909E-03  0.24230163426E-03  0.17130000002E+03  0.17130000000E+03 0. -1.
      622    1    1    2    0    0  0.42377856692E-02 -0.67879095195E-02  0.38814860809E+01  0.38815458558E+01  0.20000000000E-01 0.  1.
</event>
<event>
 5   0  0.3603037E+08  0.9118800E+02  0.7818608E-02  0.1180000E+00
       11   -1    0    0    0    0  0.00000000000E+00  0.00000000000E+00  0.39999999673E+01  0.40000000000E+01  0.51109989000E-03 0.  1.
     -623   -1    0    0    0    0  0.00000000000E+00  0.00000000000E+00  0.12525980253E-10  0.17130000000E+03  0.17130000000E+03 0. -1.
       11    1    1    2    0    0 -0.11012254626E-01  0.86263191599E-02  0.63870449631E+00  0.63885786992E+00  0.51109989000E-03 0.  1.
     -623    1    1    2    0    0 -0.32088188871E-02  0.44212667196E-03  0.25519521379E-03  0.17130000003E+03  0.17130000000E+03 0. -1.
      622    1    1    2    0    0  0.14221073513E-01 -0.90684458318E-02  0.33610402758E+01  0.33611420993E+01  0.20000000000E-01 0.  1.
</event>
<event>
 5   0  0.3603037E+08  0.9118800E+02  0.7818608E-02  0.1180000E+00
       11   -1    0    0    0    0  0.00000000000E+00  0.00000000000E+00  0.39999999673E+01  0.40000000000E+01  0.51109989000E-03 0. -1.
     -623   -1    0    0    0    0  0.00000000000E+00  0.00000000000E+00  0.12525980253E-10  0.17130000000E+03  0.17130000000E+03 0.  1.
       11    1    1    2    0    0 -0.43115798618E-01 -0.29398045084E-02  0.14095109489E+01  0.14101733903E+01  0.51109989000E-03 0. -1.
     -623    1    1    2    0    0 -0.23249313994E-02  0.76559783962E-02  0.11428117478E-02  0.17130000019E+03  0.17130000000E+03 0.  1.
      622    1    1    2    0    0  0.45440730017E-01 -0.47161738878E-02  0.25893462067E+01  0.25898264190E+01  0.20000000000E-01 0. -1.
</event>
<event>
 5   0  0.3603037E+08  0.9118800E+02  0.7818608E-02  0.1180000E+00
       11   -1    0    0    0    0  0.00000000000E+00  0.00000000000E+00  0.39999999673E+01  0.40000000000E+01  0.51109989000E-03 0.  1.
     -623   -1    0    0    0    0  0.00000000000E+00  0.00000000000E+00  0.12525980253E-10  0.17130000000E+03  0.17130000000E+03 0. -1.
       11    1    1    2    0    0  0.15506283798E-03  0.75258081472E-02  0.53413266182E+00  0.53418594466E+00  0.51109989000E-03 0.  1.
     -623    1    1    2    0    0  0.11343006922E-02 -0.60926816425E-04  0.11924013612E-03  0.17130000000E+03  0.17130000000E+03 0. -1.
      622    1    1    2    0    0 -0.12893635302E-02 -0.74648813308E-02  0.34657480654E+01  0.34658140515E+01  0.20000000000E-01 0.  1.
</event>
<event>
 5   0  0.3603037E+08  0.9118800E+02  0.7818608E-02  0.1180000E+00
       11   -1    0    0    0    0  0.00000000000E+00  0.00000000000E+00  0.39999999673E+01  0.40000000000E+01  0.51109989000E-03 0.  1.
     -623   -1    0    0    0    0  0.00000000000E+00  0.00000000000E+00  0.12525980253E-10  0.17130000000E+03  0.17130000000E+03 0. -1.
       11    1    1    2    0    0 -0.45431735274E-02  0.13894188610E-02  0.14842375122E-01  0.15592569714E-01  0.51109989000E-03 0.  1.
     -623    1    1    2    0    0  0.32118967263E-02 -0.89379211146E-03  0.80064548678E-03  0.17130000003E+03  0.17130000000E+03 0. -1.
      622    1    1    2    0    0  0.13312768011E-02 -0.49562674953E-03  0.39843569468E+01  0.39844073960E+01  0.20000000000E-01 0.  1.
</event>
<event>
 5   0  0.3603037E+08  0.9118800E+02  0.7818608E-02  0.1180000E+00
       11   -1    0    0    0    0  0.00000000000E+00  0.00000000000E+00  0.39999999673E+01  0.40000000000E+01  0.51109989000E-03 0.  1.
     -623   -1    0    0    0    0  0.00000000000E+00  0.00000000000E+00  0.12525980253E-10  0.17130000000E+03  0.17130000000E+03 0. -1.
       11    1    1    2    0    0 -0.25342472044E-02 -0.49673875932E-02  0.10069313682E+01  0.10069469394E+01  0.51109989000E-03 0.  1.
     -623    1    1    2    0    0  0.23713635505E-03  0.29778073989E-03  0.86885424410E-04  0.17130000000E+03  0.17130000000E+03 0. -1.
      622    1    1    2    0    0  0.22971108494E-02  0.46696068533E-02  0.29929817137E+01  0.29930530601E+01  0.20000000000E-01 0.  0.
</event>
<event>
 5   0  0.3603037E+08  0.9118800E+02  0.7818608E-02  0.1180000E+00
       11   -1    0    0    0    0  0.00000000000E+00  0.00000000000E+00  0.39999999673E+01  0.40000000000E+01  0.51109989000E-03 0.  1.
     -623   -1    0    0    0    0  0.00000000000E+00  0.00000000000E+00  0.12525980253E-10  0.17130000000E+03  0.17130000000E+03 0.  1.
       11    1    1    2    0    0  0.49095716255E-03  0.20450974223E-03  0.24277470187E-01  0.24288673142E-01  0.51109989000E-03 0.  1.
     -623    1    1    2    0    0 -0.24125598548E-03  0.16283134502E-03  0.61501167141E-04  0.17130000000E+03  0.17130000000E+03 0.  1.
      622    1    1    2    0    0 -0.24970117707E-03 -0.36734108726E-03  0.39756609960E+01  0.39757113266E+01  0.20000000000E-01 0.  1.
</event>
<event>
 5   0  0.3603037E+08  0.9118800E+02  0.7818608E-02  0.1180000E+00
       11   -1    0    0    0    0  0.00000000000E+00  0.00000000000E+00  0.39999999673E+01  0.40000000000E+01  0.51109989000E-03 0.  1.
     -623   -1    0    0    0    0  0.00000000000E+00  0.00000000000E+00  0.12525980253E-10  0.17130000000E+03  0.17130000000E+03 0. -1.
       11    1    1    2    0    0 -0.93767120667E-03  0.33135010928E-03  0.26150407781E+00  0.26150646828E+00  0.51109989000E-03 0.  1.
     -623    1    1    2    0    0 -0.41844297609E-03  0.62909981594E-03  0.56226714058E-04  0.17130000000E+03  0.17130000000E+03 0. -1.
      622    1    1    2    0    0  0.13561141828E-02 -0.96044992522E-03  0.37384396628E+01  0.37384935300E+01  0.20000000000E-01 0.  1.
</event>
<event>
 5   0  0.3603037E+08  0.9118800E+02  0.7818608E-02  0.1180000E+00
       11   -1    0    0    0    0  0.00000000000E+00  0.00000000000E+00  0.39999999673E+01  0.40000000000E+01  0.51109989000E-03 0. -1.
     -623   -1    0    0    0    0  0.00000000000E+00  0.00000000000E+00  0.12525980253E-10  0.17130000000E+03  0.17130000000E+03 0.  1.
       11    1    1    2    0    0  0.80233392044E-02 -0.13307365074E-01  0.63040192576E+00  0.63059361649E+00  0.51109989000E-03 0. -1.
     -623    1    1    2    0    0  0.71353364746E-03  0.29809793066E-02  0.27819574001E-03  0.17130000003E+03  0.17130000000E+03 0.  1.
      622    1    1    2    0    0 -0.87368728519E-02  0.10326385768E-01  0.33693198459E+01  0.33694063559E+01  0.20000000000E-01 0. -1.
</event>
<event>
 5   0  0.3603037E+08  0.9118800E+02  0.7818608E-02  0.1180000E+00
       11   -1    0    0    0    0  0.00000000000E+00  0.00000000000E+00  0.39999999673E+01  0.40000000000E+01  0.51109989000E-03 0.  1.
     -623   -1    0    0    0    0  0.00000000000E+00  0.00000000000E+00  0.12525980253E-10  0.17130000000E+03  0.17130000000E+03 0. -1.
       11    1    1    2    0    0  0.31232272229E-02  0.80202644738E-03  0.15924361433E+00  0.15927707846E+00  0.51109989000E-03 0.  1.
     -623    1    1    2    0    0 -0.40322146702E-03  0.30409168546E-03  0.86628586186E-04  0.17130000000E+03  0.17130000000E+03 0. -1.
      622    1    1    2    0    0 -0.27200057559E-02 -0.11061181328E-02  0.38406697244E+01  0.38407229208E+01  0.20000000000E-01 0.  1.
</event>
<event>
 5   0  0.3603037E+08  0.9118800E+02  0.7818608E-02  0.1180000E+00
       11   -1    0    0    0    0  0.00000000000E+00  0.00000000000E+00  0.39999999673E+01  0.40000000000E+01  0.51109989000E-03 0.  1.
     -623   -1    0    0    0    0  0.00000000000E+00  0.00000000000E+00  0.12525980253E-10  0.17130000000E+03  0.17130000000E+03 0.  1.
       11    1    1    2    0    0 -0.16049391611E-01  0.16224980340E-01  0.28101470757E+00  0.28194034840E+00  0.51109989000E-03 0.  1.
     -623    1    1    2    0    0 -0.13779931823E-02 -0.42628788259E-02  0.10395490226E-02  0.17130000006E+03  0.17130000000E+03 0.  1.
      622    1    1    2    0    0  0.17427384794E-01 -0.11962101514E-01  0.37179457108E+01  0.37180595899E+01  0.20000000000E-01 0.  1.
</event>
<event>
 5   0  0.3603037E+08  0.9118800E+02  0.7818608E-02  0.1180000E+00
       11   -1    0    0    0    0  0.00000000000E+00  0.00000000000E+00  0.39999999673E+01  0.40000000000E+01  0.51109989000E-03 0.  1.
     -623   -1    0    0    0    0  0.00000000000E+00  0.00000000000E+00  0.12525980253E-10  0.17130000000E+03  0.17130000000E+03 0. -1.
       11    1    1    2    0    0  0.33237153107E-02  0.11406739444E-02  0.23351203459E+00  0.23353903258E+00  0.51109989000E-03 0.  1.
     -623    1    1    2    0    0 -0.69992537747E-04  0.29141888668E-03  0.81743928896E-04  0.17130000000E+03  0.17130000000E+03 0. -1.
      622    1    1    2    0    0 -0.32537227729E-02 -0.14320928311E-02  0.37664061888E+01  0.37664609671E+01  0.20000000000E-01 0.  1.
</event>
<event>
 5   0  0.3603037E+08  0.9118800E+02  0.7818608E-02  0.1180000E+00
       11   -1    0    0    0    0  0.00000000000E+00  0.00000000000E+00  0.39999999673E+01  0.40000000000E+01  0.51109989000E-03 0.  1.
     -623   -1    0    0    0    0  0.00000000000E+00  0.00000000000E+00  0.12525980253E-10  0.17130000000E+03  0.17130000000E+03 0. -1.
       11    1    1    2    0    0  0.13747322168E-02 -0.86144128759E-03  0.74779200747E+00  0.74779394196E+00  0.51109989000E-03 0.  1.
     -623    1    1    2    0    0 -0.18753060125E-03 -0.15975159421E-03  0.63776361045E-04  0.17130000000E+03  0.17130000000E+03 0. -1.
      622    1    1    2    0    0 -0.11872016156E-02  0.10211928818E-02  0.32521441835E+01  0.32522060578E+01  0.20000000000E-01 0.  1.
</event>
<event>
 5   0  0.3603037E+08  0.9118800E+02  0.7818608E-02  0.1180000E+00
       11   -1    0    0    0    0  0.00000000000E+00  0.00000000000E+00  0.39999999673E+01  0.40000000000E+01  0.51109989000E-03 0.  1.
     -623   -1    0    0    0    0  0.00000000000E+00  0.00000000000E+00  0.12525980253E-10  0.17130000000E+03  0.17130000000E+03 0. -1.
       11    1    1    2    0    0  0.94357057755E-02  0.46261784453E-03  0.14844807388E+01  0.14845108864E+01  0.51109989000E-03 0.  1.
     -623    1    1    2    0    0 -0.31390149516E-03  0.52883523444E-03  0.12635966568E-03  0.17130000000E+03  0.17130000000E+03 0. -1.
      622    1    1    2    0    0 -0.91218042804E-02 -0.99145307897E-03  0.25153928689E+01  0.25154891125E+01  0.20000000000E-01 0.  1.
</event>
<event>
 5   0  0.3603037E+08  0.9118800E+02  0.7818608E-02  0.1180000E+00
       11   -1    0    0    0    0  0.00000000000E+00  0.00000000000E+00  0.39999999673E+01  0.40000000000E+01  0.51109989000E-03 0. -1.
     -623   -1    0    0    0    0  0.00000000000E+00  0.00000000000E+00  0.12525980253E-10  0.17130000000E+03  0.17130000000E+03 0. -1.
       11    1    1    2    0    0  0.32349874803E-03 -0.46851181144E-02  0.89906580587E-01  0.90030602785E-01  0.51109989000E-03 0. -1.
     -623    1    1    2    0    0  0.42721763191E-03  0.78880387472E-03  0.17715707785E-03  0.17130000000E+03  0.17130000000E+03 0. -1.
      622    1    1    2    0    0 -0.75071637995E-03  0.38963142397E-02  0.39099162297E+01  0.39099693948E+01  0.20000000000E-01 0. -1.
</event>
<event>
 5   0  0.3603037E+08  0.9118800E+02  0.7818608E-02  0.1180000E+00
       11   -1    0    0    0    0  0.00000000000E+00  0.00000000000E+00  0.39999999673E+01  0.40000000000E+01  0.51109989000E-03 0.  1.
     -623   -1    0    0    0    0  0.00000000000E+00  0.00000000000E+00  0.12525980253E-10  0.17130000000E+03  0.17130000000E+03 0. -1.
       11    1    1    2    0    0  0.35270276292E-02 -0.31041159404E-02  0.41108662859E+00  0.41111379554E+00  0.51109989000E-03 0.  1.
     -623    1    1    2    0    0 -0.12796955008E-01 -0.79899351227E-02  0.11264629626E-03  0.17130000066E+03  0.17130000000E+03 0. -1.
      622    1    1    2    0    0  0.92699273785E-02  0.11094051063E-01  0.35888006925E+01  0.35888855401E+01  0.20000000000E-01 0.  1.
</event>
<event>
 5   0  0.3603037E+08  0.9118800E+02  0.7818608E-02  0.1180000E+00
       11   -1    0    0    0    0  0.00000000000E+00  0.00000000000E+00  0.39999999673E+01  0.40000000000E+01  0.51109989000E-03 0.  1.
     -623   -1    0    0    0    0  0.00000000000E+00  0.00000000000E+00  0.12525980253E-10  0.17130000000E+03  0.17130000000E+03 0. -1.
       11    1    1    2    0    0  0.32072568403E-03  0.33237113253E-02  0.31744071828E-01  0.31923302480E-01  0.51109989000E-03 0.  1.
     -623    1    1    2    0    0 -0.64249266618E-03 -0.88726247949E-04  0.23093369505E-03  0.17130000000E+03  0.17130000000E+03 0. -1.
      622    1    1    2    0    0  0.32176698215E-03 -0.32349850773E-02  0.39680249618E+01  0.39680766961E+01  0.20000000000E-01 0.  1.
</event>
<event>
 5   0  0.3603037E+08  0.9118800E+02  0.7818608E-02  0.1180000E+00
       11   -1    0    0    0    0  0.00000000000E+00  0.00000000000E+00  0.39999999673E+01  0.40000000000E+01  0.51109989000E-03 0. -1.
     -623   -1    0    0    0    0  0.00000000000E+00  0.00000000000E+00  0.12525980253E-10  0.17130000000E+03  0.17130000000E+03 0. -1.
       11    1    1    2    0    0 -0.91444939089E-02 -0.49983845388E-03  0.67942179278E+00  0.67948370498E+00  0.51109989000E-03 0. -1.
     -623    1    1    2    0    0  0.36603559420E-02 -0.16110759711E-02  0.12735828722E-03  0.17130000005E+03  0.17130000000E+03 0. -1.
      622    1    1    2    0    0  0.54841379670E-02  0.21109144250E-02  0.33204508163E+01  0.33205162483E+01  0.20000000000E-01 0.  0.
</event>
<event>
 5   0  0.3603037E+08  0.9118800E+02  0.7818608E-02  0.1180000E+00
       11   -1    0    0    0    0  0.00000000000E+00  0.00000000000E+00  0.39999999673E+01  0.40000000000E+01  0.51109989000E-03 0.  1.
     -623   -1    0    0    0    0  0.00000000000E+00  0.00000000000E+00  0.12525980253E-10  0.17130000000E+03  0.17130000000E+03 0. -1.
       11    1    1    2    0    0  0.16300750393E-02  0.71181311766E-02  0.14204158729E+00  0.14223009061E+00  0.51109989000E-03 0.  1.
     -623    1    1    2    0    0 -0.46640854349E-03 -0.19671252839E-03  0.24670001162E-03  0.17130000000E+03  0.17130000000E+03 0. -1.
      622    1    1    2    0    0 -0.11636664958E-02 -0.69214186482E-02  0.38577116801E+01  0.38577699085E+01  0.20000000000E-01 0.  1.
</event>
<event>
 5   0  0.3603037E+08  0.9118800E+02  0.7818608E-02  0.1180000E+00
       11   -1    0    0    0    0  0.00000000000E+00  0.00000000000E+00  0.39999999673E+01  0.40000000000E+01  0.51109989000E-03 0. -1.
     -623   -1    0    0    0    0  0.00000000000E+00  0.00000000000E+00  0.12525980253E-10  0.17130000000E+03  0.17130000000E+03 0. -1.
       11    1    1    2    0    0  0.20740608195E-02  0.28135359032E-03  0.69672569342E-01  0.69705875131E-01  0.51109989000E-03 0. -1.
     -623    1    1    2    0    0  0.10950641050E-04  0.10273758694E-03  0.84732129491E-04  0.17130000000E+03  0.17130000000E+03 0. -1.
      622    1    1    2    0    0 -0.20850114605E-02 -0.38409117726E-03  0.39302426659E+01  0.39302941248E+01  0.20000000000E-01 0. -1.
</event>
<event>
 5   0  0.3603037E+08  0.9118800E+02  0.7818608E-02  0.1180000E+00
       11   -1    0    0    0    0  0.00000000000E+00  0.00000000000E+00  0.39999999673E+01  0.40000000000E+01  0.51109989000E-03 0. -1.
     -623   -1    0    0    0    0  0.00000000000E+00  0.00000000000E+00  0.12525980253E-10  0.17130000000E+03  0.17130000000E+03 0.  1.
       11    1    1    2    0    0 -0.10123762207E-02  0.53141287902E-02  0.62053610571E-01  0.62291064183E-01  0.51109989000E-03 0. -1.
     -623    1    1    2    0    0  0.60929911931E-03 -0.67684529008E-02  0.28863650058E-03  0.17130000014E+03  0.17130000000E+03 0.  1.
      622    1    1    2    0    0  0.40307710142E-03  0.14543241106E-02  0.39376577203E+01  0.39377088008E+01  0.20000000000E-01 0. -1.
</event>
<event>
 5   0  0.3603037E+08  0.9118800E+02  0.7818608E-02  0.1180000E+00
       11   -1    0    0    0    0  0.00000000000E+00  0.00000000000E+00  0.39999999673E+01  0.40000000000E+01  0.51109989000E-03 0.  1.
     -623   -1    0    0    0    0  0.00000000000E+00  0.00000000000E+00  0.12525980253E-10  0.17130000000E+03  0.17130000000E+03 0. -1.
       11    1    1    2    0    0  0.10836161255E-01  0.57607187141E-02  0.51055288809E-01  0.52512017755E-01  0.51109989000E-03 0.  1.
     -623    1    1    2    0    0 -0.14585784803E-01 -0.27667712672E-02  0.15109279987E-02  0.17130000065E+03  0.17130000000E+03 0. -1.
      622    1    1    2    0    0  0.37496235484E-02 -0.29939474469E-02  0.39474337506E+01  0.39474873323E+01  0.20000000000E-01 0.  1.
</event>
<event>
 5   0  0.3603037E+08  0.9118800E+02  0.7818608E-02  0.1180000E+00
       11   -1    0    0    0    0  0.00000000000E+00  0.00000000000E+00  0.39999999673E+01  0.40000000000E+01  0.51109989000E-03 0. -1.
     -623   -1    0    0    0    0  0.00000000000E+00  0.00000000000E+00  0.12525980253E-10  0.17130000000E+03  0.17130000000E+03 0.  1.
       11    1    1    2    0    0  0.38966315713E-04 -0.41767395156E-03  0.57388161844E-01  0.57391970795E-01  0.51109989000E-03 0. -1.
     -623    1    1    2    0    0  0.13904051100E-03 -0.36788326970E-03  0.54587220287E-04  0.17130000000E+03  0.17130000000E+03 0.  1.
      622    1    1    2    0    0 -0.17800682672E-03  0.78555722126E-03  0.39425572183E+01  0.39426080287E+01  0.20000000000E-01 0. -1.
</event>
<event>
 5   0  0.3603037E+08  0.9118800E+02  0.7818608E-02  0.1180000E+00
       11   -1    0    0    0    0  0.00000000000E+00  0.00000000000E+00  0.39999999673E+01  0.40000000000E+01  0.51109989000E-03 0.  1.
     -623   -1    0    0    0    0  0.00000000000E+00  0.00000000000E+00  0.12525980253E-10  0.17130000000E+03  0.17130000000E+03 0. -1.
       11    1    1    2    0    0 -0.39660287973E-02 -0.22005037172E-02  0.11482616159E+01  0.11482706874E+01  0.51109989000E-03 0.  1.
     -623    1    1    2    0    0  0.81701007676E-04  0.18681922593E-03  0.82529128992E-04  0.17130000000E+03  0.17130000000E+03 0. -1.
      622    1    1    2    0    0  0.38843277896E-02  0.20136844913E-02  0.28516558223E+01  0.28517293125E+01  0.20000000000E-01 0.  0.
</event>
<event>
 5   0  0.3603037E+08  0.9118800E+02  0.7818608E-02  0.1180000E+00
       11   -1    0    0    0    0  0.00000000000E+00  0.00000000000E+00  0.39999999673E+01  0.40000000000E+01  0.51109989000E-03 0.  1.
     -623   -1    0    0    0    0  0.00000000000E+00  0.00000000000E+00  0.12525980253E-10  0.17130000000E+03  0.17130000000E+03 0. -1.
       11    1    1    2    0    0  0.19455965393E-02 -0.45455189975E-02  0.81328151100E+00  0.81329670136E+00  0.51109989000E-03 0.  1.
     -623    1    1    2    0    0 -0.57002526046E-03  0.29103279539E-02  0.78661249395E-04  0.17130000003E+03  0.17130000000E+03 0. -1.
      622    1    1    2    0    0 -0.13755712789E-02  0.16351910436E-02  0.31866397951E+01  0.31867032729E+01  0.20000000000E-01 0.  0.
</event>
<event>
 5   0  0.3603037E+08  0.9118800E+02  0.7818608E-02  0.1180000E+00
       11   -1    0    0    0    0  0.00000000000E+00  0.00000000000E+00  0.39999999673E+01  0.40000000000E+01  0.51109989000E-03 0.  1.
     -623   -1    0    0    0    0  0.00000000000E+00  0.00000000000E+00  0.12525980253E-10  0.17130000000E+03  0.17130000000E+03 0.  1.
       11    1    1    2    0    0 -0.11895383415E-02 -0.44755878511E-03  0.80375364353E-01  0.80387037062E-01  0.51109989000E-03 0.  1.
     -623    1    1    2    0    0 -0.68093618149E-03  0.49050044487E-03  0.63114459191E-04  0.17130000000E+03  0.17130000000E+03 0.  1.
      622    1    1    2    0    0  0.18704745230E-02 -0.42941659756E-04  0.39195614885E+01  0.39196129609E+01  0.20000000000E-01 0.  1.
</event>
<event>
 5   0  0.3603037E+08  0.9118800E+02  0.7818608E-02  0.1180000E+00
       11   -1    0    0    0    0  0.00000000000E+00  0.00000000000E+00  0.39999999673E+01  0.40000000000E+01  0.51109989000E-03 0. -1.
     -623   -1    0    0    0    0  0.00000000000E+00  0.00000000000E+00  0.12525980253E-10  0.17130000000E+03  0.17130000000E+03 0.  1.
       11    1    1    2    0    0  0.32760791541E-02  0.41308360227E-02  0.28262695999E+00  0.28267659301E+00  0.51109989000E-03 0. -1.
     -623    1    1    2    0    0  0.45439303321E-03 -0.81739135816E-04  0.10748071532E-03  0.17130000000E+03  0.17130000000E+03 0.  1.
      622    1    1    2    0    0 -0.37304721873E-02 -0.40490968869E-02  0.37172655267E+01  0.37173234063E+01  0.20000000000E-01 0. -1.
</event>
<event>
 5   0  0.3603037E+08  0.9118800E+02  0.7818608E-02  0.1180000E+00
       11   -1    0    0    0    0  0.00000000000E+00  0.00000000000E+00  0.39999999673E+01  0.40000000000E+01  0.51109989000E-03 0.  1.
     -623   -1    0    0    0    0  0.00000000000E+00  0.00000000000E+00  0.12525980253E-10  0.17130000000E+03  0.17130000000E+03 0.  1.
       11    1    1    2    0    0 -0.10798809443E-01  0.17418290464E-01  0.17795407993E+01  0.17796588798E+01  0.51109989000E-03 0.  1.
     -623    1    1    2    0    0  0.14709636269E-03 -0.18798871999E-03  0.30053735119E-03  0.17130000000E+03  0.17130000000E+03 0.  1.
      622    1    1    2    0    0  0.10651713080E-01 -0.17230301744E-01  0.22201586307E+01  0.22203411197E+01  0.20000000000E-01 0.  0.
</event>
<event>
 5   0  0.3603037E+08  0.9118800E+02  0.7818608E-02  0.1180000E+00
       11   -1    0    0    0    0  0.00000000000E+00  0.00000000000E+00  0.39999999673E+01  0.40000000000E+01  0.51109989000E-03 0.  1.
     -623   -1    0    0    0    0  0.00000000000E+00  0.00000000000E+00  0.12525980253E-10  0.17130000000E+03  0.17130000000E+03 0. -1.
       11    1    1    2    0    0  0.71709984361E-03  0.19438584939E-02  0.55545610333E-02  0.59503938452E-02  0.51109989000E-03 0.  1.
     -623    1    1    2    0    0  0.23223105921E-02 -0.21804706179E-02  0.44706867520E-03  0.17130000003E+03  0.17130000000E+03 0. -1.
      622    1    1    2    0    0 -0.30394104357E-02  0.23661212406E-03  0.39939983377E+01  0.39940495760E+01  0.20000000000E-01 0.  1.
</event>
<event>
 5   0  0.3603037E+08  0.9118800E+02  0.7818608E-02  0.1180000E+00
       11   -1    0    0    0    0  0.00000000000E+00  0.00000000000E+00  0.39999999673E+01  0.40000000000E+01  0.51109989000E-03 0. -1.
     -623   -1    0    0    0    0  0.00000000000E+00  0.00000000000E+00  0.12525980253E-10  0.17130000000E+03  0.17130000000E+03 0. -1.
       11    1    1    2    0    0  0.11724567370E-02  0.46753567911E-03  0.16266921186E+01  0.16266926886E+01  0.51109989000E-03 0. -1.
     -623    1    1    2    0    0  0.76213637913E-02  0.54523627778E-02  0.10874185321E-03  0.17130000026E+03  0.17130000000E+03 0. -1.
      622    1    1    2    0    0 -0.87938205284E-02 -0.59198984569E-02  0.23731991069E+01  0.23733070550E+01  0.20000000000E-01 0. -1.
</event>
<event>
 5   0  0.3603037E+08  0.9118800E+02  0.7818608E-02  0.1180000E+00
       11   -1    0    0    0    0  0.00000000000E+00  0.00000000000E+00  0.39999999673E+01  0.40000000000E+01  0.51109989000E-03 0.  1.
     -623   -1    0    0    0    0  0.00000000000E+00  0.00000000000E+00  0.12525980253E-10  0.17130000000E+03  0.17130000000E+03 0.  1.
       11    1    1    2    0    0 -0.19210673373E-02  0.26105216343E-02  0.23892750915E-01  0.24117008338E-01  0.51109989000E-03 0.  1.
     -623    1    1    2    0    0 -0.75066375117E-04  0.70836462364E-03  0.27641643808E-03  0.17130000000E+03  0.17130000000E+03 0.  1.
      622    1    1    2    0    0  0.19961337124E-02 -0.33188862580E-02  0.39758308000E+01  0.39758829900E+01  0.20000000000E-01 0.  1.
</event>
<event>
 5   0  0.3603037E+08  0.9118800E+02  0.7818608E-02  0.1180000E+00
       11   -1    0    0    0    0  0.00000000000E+00  0.00000000000E+00  0.39999999673E+01  0.40000000000E+01  0.51109989000E-03 0.  1.
     -623   -1    0    0    0    0  0.00000000000E+00  0.00000000000E+00  0.12525980253E-10  0.17130000000E+03  0.17130000000E+03 0.  1.
       11    1    1    2    0    0 -0.83671023187E-02  0.30846603591E-02  0.29895196129E+01  0.29895329569E+01  0.51109989000E-03 0.  1.
     -623    1    1    2    0    0  0.26007708076E-01  0.12880346079E-01  0.49391758774E-03  0.17130000246E+03  0.17130000000E+03 0.  1.
      622    1    1    2    0    0 -0.17640605757E-01 -0.15965006438E-01  0.10099864369E+01  0.10104645838E+01  0.20000000000E-01 0.  0.
</event>
<event>
 5   0  0.3603037E+08  0.9118800E+02  0.7818608E-02  0.1180000E+00
       11   -1    0    0    0    0  0.00000000000E+00  0.00000000000E+00  0.39999999673E+01  0.40000000000E+01  0.51109989000E-03 0.  1.
     -623   -1    0    0    0    0  0.00000000000E+00  0.00000000000E+00  0.12525980253E-10  0.17130000000E+03  0.17130000000E+03 0. -1.
       11    1    1    2    0    0  0.29277496495E-01 -0.14897866608E-01  0.12673522211E+00  0.13092439030E+00  0.51109989000E-03 0.  1.
     -623    1    1    2    0    0 -0.21707089534E-01  0.76442772874E-03  0.42754793504E-02  0.17130000143E+03  0.17130000000E+03 0. -1.
      622    1    1    2    0    0 -0.75704069610E-02  0.14133438879E-01  0.38689892659E+01  0.38690741793E+01  0.20000000000E-01 0.  1.
</event>
<event>
 5   0  0.3603037E+08  0.9118800E+02  0.7818608E-02  0.1180000E+00
       11   -1    0    0    0    0  0.00000000000E+00  0.00000000000E+00  0.39999999673E+01  0.40000000000E+01  0.51109989000E-03 0. -1.
     -623   -1    0    0    0    0  0.00000000000E+00  0.00000000000E+00  0.12525980253E-10  0.17130000000E+03  0.17130000000E+03 0.  1.
       11    1    1    2    0    0 -0.16361585745E-01  0.45786069529E-03  0.35039526103E-01  0.38677393082E-01  0.51109989000E-03 0. -1.
     -623    1    1    2    0    0  0.48622295516E-02  0.17028348834E-02  0.37057207223E-02  0.17130000012E+03  0.17130000000E+03 0.  1.
      622    1    1    2    0    0  0.11499356193E-01 -0.21606955786E-02  0.39612547205E+01  0.39613224894E+01  0.20000000000E-01 0. -1.
</event>
<event>
 5   0  0.3603037E+08  0.9118800E+02  0.7818608E-02  0.1180000E+00
       11   -1    0    0    0    0  0.00000000000E+00  0.00000000000E+00  0.39999999673E+01  0.40000000000E+01  0.51109989000E-03 0. -1.
     -623   -1    0    0    0    0  0.00000000000E+00  0.00000000000E+00  0.12525980253E-10  0.17130000000E+03  0.17130000000E+03 0.  1.
       11    1    1    2    0    0  0.11849674772E-02  0.47656895720E-02  0.86055365527E+00  0.86056781881E+00  0.51109989000E-03 0. -1.
     -623    1    1    2    0    0  0.11225300916E-02 -0.43202550379E-03  0.81680753181E-04  0.17130000000E+03  0.17130000000E+03 0.  1.
      622    1    1    2    0    0 -0.23074975688E-02 -0.43336640682E-02  0.31393646313E+01  0.31394321770E+01  0.20000000000E-01 0. -1.
</event>
<event>
 5   0  0.3603037E+08  0.9118800E+02  0.7818608E-02  0.1180000E+00
       11   -1    0    0    0    0  0.00000000000E+00  0.00000000000E+00  0.39999999673E+01  0.40000000000E+01  0.51109989000E-03 0.  1.
     -623   -1    0    0    0    0  0.00000000000E+00  0.00000000000E+00  0.12525980253E-10  0.17130000000E+03  0.17130000000E+03 0.  1.
       11    1    1    2    0    0 -0.15246706492E-01 -0.39842090574E-02  0.12193029087E+01  0.12194048468E+01  0.51109989000E-03 0.  1.
     -623    1    1    2    0    0  0.13195513464E-01  0.12936384772E-01  0.18999810922E-03  0.17130000100E+03  0.17130000000E+03 0.  1.
      622    1    1    2    0    0  0.20511930280E-02 -0.89521757142E-02  0.27805070605E+01  0.27805941564E+01  0.20000000000E-01 0.  1.
</event>
<event>
 5   0  0.3603037E+08  0.9118800E+02  0.7818608E-02  0.1180000E+00
       11   -1    0    0    0    0  0.00000000000E+00  0.00000000000E+00  0.39999999673E+01  0.40000000000E+01  0.51109989000E-03 0. -1.
     -623   -1    0    0    0    0  0.00000000000E+00  0.00000000000E+00  0.12525980253E-10  0.17130000000E+03  0.17130000000E+03 0. -1.
       11    1    1    2    0    0  0.27274841030E-02 -0.29301905459E-02  0.86723617507E-01  0.86817465074E-01  0.51109989000E-03 0. -1.
     -623    1    1    2    0    0 -0.94092792463E-03 -0.60893069289E-03  0.14693654454E-03  0.17130000000E+03  0.17130000000E+03 0. -1.
      622    1    1    2    0    0 -0.17865561783E-02  0.35391212388E-02  0.39131294133E+01  0.39131825312E+01  0.20000000000E-01 0. -1.
</event>
<event>
 5   0  0.3603037E+08  0.9118800E+02  0.7818608E-02  0.1180000E+00
       11   -1    0    0    0    0  0.00000000000E+00  0.00000000000E+00  0.39999999673E+01  0.40000000000E+01  0.51109989000E-03 0. -1.
     -623   -1    0    0    0    0  0.00000000000E+00  0.00000000000E+00  0.12525980253E-10  0.17130000000E+03  0.17130000000E+03 0. -1.
       11    1    1    2    0    0  0.38692105371E-03  0.16024695114E-02  0.64607205051E-01  0.64630254391E-01  0.51109989000E-03 0. -1.
     -623    1    1    2    0    0  0.98695281825E-04 -0.16507290753E-02  0.73876430230E-04  0.17130000001E+03  0.17130000000E+03 0. -1.
      622    1    1    2    0    0 -0.48561633554E-03  0.48259563814E-04  0.39353188859E+01  0.39353697376E+01  0.20000000000E-01 0. -1.
</event>
<event>
 5   0  0.3603037E+08  0.9118800E+02  0.7818608E-02  0.1180000E+00
       11   -1    0    0    0    0  0.00000000000E+00  0.00000000000E+00  0.39999999673E+01  0.40000000000E+01  0.51109989000E-03 0.  1.
     -623   -1    0    0    0    0  0.00000000000E+00  0.00000000000E+00  0.12525980253E-10  0.17130000000E+03  0.17130000000E+03 0.  1.
       11    1    1    2    0    0 -0.16055339528E-02 -0.57652864750E-03  0.42185130520E-02  0.45789954032E-02  0.51109989000E-03 0.  1.
     -623    1    1    2    0    0  0.17355466716E-02 -0.17749683952E-02  0.41121991770E-03  0.17130000002E+03  0.17130000000E+03 0.  1.
      622    1    1    2    0    0 -0.13001271877E-03  0.23514970427E-02  0.39953702344E+01  0.39954209861E+01  0.20000000000E-01 0.  1.
</event>
<event>
 5   0  0.3603037E+08  0.9118800E+02  0.7818608E-02  0.1180000E+00
       11   -1    0    0    0    0  0.00000000000E+00  0.00000000000E+00  0.39999999673E+01  0.40000000000E+01  0.51109989000E-03 0. -1.
     -623   -1    0    0    0    0  0.00000000000E+00  0.00000000000E+00  0.12525980253E-10  0.17130000000E+03  0.17130000000E+03 0.  1.
       11    1    1    2    0    0  0.19540433563E-02  0.36248478823E-02  0.99221053874E-01  0.99307787007E-01  0.51109989000E-03 0. -1.
     -623    1    1    2    0    0  0.22165271811E-02 -0.27014806129E-02  0.14034836151E-03  0.17130000004E+03  0.17130000000E+03 0.  1.
      622    1    1    2    0    0 -0.41705705374E-02 -0.92336726938E-03  0.39006385651E+01  0.39006921773E+01  0.20000000000E-01 0. -1.
</event>
<event>
 5   0  0.3603037E+08  0.9118800E+02  0.7818608E-02  0.1180000E+00
       11   -1    0    0    0    0  0.00000000000E+00  0.00000000000E+00  0.39999999673E+01  0.40000000000E+01  0.51109989000E-03 0. -1.
     -623   -1    0    0    0    0  0.00000000000E+00  0.00000000000E+00  0.12525980253E-10  0.17130000000E+03  0.17130000000E+03 0.  1.
       11    1    1    2    0    0  0.13769439552E-02 -0.11064105036E-02  0.10252777985E+00  0.10254426840E+00  0.51109989000E-03 0. -1.
     -623    1    1    2    0    0  0.56903149573E-04 -0.22143035407E-03  0.68261886460E-04  0.17130000000E+03  0.17130000000E+03 0.  1.
      622    1    1    2    0    0 -0.14338471047E-02  0.13278408576E-02  0.38974039256E+01  0.38974557314E+01  0.20000000000E-01 0. -1.
</event>
<event>
 5   0  0.3603037E+08  0.9118800E+02  0.7818608E-02  0.1180000E+00
       11   -1    0    0    0    0  0.00000000000E+00  0.00000000000E+00  0.39999999673E+01  0.40000000000E+01  0.51109989000E-03 0. -1.
     -623   -1    0    0    0    0  0.00000000000E+00  0.00000000000E+00  0.12525980253E-10  0.17130000000E+03  0.17130000000E+03 0. -1.
       11    1    1    2    0    0 -0.68032613484E-03 -0.43972554201E-03  0.29811966213E-01  0.29827349097E-01  0.51109989000E-03 0. -1.
     -623    1    1    2    0    0 -0.19040348668E-03  0.66210552826E-03  0.65829317801E-04  0.17130000000E+03  0.17130000000E+03 0. -1.
      622    1    1    2    0    0  0.87072962153E-03 -0.22237998625E-03  0.39701221718E+01  0.39701726495E+01  0.20000000000E-01 0. -1.
</event>
<event>
 5   0  0.3603037E+08  0.9118800E+02  0.7818608E-02  0.1180000E+00
       11   -1    0    0    0    0  0.00000000000E+00  0.00000000000E+00  0.39999999673E+01  0.40000000000E+01  0.51109989000E-03 0. -1.
     -623   -1    0    0    0    0  0.00000000000E+00  0.00000000000E+00  0.12525980253E-10  0.17130000000E+03  0.17130000000E+03 0. -1.
       11    1    1    2    0    0 -0.35984113063E-02  0.18293125784E-02  0.51806274962E+00  0.51807872830E+00  0.51109989000E-03 0. -1.
     -623    1    1    2    0    0 -0.29667888522E-04 -0.52147911079E-04  0.75729846574E-04  0.17130000000E+03  0.17130000000E+03 0. -1.
      622    1    1    2    0    0  0.36280791948E-02 -0.17771646673E-02  0.34818614879E+01  0.34819212717E+01  0.20000000000E-01 0. -1.
</event>
<event>
 5   0  0.3603037E+08  0.9118800E+02  0.7818608E-02  0.1180000E+00
       11   -1    0    0    0    0  0.00000000000E+00  0.00000000000E+00  0.39999999673E+01  0.40000000000E+01  0.51109989000E-03 0.  1.
     -623   -1    0    0    0    0  0.00000000000E+00  0.00000000000E+00  0.12525980253E-10  0.17130000000E+03  0.17130000000E+03 0. -1.
       11    1    1    2    0    0 -0.44335728068E-02  0.40200763986E-02  0.11776233174E+01  0.11776386358E+01  0.51109989000E-03 0.  1.
     -623    1    1    2    0    0 -0.17342693259E-02 -0.14156011587E-03  0.95562785052E-04  0.17130000001E+03  0.17130000000E+03 0. -1.
      622    1    1    2    0    0  0.61678421326E-02 -0.38785162828E-02  0.28222810872E+01  0.28223613554E+01  0.20000000000E-01 0.  1.
</event>
<event>
 5   0  0.3603037E+08  0.9118800E+02  0.7818608E-02  0.1180000E+00
       11   -1    0    0    0    0  0.00000000000E+00  0.00000000000E+00  0.39999999673E+01  0.40000000000E+01  0.51109989000E-03 0. -1.
     -623   -1    0    0    0    0  0.00000000000E+00  0.00000000000E+00  0.12525980253E-10  0.17130000000E+03  0.17130000000E+03 0. -1.
       11    1    1    2    0    0  0.14900881923E-01 -0.32417361621E-02  0.14745664587E+00  0.14824395019E+00  0.51109989000E-03 0. -1.
     -623    1    1    2    0    0 -0.95660695903E-02  0.78587787708E-02  0.84610759560E-03  0.17130000045E+03  0.17130000000E+03 0. -1.
      622    1    1    2    0    0 -0.53348123324E-02 -0.46170426087E-02  0.38516972139E+01  0.38517556004E+01  0.20000000000E-01 0. -1.
</event>
<event>
 5   0  0.3603037E+08  0.9118800E+02  0.7818608E-02  0.1180000E+00
       11   -1    0    0    0    0  0.00000000000E+00  0.00000000000E+00  0.39999999673E+01  0.40000000000E+01  0.51109989000E-03 0.  1.
     -623   -1    0    0    0    0  0.00000000000E+00  0.00000000000E+00  0.12525980253E-10  0.17130000000E+03  0.17130000000E+03 0. -1.
       11    1    1    2    0    0 -0.24390891935E-01  0.17444760531E-01  0.13791296126E+01  0.13794556842E+01  0.51109989000E-03 0.  1.
     -623    1    1    2    0    0  0.42330155774E-01 -0.26763630484E-01  0.48765766465E-03  0.17130000732E+03  0.17130000000E+03 0. -1.
      622    1    1    2    0    0 -0.17939263839E-01  0.93188699524E-02  0.26203826971E+01  0.26205369942E+01  0.20000000000E-01 0.  1.
</event>
<event>
 5   0  0.3603037E+08  0.9118800E+02  0.7818608E-02  0.1180000E+00
       11   -1    0    0    0    0  0.00000000000E+00  0.00000000000E+00  0.39999999673E+01  0.40000000000E+01  0.51109989000E-03 0.  1.
     -623   -1    0    0    0    0  0.00000000000E+00  0.00000000000E+00  0.12525980253E-10  0.17130000000E+03  0.17130000000E+03 0. -1.
       11    1    1    2    0    0 -0.18152856722E-01 -0.70510352482E-02  0.66553198312E+00  0.66581703574E+00  0.51109989000E-03 0.  1.
     -623    1    1    2    0    0  0.11433754556E-01  0.38444260900E-01  0.50427092565E-03  0.17130000470E+03  0.17130000000E+03 0. -1.
      622    1    1    2    0    0  0.67191021660E-02 -0.31393225652E-01  0.33339637133E+01  0.33341782680E+01  0.20000000000E-01 0.  1.
</event>
<event>
 5   0  0.3603037E+08  0.9118800E+02  0.7818608E-02  0.1180000E+00
       11   -1    0    0    0    0  0.00000000000E+00  0.00000000000E+00  0.39999999673E+01  0.40000000000E+01  0.51109989000E-03 0. -1.
     -623   -1    0    0    0    0  0.00000000000E+00  0.00000000000E+00  0.12525980253E-10  0.17130000000E+03  0.17130000000E+03 0. -1.
       11    1    1    2    0    0  0.22393880518E-02  0.38479757378E-03  0.21101706850E+01  0.21101719703E+01  0.51109989000E-03 0. -1.
     -623    1    1    2    0    0 -0.42205518006E-03 -0.38549644413E-03  0.10796014424E-03  0.17130000000E+03  0.17130000000E+03 0. -1.
      622    1    1    2    0    0 -0.18173328717E-02  0.69887034930E-06  0.18897213222E+01  0.18898280288E+01  0.20000000000E-01 0. -1.
</event>
<event>
 5   0  0.3603037E+08  0.9118800E+02  0.7818608E-02  0.1180000E+00
       11   -1    0    0    0    0  0.00000000000E+00  0.00000000000E+00  0.39999999673E+01  0.40000000000E+01  0.51109989000E-03 0.  1.
     -623   -1    0    0    0    0  0.00000000000E+00  0.00000000000E+00  0.12525980253E-10  0.17130000000E+03  0.17130000000E+03 0.  1.
       11    1    1    2    0    0 -0.59624845784E-03  0.17995438329E-01  0.17522568449E+01  0.17523494238E+01  0.51109989000E-03 0.  1.
     -623    1    1    2    0    0 -0.25690929878E-02 -0.27442925932E-01  0.20583255964E-03  0.17130000222E+03  0.17130000000E+03 0.  1.
      622    1    1    2    0    0  0.31653414457E-02  0.94474876036E-02  0.22475372899E+01  0.22476483586E+01  0.20000000000E-01 0.  1.
</event>
<event>
 5   0  0.3603037E+08  0.9118800E+02  0.7818608E-02  0.1180000E+00
       11   -1    0    0    0    0  0.00000000000E+00  0.00000000000E+00  0.39999999673E+01  0.40000000000E+01  0.51109989000E-03 0.  1.
     -623   -1    0    0    0    0  0.00000000000E+00  0.00000000000E+00  0.12525980253E-10  0.17130000000E+03  0.17130000000E+03 0.  1.
       11    1    1    2    0    0  0.38032270553E-03 -0.30272299040E-02  0.14815691292E+00  0.14818920619E+00  0.51109989000E-03 0.  1.
     -623    1    1    2    0    0 -0.53359882133E-02  0.29963743483E-03  0.88421749596E-04  0.17130000008E+03  0.17130000000E+03 0.  1.
      622    1    1    2    0    0  0.49556655078E-02  0.27275924692E-02  0.38517546327E+01  0.38518107104E+01  0.20000000000E-01 0.  1.
</event>
<event>
 5   0  0.3603037E+08  0.9118800E+02  0.7818608E-02  0.1180000E+00
       11   -1    0    0    0    0  0.00000000000E+00  0.00000000000E+00  0.39999999673E+01  0.40000000000E+01  0.51109989000E-03 0.  1.
     -623   -1    0    0    0    0  0.00000000000E+00  0.00000000000E+00  0.12525980253E-10  0.17130000000E+03  0.17130000000E+03 0.  1.
       11    1    1    2    0    0 -0.11427038267E-02 -0.21016103654E-02  0.30586501362E-01  0.30684162444E-01  0.51109989000E-03 0.  1.
     -623    1    1    2    0    0 -0.20771681656E-03  0.29826794225E-03  0.14865510147E-03  0.17130000000E+03  0.17130000000E+03 0.  1.
      622    1    1    2    0    0  0.13504206432E-02  0.18033424232E-02  0.39692648109E+01  0.39693158371E+01  0.20000000000E-01 0.  1.
</event>
<event>
 5   0  0.3603037E+08  0.9118800E+02  0.7818608E-02  0.1180000E+00
       11   -1    0    0    0    0  0.00000000000E+00  0.00000000000E+00  0.39999999673E+01  0.40000000000E+01  0.51109989000E-03 0. -1.
     -623   -1    0    0    0    0  0.00000000000E+00  0.00000000000E+00  0.12525980253E-10  0.17130000000E+03  0.17130000000E+03 0.  1.
       11    1    1    2    0    0  0.10847545372E-01 -0.53580091155E-02  0.37213732301E+00  0.37233429321E+00  0.51109989000E-03 0. -1.
     -623    1    1    2    0    0  0.39548580106E-03  0.12009029833E-02  0.27187946078E-03  0.17130000000E+03  0.17130000000E+03 0.  1.
      622    1    1    2    0    0 -0.11243031173E-01  0.41571061322E-02  0.36275907649E+01  0.36276657019E+01  0.20000000000E-01 0. -1.
</event>
<event>
 5   0  0.3603037E+08  0.9118800E+02  0.7818608E-02  0.1180000E+00
       11   -1    0    0    0    0  0.00000000000E+00  0.00000000000E+00  0.39999999673E+01  0.40000000000E+01  0.51109989000E-03 0. -1.
     -623   -1    0    0    0    0  0.00000000000E+00  0.00000000000E+00  0.12525980253E-10  0.17130000000E+03  0.17130000000E+03 0.  1.
       11    1    1    2    0    0 -0.16129856222E-03  0.19837457890E-02  0.11091582214E-01  0.11280322822E-01  0.51109989000E-03 0. -1.
     -623    1    1    2    0    0 -0.25216048411E-03  0.16208595505E-03  0.23944875462E-03  0.17130000000E+03  0.17130000000E+03 0.  1.
      622    1    1    2    0    0  0.41345904633E-03 -0.21458317440E-02  0.39886689364E+01  0.39887196767E+01  0.20000000000E-01 0. -1.
</event>
<event>
 5   0  0.3603037E+08  0.9118800E+02  0.7818608E-02  0.1180000E+00
       11   -1    0    0    0    0  0.00000000000E+00  0.00000000000E+00  0.39999999673E+01  0.40000000000E+01  0.51109989000E-03 0. -1.
     -623   -1    0    0    0    0  0.00000000000E+00  0.00000000000E+00  0.12525980253E-10  0.17130000000E+03  0.17130000000E+03 0. -1.
       11    1    1    2    0    0 -0.27331973782E-02  0.38071673274E-03  0.14082490142E-01  0.14359424196E-01  0.51109989000E-03 0.  1.
     -623    1    1    2    0    0  0.36610997956E-02 -0.96862202018E-04  0.32723945641E-03  0.17130000004E+03  0.17130000000E+03 0. -1.
      622    1    1    2    0    0 -0.92790241734E-03 -0.28385453073E-03  0.39855902378E+01  0.39856405363E+01  0.20000000000E-01 0. -1.
</event>
<event>
 5   0  0.3603037E+08  0.9118800E+02  0.7818608E-02  0.1180000E+00
       11   -1    0    0    0    0  0.00000000000E+00  0.00000000000E+00  0.39999999673E+01  0.40000000000E+01  0.51109989000E-03 0. -1.
     -623   -1    0    0    0    0  0.00000000000E+00  0.00000000000E+00  0.12525980253E-10  0.17130000000E+03  0.17130000000E+03 0.  1.
       11    1    1    2    0    0  0.62909705917E-04 -0.16901365856E-02  0.34780842917E-02  0.39011295228E-02  0.51109989000E-03 0. -1.
     -623    1    1    2    0    0 -0.59184009785E-03 -0.11930263061E-03  0.47350810352E-03  0.17130000000E+03  0.17130000000E+03 0.  1.
      622    1    1    2    0    0  0.52893039193E-03  0.18094392162E-02  0.39960483750E+01  0.39960988688E+01  0.20000000000E-01 0. -1.
</event>
<event>
 5   0  0.3603037E+08  0.9118800E+02  0.7818608E-02  0.1180000E+00
       11   -1    0    0    0    0  0.00000000000E+00  0.00000000000E+00  0.39999999673E+01  0.40000000000E+01  0.51109989000E-03 0. -1.
     -623   -1    0    0    0    0  0.00000000000E+00  0.00000000000E+00  0.12525980253E-10  0.17130000000E+03  0.17130000000E+03 0.  1.
       11    1    1    2    0    0 -0.14722037760E-02  0.70456684059E-04  0.72031220771E-01  0.72048111250E-01  0.51109989000E-03 0. -1.
     -623    1    1    2    0    0 -0.12546990951E-04 -0.86942304039E-04  0.68055979299E-04  0.17130000000E+03  0.17130000000E+03 0.  1.
      622    1    1    2    0    0  0.14847507669E-02  0.16485619981E-04  0.39279006906E+01  0.39279518887E+01  0.20000000000E-01 0. -1.
</event>
<event>
 5   0  0.3603037E+08  0.9118800E+02  0.7818608E-02  0.1180000E+00
       11   -1    0    0    0    0  0.00000000000E+00  0.00000000000E+00  0.39999999673E+01  0.40000000000E+01  0.51109989000E-03 0.  1.
     -623   -1    0    0    0    0  0.00000000000E+00  0.00000000000E+00  0.12525980253E-10  0.17130000000E+03  0.17130000000E+03 0. -1.
       11    1    1    2    0    0 -0.18743983290E-02 -0.10313671824E-03  0.34110506072E-01  0.34165945813E-01  0.51109989000E-03 0.  1.
     -623    1    1    2    0    0  0.18392670653E-02 -0.15129839906E-02  0.10618421745E-03  0.17130000002E+03  0.17130000000E+03 0. -1.
      622    1    1    2    0    0  0.35131263702E-04  0.16161207088E-02  0.39657832771E+01  0.39658340376E+01  0.20000000000E-01 0.  1.
</event>
<event>
 5   0  0.3603037E+08  0.9118800E+02  0.7818608E-02  0.1180000E+00
       11   -1    0    0    0    0  0.00000000000E+00  0.00000000000E+00  0.39999999673E+01  0.40000000000E+01  0.51109989000E-03 0. -1.
     -623   -1    0    0    0    0  0.00000000000E+00  0.00000000000E+00  0.12525980253E-10  0.17130000000E+03  0.17130000000E+03 0. -1.
       11    1    1    2    0    0 -0.68025843002E-03  0.17390005240E-02  0.71671803317E+00  0.71672064793E+00  0.51109989000E-03 0. -1.
     -623    1    1    2    0    0  0.49610483825E-03 -0.11684601563E-02  0.63556844267E-04  0.17130000000E+03  0.17130000000E+03 0. -1.
      622    1    1    2    0    0  0.18415359178E-03 -0.57054036763E-03  0.32832183773E+01  0.32832793474E+01  0.20000000000E-01 0. -1.
</event>
<event>
 5   0  0.3603037E+08  0.9118800E+02  0.7818608E-02  0.1180000E+00
       11   -1    0    0    0    0  0.00000000000E+00  0.00000000000E+00  0.39999999673E+01  0.40000000000E+01  0.51109989000E-03 0.  1.
     -623   -1    0    0    0    0  0.00000000000E+00  0.00000000000E+00  0.12525980253E-10  0.17130000000E+03  0.17130000000E+03 0.  1.
       11    1    1    2    0    0 -0.16533991273E-02  0.38188483464E-02  0.16489627306E+00  0.16494956630E+00  0.51109989000E-03 0.  1.
     -623    1    1    2    0    0  0.19716001805E-03  0.45142027562E-04  0.10763473913E-03  0.17130000000E+03  0.17130000000E+03 0.  1.
      622    1    1    2    0    0  0.14562391092E-02 -0.38639903740E-02  0.38349960596E+01  0.38350504335E+01  0.20000000000E-01 0.  1.
</event>
<event>
 5   0  0.3603037E+08  0.9118800E+02  0.7818608E-02  0.1180000E+00
       11   -1    0    0    0    0  0.00000000000E+00  0.00000000000E+00  0.39999999673E+01  0.40000000000E+01  0.51109989000E-03 0. -1.
     -623   -1    0    0    0    0  0.00000000000E+00  0.00000000000E+00  0.12525980253E-10  0.17130000000E+03  0.17130000000E+03 0. -1.
       11    1    1    2    0    0 -0.51810104954E-02  0.16826834585E-01  0.10837873279E+01  0.10839304491E+01  0.51109989000E-03 0. -1.
     -623    1    1    2    0    0 -0.17068349879E-02  0.27174761478E-02  0.28533819295E-03  0.17130000003E+03  0.17130000000E+03 0. -1.
      622    1    1    2    0    0  0.68878454833E-02 -0.19544310733E-01  0.29159273013E+01  0.29160695206E+01  0.20000000000E-01 0. -1.
</event>
<event>
 5   0  0.3603037E+08  0.9118800E+02  0.7818608E-02  0.1180000E+00
       11   -1    0    0    0    0  0.00000000000E+00  0.00000000000E+00  0.39999999673E+01  0.40000000000E+01  0.51109989000E-03 0.  1.
     -623   -1    0    0    0    0  0.00000000000E+00  0.00000000000E+00  0.12525980253E-10  0.17130000000E+03  0.17130000000E+03 0.  1.
       11    1    1    2    0    0  0.24346930790E-03  0.45179621186E-03  0.44547482471E-02  0.45132473177E-02  0.51109989000E-03 0.  1.
     -623    1    1    2    0    0 -0.14112015045E-02 -0.97118553322E-03  0.10873622755E-03  0.17130000001E+03  0.17130000000E+03 0.  1.
      622    1    1    2    0    0  0.11677321966E-02  0.51938932136E-03  0.39954364829E+01  0.39954867441E+01  0.20000000000E-01 0.  1.
</event>
<event>
 5   0  0.3603037E+08  0.9118800E+02  0.7818608E-02  0.1180000E+00
       11   -1    0    0    0    0  0.00000000000E+00  0.00000000000E+00  0.39999999673E+01  0.40000000000E+01  0.51109989000E-03 0. -1.
     -623   -1    0    0    0    0  0.00000000000E+00  0.00000000000E+00  0.12525980253E-10  0.17130000000E+03  0.17130000000E+03 0.  1.
       11    1    1    2    0    0 -0.19353723588E-02 -0.17895025163E-02  0.10934498529E-01  0.11259327857E-01  0.51109989000E-03 0. -1.
     -623    1    1    2    0    0 -0.18108500851E-02  0.26021315816E-03  0.37700074355E-03  0.17130000001E+03  0.17130000000E+03 0.  1.
      622    1    1    2    0    0  0.37462224439E-02  0.15292893582E-02  0.39886884681E+01  0.39887406620E+01  0.20000000000E-01 0. -1.
</event>
<event>
 5   0  0.3603037E+08  0.9118800E+02  0.7818608E-02  0.1180000E+00
       11   -1    0    0    0    0  0.00000000000E+00  0.00000000000E+00  0.39999999673E+01  0.40000000000E+01  0.51109989000E-03 0. -1.
     -623   -1    0    0    0    0  0.00000000000E+00  0.00000000000E+00  0.12525980253E-10  0.17130000000E+03  0.17130000000E+03 0.  1.
       11    1    1    2    0    0  0.11701131111E-02  0.21268687284E-02  0.49921284997E-01  0.49982883589E-01  0.51109989000E-03 0. -1.
     -623    1    1    2    0    0 -0.55534428716E-02  0.27001748458E-02  0.11769187037E-03  0.17130000011E+03  0.17130000000E+03 0.  1.
      622    1    1    2    0    0  0.43833297606E-02 -0.48270435743E-02  0.39499609905E+01  0.39500170051E+01  0.20000000000E-01 0. -1.
</event>
<event>
 5   0  0.3603037E+08  0.9118800E+02  0.7818608E-02  0.1180000E+00
       11   -1    0    0    0    0  0.00000000000E+00  0.00000000000E+00  0.39999999673E+01  0.40000000000E+01  0.51109989000E-03 0.  1.
     -623   -1    0    0    0    0  0.00000000000E+00  0.00000000000E+00  0.12525980253E-10  0.17130000000E+03  0.17130000000E+03 0. -1.
       11    1    1    2    0    0  0.12701571789E-02  0.98471698901E-03  0.34024597260E-01  0.34066367698E-01  0.51109989000E-03 0. -1.
     -623    1    1    2    0    0  0.63834465278E-03  0.60490007333E-04  0.92765777330E-04  0.17130000000E+03  0.17130000000E+03 0. -1.
      622    1    1    2    0    0 -0.19085018316E-02 -0.10452069963E-02  0.39658826043E+01  0.39659336311E+01  0.20000000000E-01 0.  1.
</event>
<event>
 5   0  0.3603037E+08  0.9118800E+02  0.7818608E-02  0.1180000E+00
       11   -1    0    0    0    0  0.00000000000E+00  0.00000000000E+00  0.39999999673E+01  0.40000000000E+01  0.51109989000E-03 0.  1.
     -623   -1    0    0    0    0  0.00000000000E+00  0.00000000000E+00  0.12525980253E-10  0.17130000000E+03  0.17130000000E+03 0. -1.
       11    1    1    2    0    0  0.19708058673E-02  0.18012382763E-02  0.76995192638E-01  0.77043166116E-01  0.51109989000E-03 0.  1.
     -623    1    1    2    0    0 -0.71390489671E-03 -0.10996276559E-03  0.99490608555E-04  0.17130000000E+03  0.17130000000E+03 0. -1.
      622    1    1    2    0    0 -0.12569009706E-02 -0.16912755107E-02  0.39229052841E+01  0.39229568323E+01  0.20000000000E-01 0.  1.
</event>
<event>
 5   0  0.3603037E+08  0.9118800E+02  0.7818608E-02  0.1180000E+00
       11   -1    0    0    0    0  0.00000000000E+00  0.00000000000E+00  0.39999999673E+01  0.40000000000E+01  0.51109989000E-03 0.  1.
     -623   -1    0    0    0    0  0.00000000000E+00  0.00000000000E+00  0.12525980253E-10  0.17130000000E+03  0.17130000000E+03 0. -1.
       11    1    1    2    0    0  0.15539010084E-02 -0.88603400906E-02  0.19371176779E+01  0.19371386319E+01  0.51109989000E-03 0.  1.
     -623    1    1    2    0    0  0.27191556286E-03  0.43894635119E-03  0.13587586953E-03  0.17130000000E+03  0.17130000000E+03 0. -1.
      622    1    1    2    0    0 -0.18258165712E-02  0.84213937394E-02  0.20627464136E+01  0.20628613672E+01  0.20000000000E-01 0.  0.
</event>
<event>
 5   0  0.3603037E+08  0.9118800E+02  0.7818608E-02  0.1180000E+00
       11   -1    0    0    0    0  0.00000000000E+00  0.00000000000E+00  0.39999999673E+01  0.40000000000E+01  0.51109989000E-03 0.  1.
     -623   -1    0    0    0    0  0.00000000000E+00  0.00000000000E+00  0.12525980253E-10  0.17130000000E+03  0.17130000000E+03 0.  1.
       11    1    1    2    0    0  0.12675566784E-02  0.89396922012E-02  0.20672712635E-01  0.22564287398E-01  0.51109989000E-03 0.  1.
     -623    1    1    2    0    0 -0.71448125593E-02  0.74711344824E-02  0.19803477894E-02  0.17130000032E+03  0.17130000000E+03 0.  1.
      622    1    1    2    0    0  0.58772558809E-02 -0.16410826684E-01  0.39773469069E+01  0.39774353892E+01  0.20000000000E-01 0.  1.
</event>
<event>
 5   0  0.3603037E+08  0.9118800E+02  0.7818608E-02  0.1180000E+00
       11   -1    0    0    0    0  0.00000000000E+00  0.00000000000E+00  0.39999999673E+01  0.40000000000E+01  0.51109989000E-03 0.  1.
     -623   -1    0    0    0    0  0.00000000000E+00  0.00000000000E+00  0.12525980253E-10  0.17130000000E+03  0.17130000000E+03 0. -1.
       11    1    1    2    0    0  0.25263136563E-02  0.51792308101E-02  0.30727519343E+00  0.30732964779E+00  0.51109989000E-03 0.  1.
     -623    1    1    2    0    0  0.36545692210E-03 -0.95865558900E-03  0.11213089086E-03  0.17130000000E+03  0.17130000000E+03 0. -1.
      622    1    1    2    0    0 -0.28917705784E-02 -0.42205752211E-02  0.36926126430E+01  0.36926703491E+01  0.20000000000E-01 0.  0.
</event>
<event>
 5   0  0.3603037E+08  0.9118800E+02  0.7818608E-02  0.1180000E+00
       11   -1    0    0    0    0  0.00000000000E+00  0.00000000000E+00  0.39999999673E+01  0.40000000000E+01  0.51109989000E-03 0. -1.
     -623   -1    0    0    0    0  0.00000000000E+00  0.00000000000E+00  0.12525980253E-10  0.17130000000E+03  0.17130000000E+03 0. -1.
       11    1    1    2    0    0 -0.13036991908E-01  0.89715267338E-02  0.16343471697E+01  0.16344238691E+01  0.51109989000E-03 0. -1.
     -623    1    1    2    0    0  0.15240467621E-01 -0.91068288531E-02  0.16316453922E-03  0.17130000092E+03  0.17130000000E+03 0. -1.
      622    1    1    2    0    0 -0.22034757128E-02  0.13530211930E-03  0.23654896331E+01  0.23655752108E+01  0.20000000000E-01 0.  0.
</event>
<event>
 5   0  0.3603037E+08  0.9118800E+02  0.7818608E-02  0.1180000E+00
       11   -1    0    0    0    0  0.00000000000E+00  0.00000000000E+00  0.39999999673E+01  0.40000000000E+01  0.51109989000E-03 0. -1.
     -623   -1    0    0    0    0  0.00000000000E+00  0.00000000000E+00  0.12525980253E-10  0.17130000000E+03  0.17130000000E+03 0. -1.
       11    1    1    2    0    0  0.67505112561E-03  0.39329759088E-04  0.75209251986E-02  0.75685386928E-02  0.51109989000E-03 0.  1.
     -623    1    1    2    0    0  0.18140351702E-03  0.15715296547E-03  0.97772849725E-04  0.17130000000E+03  0.17130000000E+03 0. -1.
      622    1    1    2    0    0 -0.85645464263E-03 -0.19648272456E-03  0.39923812693E+01  0.39924314611E+01  0.20000000000E-01 0. -1.
</event>
<event>
 5   0  0.3603037E+08  0.9118800E+02  0.7818608E-02  0.1180000E+00
       11   -1    0    0    0    0  0.00000000000E+00  0.00000000000E+00  0.39999999673E+01  0.40000000000E+01  0.51109989000E-03 0. -1.
     -623   -1    0    0    0    0  0.00000000000E+00  0.00000000000E+00  0.12525980253E-10  0.17130000000E+03  0.17130000000E+03 0. -1.
       11    1    1    2    0    0 -0.67569990854E-03 -0.70863409160E-03  0.34246281233E-01  0.34264088085E-01  0.51109989000E-03 0. -1.
     -623    1    1    2    0    0  0.83887491517E-03 -0.50221338902E-03  0.68397550503E-04  0.17130000000E+03  0.17130000000E+03 0. -1.
      622    1    1    2    0    0 -0.16317500664E-03  0.12108474806E-02  0.39656852886E+01  0.39657359091E+01  0.20000000000E-01 0. -1.
</event>
<event>
 5   0  0.3603037E+08  0.9118800E+02  0.7818608E-02  0.1180000E+00
       11   -1    0    0    0    0  0.00000000000E+00  0.00000000000E+00  0.39999999673E+01  0.40000000000E+01  0.51109989000E-03 0.  1.
     -623   -1    0    0    0    0  0.00000000000E+00  0.00000000000E+00  0.12525980253E-10  0.17130000000E+03  0.17130000000E+03 0.  1.
       11    1    1    2    0    0  0.10897780433E-01 -0.11738175151E-01  0.27320115181E+01  0.27320585174E+01  0.51109989000E-03 0.  1.
     -623    1    1    2    0    0 -0.19122577673E-02  0.50241582079E-03  0.28635815564E-03  0.17130000001E+03  0.17130000000E+03 0.  1.
      622    1    1    2    0    0 -0.89855226655E-02  0.11235759330E-01  0.12677020911E+01  0.12679414710E+01  0.20000000000E-01 0. -1.
</event>
<event>
 5   0  0.3603037E+08  0.9118800E+02  0.7818608E-02  0.1180000E+00
       11   -1    0    0    0    0  0.00000000000E+00  0.00000000000E+00  0.39999999673E+01  0.40000000000E+01  0.51109989000E-03 0. -1.
     -623   -1    0    0    0    0  0.00000000000E+00  0.00000000000E+00  0.12525980253E-10  0.17130000000E+03  0.17130000000E+03 0. -1.
       11    1    1    2    0    0 -0.90623684357E-02 -0.89016383291E-03  0.15625750517E+01  0.15626016679E+01  0.51109989000E-03 0. -1.
     -623    1    1    2    0    0  0.31173621633E-04 -0.70698537956E-02  0.13851603773E-03  0.17130000015E+03  0.17130000000E+03 0. -1.
      622    1    1    2    0    0  0.90311948141E-02  0.79600176285E-02  0.24372863996E+01  0.24373981862E+01  0.20000000000E-01 0.  1.
</event>
<event>
 5   0  0.3603037E+08  0.9118800E+02  0.7818608E-02  0.1180000E+00
       11   -1    0    0    0    0  0.00000000000E+00  0.00000000000E+00  0.39999999673E+01  0.40000000000E+01  0.51109989000E-03 0. -1.
     -623   -1    0    0    0    0  0.00000000000E+00  0.00000000000E+00  0.12525980253E-10  0.17130000000E+03  0.17130000000E+03 0. -1.
       11    1    1    2    0    0 -0.39102949354E-02  0.45126907612E-02  0.12215446727E+01  0.12215593737E+01  0.51109989000E-03 0. -1.
     -623    1    1    2    0    0  0.79989833327E-04 -0.96284482287E-03  0.91562873551E-04  0.17130000000E+03  0.17130000000E+03 0. -1.
      622    1    1    2    0    0  0.38303051020E-02 -0.35498459383E-02  0.27783637318E+01  0.27784406236E+01  0.20000000000E-01 0.  0.
</event>
<event>
 5   0  0.3603037E+08  0.9118800E+02  0.7818608E-02  0.1180000E+00
       11   -1    0    0    0    0  0.00000000000E+00  0.00000000000E+00  0.39999999673E+01  0.40000000000E+01  0.51109989000E-03 0. -1.
     -623   -1    0    0    0    0  0.00000000000E+00  0.00000000000E+00  0.12525980253E-10  0.17130000000E+03  0.17130000000E+03 0. -1.
       11    1    1    2    0    0 -0.48787431916E-02 -0.88893362065E-03  0.17111349232E+01  0.17111421855E+01  0.51109989000E-03 0. -1.
     -623    1    1    2    0    0  0.25297528979E-03  0.15654410006E-03  0.99403117086E-04  0.17130000000E+03  0.17130000000E+03 0. -1.
      622    1    1    2    0    0  0.46257679018E-02  0.73238952059E-03  0.22887656411E+01  0.22888578142E+01  0.20000000000E-01 0.  1.
</event>
<event>
 5   0  0.3603037E+08  0.9118800E+02  0.7818608E-02  0.1180000E+00
       11   -1    0    0    0    0  0.00000000000E+00  0.00000000000E+00  0.39999999673E+01  0.40000000000E+01  0.51109989000E-03 0.  1.
     -623   -1    0    0    0    0  0.00000000000E+00  0.00000000000E+00  0.12525980253E-10  0.17130000000E+03  0.17130000000E+03 0. -1.
       11    1    1    2    0    0  0.35776145857E-02  0.14136596606E-02  0.13097326607E+01  0.13097384095E+01  0.51109989000E-03 0.  1.
     -623    1    1    2    0    0 -0.48116163486E-03 -0.47263151703E-03  0.82007433821E-04  0.17130000000E+03  0.17130000000E+03 0. -1.
      622    1    1    2    0    0 -0.30964529508E-02 -0.94102814359E-03  0.26901852993E+01  0.26902615891E+01  0.20000000000E-01 0.  1.
</event>
<event>
 5   0  0.3603037E+08  0.9118800E+02  0.7818608E-02  0.1180000E+00
       11   -1    0    0    0    0  0.00000000000E+00  0.00000000000E+00  0.39999999673E+01  0.40000000000E+01  0.51109989000E-03 0.  1.
     -623   -1    0    0    0    0  0.00000000000E+00  0.00000000000E+00  0.12525980253E-10  0.17130000000E+03  0.17130000000E+03 0. -1.
       11    1    1    2    0    0 -0.16766638994E-02  0.17492186399E-02  0.67398367743E-01  0.67443844519E-01  0.51109989000E-03 0.  1.
     -623    1    1    2    0    0 -0.50867720433E-03 -0.45925822962E-03  0.97122149501E-04  0.17130000000E+03  0.17130000000E+03 0. -1.
      622    1    1    2    0    0  0.21853411037E-02 -0.12899604103E-02  0.39325044775E+01  0.39325561541E+01  0.20000000000E-01 0.  1.
</event>
<event>
 5   0  0.3603037E+08  0.9118800E+02  0.7818608E-02  0.1180000E+00
       11   -1    0    0    0    0  0.00000000000E+00  0.00000000000E+00  0.39999999673E+01  0.40000000000E+01  0.51109989000E-03 0.  1.
     -623   -1    0    0    0    0  0.00000000000E+00  0.00000000000E+00  0.12525980253E-10  0.17130000000E+03  0.17130000000E+03 0.  1.
       11    1    1    2    0    0 -0.33194273337E-03  0.40463048136E-03  0.19051123484E-01  0.19065162995E-01  0.51109989000E-03 0.  1.
     -623    1    1    2    0    0  0.17320834485E-04 -0.94973554721E-03  0.64299043307E-04  0.17130000000E+03  0.17130000000E+03 0.  1.
      622    1    1    2    0    0  0.31462189888E-03  0.54510506585E-03  0.39808845448E+01  0.39809348344E+01  0.20000000000E-01 0.  1.
</event>
<event>
 5   0  0.3603037E+08  0.9118800E+02  0.7818608E-02  0.1180000E+00
       11   -1    0    0    0    0  0.00000000000E+00  0.00000000000E+00  0.39999999673E+01  0.40000000000E+01  0.51109989000E-03 0.  1.
     -623   -1    0    0    0    0  0.00000000000E+00  0.00000000000E+00  0.12525980253E-10  0.17130000000E+03  0.17130000000E+03 0.  1.
       11    1    1    2    0    0  0.81862869123E-02  0.73350777641E-02  0.11973546268E+01  0.11974051871E+01  0.51109989000E-03 0.  1.
     -623    1    1    2    0    0  0.44686029249E-03 -0.48008817137E-03  0.14357328864E-03  0.17130000000E+03  0.17130000000E+03 0.  1.
      622    1    1    2    0    0 -0.86331472048E-02 -0.68549895927E-02  0.28025017673E+01  0.28025948116E+01  0.20000000000E-01 0.  1.
</event>
<event>
 5   0  0.3603037E+08  0.9118800E+02  0.7818608E-02  0.1180000E+00
       11   -1    0    0    0    0  0.00000000000E+00  0.00000000000E+00  0.39999999673E+01  0.40000000000E+01  0.51109989000E-03 0. -1.
     -623   -1    0    0    0    0  0.00000000000E+00  0.00000000000E+00  0.12525980253E-10  0.17130000000E+03  0.17130000000E+03 0. -1.
       11    1    1    2    0    0 -0.64721565119E-03  0.15330480953E-02  0.62968125628E-01  0.62992183571E-01  0.51109989000E-03 0.  1.
     -623    1    1    2    0    0  0.26860015698E-02  0.11715002198E-02  0.76307577733E-04  0.17130000003E+03  0.17130000000E+03 0. -1.
      622    1    1    2    0    0 -0.20387859186E-02 -0.27045483151E-02  0.39369555342E+01  0.39370077913E+01  0.20000000000E-01 0. -1.
</event>
<event>
 5   0  0.3603037E+08  0.9118800E+02  0.7818608E-02  0.1180000E+00
       11   -1    0    0    0    0  0.00000000000E+00  0.00000000000E+00  0.39999999673E+01  0.40000000000E+01  0.51109989000E-03 0. -1.
     -623   -1    0    0    0    0  0.00000000000E+00  0.00000000000E+00  0.12525980253E-10  0.17130000000E+03  0.17130000000E+03 0. -1.
       11    1    1    2    0    0 -0.76135377626E-02  0.65950029245E-02  0.35306713154E+00  0.35321115585E+00  0.51109989000E-03 0. -1.
     -623    1    1    2    0    0 -0.79330942332E-04 -0.20337582487E-02  0.20981377281E-03  0.17130000001E+03  0.17130000000E+03 0. -1.
      622    1    1    2    0    0  0.76928687049E-02 -0.45612446758E-02  0.36467230220E+01  0.36467888319E+01  0.20000000000E-01 0. -1.
</event>
<event>
 5   0  0.3603037E+08  0.9118800E+02  0.7818608E-02  0.1180000E+00
       11   -1    0    0    0    0  0.00000000000E+00  0.00000000000E+00  0.39999999673E+01  0.40000000000E+01  0.51109989000E-03 0. -1.
     -623   -1    0    0    0    0  0.00000000000E+00  0.00000000000E+00  0.12525980253E-10  0.17130000000E+03  0.17130000000E+03 0. -1.
       11    1    1    2    0    0 -0.47484765112E-03 -0.26820591637E-02  0.19871103886E+00  0.19873036283E+00  0.51109989000E-03 0. -1.
     -623    1    1    2    0    0  0.41183843842E-03 -0.46328093832E-03  0.73208660934E-04  0.17130000000E+03  0.17130000000E+03 0. -1.
      622    1    1    2    0    0  0.63009212706E-04  0.31453401020E-02  0.38012157198E+01  0.38012696360E+01  0.20000000000E-01 0. -1.
</event>
<event>
 5   0  0.3603037E+08  0.9118800E+02  0.7818608E-02  0.1180000E+00
       11   -1    0    0    0    0  0.00000000000E+00  0.00000000000E+00  0.39999999673E+01  0.40000000000E+01  0.51109989000E-03 0. -1.
     -623   -1    0    0    0    0  0.00000000000E+00  0.00000000000E+00  0.12525980253E-10  0.17130000000E+03  0.17130000000E+03 0. -1.
       11    1    1    2    0    0 -0.16074386151E-01  0.19499793860E-01  0.25520927704E+01  0.25522179369E+01  0.51109989000E-03 0. -1.
     -623    1    1    2    0    0  0.18905701143E-01 -0.30204368702E-01  0.30933652085E-03  0.17130000371E+03  0.17130000000E+03 0. -1.
      622    1    1    2    0    0 -0.28313149919E-02  0.10704574842E-01  0.14475978605E+01  0.14477783566E+01  0.20000000000E-01 0. -1.
</event>
<event>
 5   0  0.3603037E+08  0.9118800E+02  0.7818608E-02  0.1180000E+00
       11   -1    0    0    0    0  0.00000000000E+00  0.00000000000E+00  0.39999999673E+01  0.40000000000E+01  0.51109989000E-03 0.  1.
     -623   -1    0    0    0    0  0.00000000000E+00  0.00000000000E+00  0.12525980253E-10  0.17130000000E+03  0.17130000000E+03 0. -1.
       11    1    1    2    0    0 -0.15430630504E-03 -0.76679139849E-03  0.51661645121E-01  0.51670093638E-01  0.51109989000E-03 0.  1.
     -623    1    1    2    0    0  0.82983699536E-04  0.60617301776E-04  0.59134367596E-04  0.17130000000E+03  0.17130000000E+03 0. -1.
      622    1    1    2    0    0  0.71322605509E-04  0.70617409671E-03  0.39482791879E+01  0.39483299063E+01  0.20000000000E-01 0.  1.
</event>
<event>
 5   0  0.3603037E+08  0.9118800E+02  0.7818608E-02  0.1180000E+00
       11   -1    0    0    0    0  0.00000000000E+00  0.00000000000E+00  0.39999999673E+01  0.40000000000E+01  0.51109989000E-03 0. -1.
     -623   -1    0    0    0    0  0.00000000000E+00  0.00000000000E+00  0.12525980253E-10  0.17130000000E+03  0.17130000000E+03 0. -1.
       11    1    1    2    0    0  0.18937377468E-01 -0.22775516553E-01  0.14548071682E+01  0.14551087610E+01  0.51109989000E-03 0. -1.
     -623    1    1    2    0    0 -0.49209709261E-03 -0.20563883420E-02  0.56817156831E-03  0.17130000001E+03  0.17130000000E+03 0. -1.
      622    1    1    2    0    0 -0.18445280375E-01  0.24831904895E-01  0.25446246276E+01  0.25448912250E+01  0.20000000000E-01 0. -1.
</event>
<event>
 5   0  0.3603037E+08  0.9118800E+02  0.7818608E-02  0.1180000E+00
       11   -1    0    0    0    0  0.00000000000E+00  0.00000000000E+00  0.39999999673E+01  0.40000000000E+01  0.51109989000E-03 0.  1.
     -623   -1    0    0    0    0  0.00000000000E+00  0.00000000000E+00  0.12525980253E-10  0.17130000000E+03  0.17130000000E+03 0. -1.
       11    1    1    2    0    0 -0.49731558668E-03  0.39522630454E-02  0.20169841693E+01  0.20169881676E+01  0.51109989000E-03 0.  1.
     -623    1    1    2    0    0  0.35081982985E-03 -0.31579656437E-03  0.10816544650E-03  0.17130000000E+03  0.17130000000E+03 0. -1.
      622    1    1    2    0    0  0.14649575684E-03 -0.36364664810E-02  0.19829076326E+01  0.19830118317E+01  0.20000000000E-01 0.  1.
</event>
<event>
 5   0  0.3603037E+08  0.9118800E+02  0.7818608E-02  0.1180000E+00
       11   -1    0    0    0    0  0.00000000000E+00  0.00000000000E+00  0.39999999673E+01  0.40000000000E+01  0.51109989000E-03 0. -1.
     -623   -1    0    0    0    0  0.00000000000E+00  0.00000000000E+00  0.12525980253E-10  0.17130000000E+03  0.17130000000E+03 0. -1.
       11    1    1    2    0    0 -0.17467010938E-02 -0.73318373626E-03  0.18693317389E-01  0.18796006477E-01  0.51109989000E-03 0. -1.
     -623    1    1    2    0    0 -0.13386604459E-02  0.38824665745E-03  0.15410907229E-03  0.17130000001E+03  0.17130000000E+03 0. -1.
      622    1    1    2    0    0  0.30853615397E-02  0.34493707881E-03  0.39811525409E+01  0.39812039878E+01  0.20000000000E-01 0. -1.
</event>
<event>
 5   0  0.3603037E+08  0.9118800E+02  0.7818608E-02  0.1180000E+00
       11   -1    0    0    0    0  0.00000000000E+00  0.00000000000E+00  0.39999999673E+01  0.40000000000E+01  0.51109989000E-03 0. -1.
     -623   -1    0    0    0    0  0.00000000000E+00  0.00000000000E+00  0.12525980253E-10  0.17130000000E+03  0.17130000000E+03 0.  1.
       11    1    1    2    0    0 -0.58398161239E-03  0.36797618625E-04  0.89067340135E-03  0.11819097265E-02  0.51109989000E-03 0. -1.
     -623    1    1    2    0    0 -0.17193297563E-03  0.82376376007E-03  0.34138523038E-03  0.17130000000E+03  0.17130000000E+03 0.  1.
      622    1    1    2    0    0  0.75591458803E-03 -0.86056137869E-03  0.39987679087E+01  0.39988180879E+01  0.20000000000E-01 0. -1.
</event>
<event>
 5   0  0.3603037E+08  0.9118800E+02  0.7818608E-02  0.1180000E+00
       11   -1    0    0    0    0  0.00000000000E+00  0.00000000000E+00  0.39999999673E+01  0.40000000000E+01  0.51109989000E-03 0.  1.
     -623   -1    0    0    0    0  0.00000000000E+00  0.00000000000E+00  0.12525980253E-10  0.17130000000E+03  0.17130000000E+03 0. -1.
       11    1    1    2    0    0 -0.63836804129E-02  0.18523572474E-02  0.29333510927E+00  0.29341085555E+00  0.51109989000E-03 0.  1.
     -623    1    1    2    0    0  0.19895093820E-02 -0.12615095851E-01  0.14837885172E-03  0.17130000048E+03  0.17130000000E+03 0. -1.
      622    1    1    2    0    0  0.43941710309E-02  0.10762738603E-01  0.37065164792E+01  0.37065886683E+01  0.20000000000E-01 0.  1.
</event>
<event>
 5   0  0.3603037E+08  0.9118800E+02  0.7818608E-02  0.1180000E+00
       11   -1    0    0    0    0  0.00000000000E+00  0.00000000000E+00  0.39999999673E+01  0.40000000000E+01  0.51109989000E-03 0.  1.
     -623   -1    0    0    0    0  0.00000000000E+00  0.00000000000E+00  0.12525980253E-10  0.17130000000E+03  0.17130000000E+03 0.  1.
       11    1    1    2    0    0  0.47693240778E-03 -0.15025989034E-02  0.33049568991E+00  0.33049984499E+00  0.51109989000E-03 0.  1.
     -623    1    1    2    0    0 -0.35825395178E-02 -0.18069365221E-03  0.60364042072E-04  0.17130000004E+03  0.17130000000E+03 0.  1.
      622    1    1    2    0    0  0.31056071100E-02  0.16832925556E-02  0.36694439134E+01  0.36695001174E+01  0.20000000000E-01 0.  1.
</event>
<event>
 5   0  0.3603037E+08  0.9118800E+02  0.7818608E-02  0.1180000E+00
       11   -1    0    0    0    0  0.00000000000E+00  0.00000000000E+00  0.39999999673E+01  0.40000000000E+01  0.51109989000E-03 0. -1.
     -623   -1    0    0    0    0  0.00000000000E+00  0.00000000000E+00  0.12525980253E-10  0.17130000000E+03  0.17130000000E+03 0.  1.
       11    1    1    2    0    0  0.25088249391E-02 -0.28146413394E-02  0.89391482560E-01  0.89472424716E-01  0.51109989000E-03 0. -1.
     -623    1    1    2    0    0  0.13126251896E-02  0.54870926274E-02  0.13492722364E-03  0.17130000009E+03  0.17130000000E+03 0.  1.
      622    1    1    2    0    0 -0.38214501287E-02 -0.26724512880E-02  0.39104735576E+01  0.39105274823E+01  0.20000000000E-01 0. -1.
</event>
<event>
 5   0  0.3603037E+08  0.9118800E+02  0.7818608E-02  0.1180000E+00
       11   -1    0    0    0    0  0.00000000000E+00  0.00000000000E+00  0.39999999673E+01  0.40000000000E+01  0.51109989000E-03 0. -1.
     -623   -1    0    0    0    0  0.00000000000E+00  0.00000000000E+00  0.12525980253E-10  0.17130000000E+03  0.17130000000E+03 0. -1.
       11    1    1    2    0    0 -0.94508571421E-03  0.10526173858E-02  0.92591614253E-01  0.92603830599E-01  0.51109989000E-03 0. -1.
     -623    1    1    2    0    0  0.13536535852E-03  0.48875369355E-04  0.63608251581E-04  0.17130000000E+03  0.17130000000E+03 0. -1.
      622    1    1    2    0    0  0.80972035569E-03 -0.11014927552E-02  0.39073447449E+01  0.39073961693E+01  0.20000000000E-01 0. -1.
</event>
<event>
 5   0  0.3603037E+08  0.9118800E+02  0.7818608E-02  0.1180000E+00
       11   -1    0    0    0    0  0.00000000000E+00  0.00000000000E+00  0.39999999673E+01  0.40000000000E+01  0.51109989000E-03 0. -1.
     -623   -1    0    0    0    0  0.00000000000E+00  0.00000000000E+00  0.12525980253E-10  0.17130000000E+03  0.17130000000E+03 0. -1.
       11    1    1    2    0    0  0.10957014398E-01  0.37415242109E-01  0.11664182130E+01  0.11670696918E+01  0.51109989000E-03 0. -1.
     -623    1    1    2    0    0 -0.78490557809E-02 -0.24803375765E-01  0.75380149870E-03  0.17130000198E+03  0.17130000000E+03 0. -1.
      622    1    1    2    0    0 -0.31079586170E-02 -0.12611866345E-01  0.28328279528E+01  0.28329283310E+01  0.20000000000E-01 0. -1.
</event>
<event>
 5   0  0.3603037E+08  0.9118800E+02  0.7818608E-02  0.1180000E+00
       11   -1    0    0    0    0  0.00000000000E+00  0.00000000000E+00  0.39999999673E+01  0.40000000000E+01  0.51109989000E-03 0. -1.
     -623   -1    0    0    0    0  0.00000000000E+00  0.00000000000E+00  0.12525980253E-10  0.17130000000E+03  0.17130000000E+03 0. -1.
       11    1    1    2    0    0  0.14671062194E-01 -0.11688019763E-01  0.27838266861E+00  0.27901437468E+00  0.51109989000E-03 0. -1.
     -623    1    1    2    0    0 -0.63177752701E-02  0.57463565453E-02  0.69975757978E-03  0.17130000021E+03  0.17130000000E+03 0. -1.
      622    1    1    2    0    0 -0.83532869243E-02  0.59416632173E-02  0.37209175412E+01  0.37209854110E+01  0.20000000000E-01 0. -1.
</event>
<event>
 5   0  0.3603037E+08  0.9118800E+02  0.7818608E-02  0.1180000E+00
       11   -1    0    0    0    0  0.00000000000E+00  0.00000000000E+00  0.39999999673E+01  0.40000000000E+01  0.51109989000E-03 0.  1.
     -623   -1    0    0    0    0  0.00000000000E+00  0.00000000000E+00  0.12525980253E-10  0.17130000000E+03  0.17130000000E+03 0.  1.
       11    1    1    2    0    0 -0.10481712757E-02  0.20545039107E-02  0.43134603904E-01  0.43199246802E-01  0.51109989000E-03 0.  1.
     -623    1    1    2    0    0 -0.92953859515E-03 -0.18400817105E-02  0.11566898211E-03  0.17130000001E+03  0.17130000000E+03 0.  1.
      622    1    1    2    0    0  0.19777098708E-02 -0.21442220021E-03  0.39567496945E+01  0.39568007408E+01  0.20000000000E-01 0.  1.
</event>
<event>
 5   0  0.3603037E+08  0.9118800E+02  0.7818608E-02  0.1180000E+00
       11   -1    0    0    0    0  0.00000000000E+00  0.00000000000E+00  0.39999999673E+01  0.40000000000E+01  0.51109989000E-03 0.  1.
     -623   -1    0    0    0    0  0.00000000000E+00  0.00000000000E+00  0.12525980253E-10  0.17130000000E+03  0.17130000000E+03 0. -1.
       11    1    1    2    0    0 -0.47780534970E-04  0.37229983494E-02  0.21807568587E+00  0.21810806722E+00  0.51109989000E-03 0.  1.
     -623    1    1    2    0    0  0.12791318303E-03  0.10133041403E-03  0.87167266400E-04  0.17130000000E+03  0.17130000000E+03 0. -1.
      622    1    1    2    0    0 -0.80132648059E-04 -0.38243287634E-02  0.37818371142E+01  0.37818919327E+01  0.20000000000E-01 0.  1.
</event>
<event>
 5   0  0.3603037E+08  0.9118800E+02  0.7818608E-02  0.1180000E+00
       11   -1    0    0    0    0  0.00000000000E+00  0.00000000000E+00  0.39999999673E+01  0.40000000000E+01  0.51109989000E-03 0. -1.
     -623   -1    0    0    0    0  0.00000000000E+00  0.00000000000E+00  0.12525980253E-10  0.17130000000E+03  0.17130000000E+03 0. -1.
       11    1    1    2    0    0  0.15433369144E-01  0.20078707537E-02  0.36556367591E+01  0.36556699244E+01  0.51109989000E-03 0. -1.
     -623    1    1    2    0    0 -0.17626330906E-01  0.35444530288E-02  0.66724825664E-03  0.17130000094E+03  0.17130000000E+03 0. -1.
      622    1    1    2    0    0  0.21929617614E-02 -0.55523237825E-02  0.34369595996E+00  0.34432913074E+00  0.20000000000E-01 0.  1.
</event>
<event>
 5   0  0.3603037E+08  0.9118800E+02  0.7818608E-02  0.1180000E+00
       11   -1    0    0    0    0  0.00000000000E+00  0.00000000000E+00  0.39999999673E+01  0.40000000000E+01  0.51109989000E-03 0.  1.
     -623   -1    0    0    0    0  0.00000000000E+00  0.00000000000E+00  0.12525980253E-10  0.17130000000E+03  0.17130000000E+03 0.  1.
       11    1    1    2    0    0 -0.12328807872E-03 -0.61905666027E-03  0.12405159651E-01  0.12431719018E-01  0.51109989000E-03 0.  1.
     -623    1    1    2    0    0  0.74156116379E-03  0.28983835734E-03  0.76746313780E-04  0.17130000000E+03  0.17130000000E+03 0.  1.
      622    1    1    2    0    0 -0.61827308506E-03  0.32921830294E-03  0.39875180614E+01  0.39875682791E+01  0.20000000000E-01 0.  1.
</event>
<event>
 5   0  0.3603037E+08  0.9118800E+02  0.7818608E-02  0.1180000E+00
       11   -1    0    0    0    0  0.00000000000E+00  0.00000000000E+00  0.39999999673E+01  0.40000000000E+01  0.51109989000E-03 0. -1.
     -623   -1    0    0    0    0  0.00000000000E+00  0.00000000000E+00  0.12525980253E-10  0.17130000000E+03  0.17130000000E+03 0. -1.
       11    1    1    2    0    0  0.11148878588E-01 -0.11555634020E-02  0.75756261922E+00  0.75764570618E+00  0.51109989000E-03 0. -1.
     -623    1    1    2    0    0 -0.10008118312E-02  0.49342958772E-03  0.16069107316E-03  0.17130000000E+03  0.17130000000E+03 0. -1.
      622    1    1    2    0    0 -0.10148066757E-01  0.66213381427E-03  0.32422766571E+01  0.32423542901E+01  0.20000000000E-01 0.  0.
</event>
<event>
 5   0  0.3603037E+08  0.9118800E+02  0.7818608E-02  0.1180000E+00
       11   -1    0    0    0    0  0.00000000000E+00  0.00000000000E+00  0.39999999673E+01  0.40000000000E+01  0.51109989000E-03 0. -1.
     -623   -1    0    0    0    0  0.00000000000E+00  0.00000000000E+00  0.12525980253E-10  0.17130000000E+03  0.17130000000E+03 0.  1.
       11    1    1    2    0    0 -0.49169277528E-02 -0.17797177697E-03  0.86939402833E-02  0.10002683187E-01  0.51109989000E-03 0. -1.
     -623    1    1    2    0    0  0.47750946586E-02 -0.10999445475E-02  0.13591185736E-02  0.17130000008E+03  0.17130000000E+03 0.  1.
      622    1    1    2    0    0  0.14183309420E-03  0.12779163245E-02  0.39899469085E+01  0.39899972413E+01  0.20000000000E-01 0. -1.
</event>
<event>
 5   0  0.3603037E+08  0.9118800E+02  0.7818608E-02  0.1180000E+00
       11   -1    0    0    0    0  0.00000000000E+00  0.00000000000E+00  0.39999999673E+01  0.40000000000E+01  0.51109989000E-03 0.  1.
     -623   -1    0    0    0    0  0.00000000000E+00  0.00000000000E+00  0.12525980253E-10  0.17130000000E+03  0.17130000000E+03 0. -1.
       11    1    1    2    0    0 -0.64578345996E-02 -0.90693167413E-02  0.12743117716E+01  0.12743605097E+01  0.51109989000E-03 0.  1.
     -623    1    1    2    0    0 -0.35125753770E-02 -0.68449381142E-03  0.15781045744E-03  0.17130000004E+03  0.17130000000E+03 0. -1.
      622    1    1    2    0    0  0.99704099767E-02  0.97538105527E-02  0.27255303853E+01  0.27256394529E+01  0.20000000000E-01 0.  0.
</event>
<event>
 5   0  0.3603037E+08  0.9118800E+02  0.7818608E-02  0.1180000E+00
       11   -1    0    0    0    0  0.00000000000E+00  0.00000000000E+00  0.39999999673E+01  0.40000000000E+01  0.51109989000E-03 0.  1.
     -623   -1    0    0    0    0  0.00000000000E+00  0.00000000000E+00  0.12525980253E-10  0.17130000000E+03  0.17130000000E+03 0. -1.
       11    1    1    2    0    0  0.90614708656E-02 -0.40706225788E-02  0.12076736073E+01  0.12077145703E+01  0.51109989000E-03 0.  1.
     -623    1    1    2    0    0  0.11369659091E-02 -0.31126802323E-02  0.14045402287E-03  0.17130000003E+03  0.17130000000E+03 0. -1.
      622    1    1    2    0    0 -0.10198436775E-01  0.71833028112E-02  0.27921859060E+01  0.27922853976E+01  0.20000000000E-01 0.  1.
</event>
<event>
 5   0  0.3603037E+08  0.9118800E+02  0.7818608E-02  0.1180000E+00
       11   -1    0    0    0    0  0.00000000000E+00  0.00000000000E+00  0.39999999673E+01  0.40000000000E+01  0.51109989000E-03 0. -1.
     -623   -1    0    0    0    0  0.00000000000E+00  0.00000000000E+00  0.12525980253E-10  0.17130000000E+03  0.17130000000E+03 0. -1.
       11    1    1    2    0    0  0.32781339961E-02  0.21516743306E-01  0.12244272221E+01  0.12246207576E+01  0.51109989000E-03 0. -1.
     -623    1    1    2    0    0 -0.61064189094E-02 -0.31409915441E-01  0.28762921014E-03  0.17130000299E+03  0.17130000000E+03 0. -1.
      622    1    1    2    0    0  0.28282849133E-02  0.98931721353E-02  0.27752851160E+01  0.27753762537E+01  0.20000000000E-01 0. -1.
</event>
<event>
 5   0  0.3603037E+08  0.9118800E+02  0.7818608E-02  0.1180000E+00
       11   -1    0    0    0    0  0.00000000000E+00  0.00000000000E+00  0.39999999673E+01  0.40000000000E+01  0.51109989000E-03 0.  1.
     -623   -1    0    0    0    0  0.00000000000E+00  0.00000000000E+00  0.12525980253E-10  0.17130000000E+03  0.17130000000E+03 0. -1.
       11    1    1    2    0    0 -0.21850248154E-01 -0.74253219645E-03  0.73585033707E+00  0.73617522676E+00  0.51109989000E-03 0.  1.
     -623    1    1    2    0    0  0.22597439739E-01 -0.91016518402E-02  0.40279983615E-03  0.17130000173E+03  0.17130000000E+03 0. -1.
      622    1    1    2    0    0 -0.74719158467E-03  0.98441840367E-02  0.32637468305E+01  0.32638230405E+01  0.20000000000E-01 0. -1.
</event>
<event>
 5   0  0.3603037E+08  0.9118800E+02  0.7818608E-02  0.1180000E+00
       11   -1    0    0    0    0  0.00000000000E+00  0.00000000000E+00  0.39999999673E+01  0.40000000000E+01  0.51109989000E-03 0. -1.
     -623   -1    0    0    0    0  0.00000000000E+00  0.00000000000E+00  0.12525980253E-10  0.17130000000E+03  0.17130000000E+03 0.  1.
       11    1    1    2    0    0 -0.26890490849E-03  0.79624205163E-03  0.59681035098E-01  0.59689140407E-01  0.51109989000E-03 0. -1.
     -623    1    1    2    0    0 -0.40636858917E-03 -0.36798497903E-03  0.58912436795E-04  0.17130000000E+03  0.17130000000E+03 0.  1.
      622    1    1    2    0    0  0.67527349767E-03 -0.42825707260E-03  0.39402600198E+01  0.39403108587E+01  0.20000000000E-01 0. -1.
</event>
<event>
 5   0  0.3603037E+08  0.9118800E+02  0.7818608E-02  0.1180000E+00
       11   -1    0    0    0    0  0.00000000000E+00  0.00000000000E+00  0.39999999673E+01  0.40000000000E+01  0.51109989000E-03 0. -1.
     -623   -1    0    0    0    0  0.00000000000E+00  0.00000000000E+00  0.12525980253E-10  0.17130000000E+03  0.17130000000E+03 0. -1.
       11    1    1    2    0    0 -0.43275572203E-02 -0.46260710293E-03  0.10577832233E+00  0.10586905333E+00  0.51109989000E-03 0. -1.
     -623    1    1    2    0    0 -0.16118299366E-03 -0.25117014937E-03  0.14471088149E-03  0.17130000000E+03  0.17130000000E+03 0. -1.
      622    1    1    2    0    0  0.44887402139E-02  0.71377725230E-03  0.38940769341E+01  0.38941309463E+01  0.20000000000E-01 0. -1.
</event>
<event>
 5   0  0.3603037E+08  0.9118800E+02  0.7818608E-02  0.1180000E+00
       11   -1    0    0    0    0  0.00000000000E+00  0.00000000000E+00  0.39999999673E+01  0.40000000000E+01  0.51109989000E-03 0.  1.
     -623   -1    0    0    0    0  0.00000000000E+00  0.00000000000E+00  0.12525980253E-10  0.17130000000E+03  0.17130000000E+03 0. -1.
       11    1    1    2    0    0 -0.99808473158E-03  0.11339834732E-01  0.63707048243E+00  0.63717238549E+00  0.51109989000E-03 0.  1.
     -623    1    1    2    0    0  0.18733732799E-01 -0.13589307345E-01  0.21043098090E-03  0.17130000156E+03  0.17130000000E+03 0. -1.
      622    1    1    2    0    0 -0.17735648067E-01  0.22494726130E-02  0.33627190539E+01  0.33628260510E+01  0.20000000000E-01 0.  1.
</event>
<event>
 5   0  0.3603037E+08  0.9118800E+02  0.7818608E-02  0.1180000E+00
       11   -1    0    0    0    0  0.00000000000E+00  0.00000000000E+00  0.39999999673E+01  0.40000000000E+01  0.51109989000E-03 0. -1.
     -623   -1    0    0    0    0  0.00000000000E+00  0.00000000000E+00  0.12525980253E-10  0.17130000000E+03  0.17130000000E+03 0. -1.
       11    1    1    2    0    0  0.13452713455E-02 -0.24234141126E-02  0.26384795759E+00  0.26386301111E+00  0.51109989000E-03 0. -1.
     -623    1    1    2    0    0 -0.37926869262E-02 -0.23635720114E-02  0.72479174969E-04  0.17130000006E+03  0.17130000000E+03 0. -1.
      622    1    1    2    0    0  0.24474155807E-02  0.47869861241E-02  0.37360795306E+01  0.37361369306E+01  0.20000000000E-01 0. -1.
</event>
<event>
 5   0  0.3603037E+08  0.9118800E+02  0.7818608E-02  0.1180000E+00
       11   -1    0    0    0    0  0.00000000000E+00  0.00000000000E+00  0.39999999673E+01  0.40000000000E+01  0.51109989000E-03 0.  1.
     -623   -1    0    0    0    0  0.00000000000E+00  0.00000000000E+00  0.12525980253E-10  0.17130000000E+03  0.17130000000E+03 0. -1.
       11    1    1    2    0    0  0.15478942924E-02 -0.13196322977E-02  0.60519867918E-01  0.60556197374E-01  0.51109989000E-03 0.  1.
     -623    1    1    2    0    0 -0.60568398040E-03  0.18731879793E-04  0.87394299944E-04  0.17130000000E+03  0.17130000000E+03 0. -1.
      622    1    1    2    0    0 -0.94221031197E-03  0.13009004179E-02  0.39393927051E+01  0.39394438015E+01  0.20000000000E-01 0.  1.
</event>
<event>
 5   0  0.3603037E+08  0.9118800E+02  0.7818608E-02  0.1180000E+00
       11   -1    0    0    0    0  0.00000000000E+00  0.00000000000E+00  0.39999999673E+01  0.40000000000E+01  0.51109989000E-03 0.  1.
     -623   -1    0    0    0    0  0.00000000000E+00  0.00000000000E+00  0.12525980253E-10  0.17130000000E+03  0.17130000000E+03 0. -1.
       11    1    1    2    0    0 -0.51931394748E-02 -0.13150352255E-02  0.62834151077E-01  0.63064171910E-01  0.51109989000E-03 0.  1.
     -623    1    1    2    0    0 -0.39807612067E-03 -0.20121972493E-03  0.28505261499E-03  0.17130000000E+03  0.17130000000E+03 0. -1.
      622    1    1    2    0    0  0.55912155955E-02  0.15162549504E-02  0.39368807637E+01  0.39369358273E+01  0.20000000000E-01 0.  1.
</event>
<event>
 5   0  0.3603037E+08  0.9118800E+02  0.7818608E-02  0.1180000E+00
       11   -1    0    0    0    0  0.00000000000E+00  0.00000000000E+00  0.39999999673E+01  0.40000000000E+01  0.51109989000E-03 0.  1.
     -623   -1    0    0    0    0  0.00000000000E+00  0.00000000000E+00  0.12525980253E-10  0.17130000000E+03  0.17130000000E+03 0.  1.
       11    1    1    2    0    0  0.12198175405E-02  0.51256477792E-01  0.13546626374E+01  0.13556326335E+01  0.51109989000E-03 0.  1.
     -623    1    1    2    0    0  0.42644981647E-02  0.93499425205E-04  0.15499796864E-02  0.17130000006E+03  0.17130000000E+03 0.  1.
      622    1    1    2    0    0 -0.54843157052E-02 -0.51349977217E-01  0.26437873503E+01  0.26443673064E+01  0.20000000000E-01 0.  1.
</event>
<event>
 5   0  0.3603037E+08  0.9118800E+02  0.7818608E-02  0.1180000E+00
       11   -1    0    0    0    0  0.00000000000E+00  0.00000000000E+00  0.39999999673E+01  0.40000000000E+01  0.51109989000E-03 0.  1.
     -623   -1    0    0    0    0  0.00000000000E+00  0.00000000000E+00  0.12525980253E-10  0.17130000000E+03  0.17130000000E+03 0.  1.
       11    1    1    2    0    0  0.77621582210E-03 -0.19039779228E-02  0.34146393580E-01  0.34212060135E-01  0.51109989000E-03 0.  1.
     -623    1    1    2    0    0 -0.18666514456E-03 -0.49712371404E-04  0.11659078158E-03  0.17130000000E+03  0.17130000000E+03 0.  1.
      622    1    1    2    0    0 -0.58955067754E-03  0.19536902942E-02  0.39657369830E+01  0.39657879397E+01  0.20000000000E-01 0.  1.
</event>
<event>
 5   0  0.3603037E+08  0.9118800E+02  0.7818608E-02  0.1180000E+00
       11   -1    0    0    0    0  0.00000000000E+00  0.00000000000E+00  0.39999999673E+01  0.40000000000E+01  0.51109989000E-03 0.  1.
     -623   -1    0    0    0    0  0.00000000000E+00  0.00000000000E+00  0.12525980253E-10  0.17130000000E+03  0.17130000000E+03 0.  1.
       11    1    1    2    0    0  0.70720723863E-02  0.38335578096E-02  0.85243673483E+00  0.85247484331E+00  0.51109989000E-03 0.  1.
     -623    1    1    2    0    0 -0.13887300481E-04  0.24468978193E-03  0.11217483998E-03  0.17130000000E+03  0.17130000000E+03 0.  1.
      622    1    1    2    0    0 -0.70581850858E-02 -0.40782475915E-02  0.31474510577E+01  0.31475251565E+01  0.20000000000E-01 0.  0.
</event>
<event>
 5   0  0.3603037E+08  0.9118800E+02  0.7818608E-02  0.1180000E+00
       11   -1    0    0    0    0  0.00000000000E+00  0.00000000000E+00  0.39999999673E+01  0.40000000000E+01  0.51109989000E-03 0.  1.
     -623   -1    0    0    0    0  0.00000000000E+00  0.00000000000E+00  0.12525980253E-10  0.17130000000E+03  0.17130000000E+03 0.  1.
       11    1    1    2    0    0  0.26790909674E-02  0.22148861245E-02  0.71633860754E-01  0.71719972650E-01  0.51109989000E-03 0.  1.
     -623    1    1    2    0    0 -0.21091125300E-03 -0.36215344098E-03  0.13820533978E-03  0.17130000000E+03  0.17130000000E+03 0.  1.
      622    1    1    2    0    0 -0.24681797144E-02 -0.18527326835E-02  0.39282279013E+01  0.39282800268E+01  0.20000000000E-01 0.  1.
</event>
<event>
 5   0  0.3603037E+08  0.9118800E+02  0.7818608E-02  0.1180000E+00
       11   -1    0    0    0    0  0.00000000000E+00  0.00000000000E+00  0.39999999673E+01  0.40000000000E+01  0.51109989000E-03 0. -1.
     -623   -1    0    0    0    0  0.00000000000E+00  0.00000000000E+00  0.12525980253E-10  0.17130000000E+03  0.17130000000E+03 0.  1.
       11    1    1    2    0    0 -0.79057825999E-03  0.76186794616E-01  0.36416295478E+00  0.37204834571E+00  0.51109989000E-03 0. -1.
     -623    1    1    2    0    0 -0.37575171331E-01 -0.25083186812E-01  0.85094928515E-02  0.17130000617E+03  0.17130000000E+03 0.  1.
      622    1    1    2    0    0  0.38365749591E-01 -0.51103607804E-01  0.36273275197E+01  0.36279454854E+01  0.20000000000E-01 0. -1.
</event>
<event>
 5   0  0.3603037E+08  0.9118800E+02  0.7818608E-02  0.1180000E+00
       11   -1    0    0    0    0  0.00000000000E+00  0.00000000000E+00  0.39999999673E+01  0.40000000000E+01  0.51109989000E-03 0. -1.
     -623   -1    0    0    0    0  0.00000000000E+00  0.00000000000E+00  0.12525980253E-10  0.17130000000E+03  0.17130000000E+03 0. -1.
       11    1    1    2    0    0  0.15811244231E-01  0.17416898549E-01  0.13620479308E+01  0.13622511409E+01  0.51109989000E-03 0. -1.
     -623    1    1    2    0    0  0.16322820511E-03  0.12618592530E-01  0.49885722092E-03  0.17130000047E+03  0.17130000000E+03 0. -1.
      622    1    1    2    0    0 -0.15974472436E-01 -0.30035491079E-01  0.26374531793E+01  0.26377483936E+01  0.20000000000E-01 0. -1.
</event>
<event>
 5   0  0.3603037E+08  0.9118800E+02  0.7818608E-02  0.1180000E+00
       11   -1    0    0    0    0  0.00000000000E+00  0.00000000000E+00  0.39999999673E+01  0.40000000000E+01  0.51109989000E-03 0. -1.
     -623   -1    0    0    0    0  0.00000000000E+00  0.00000000000E+00  0.12525980253E-10  0.17130000000E+03  0.17130000000E+03 0.  1.
       11    1    1    2    0    0  0.18606703364E-02  0.18177680820E-02  0.72266854463E+00  0.72267340686E+00  0.51109989000E-03 0. -1.
     -623    1    1    2    0    0 -0.58896591284E-02 -0.36714107111E-02  0.68996912110E-04  0.17130000014E+03  0.17130000000E+03 0.  1.
      622    1    1    2    0    0  0.40289887920E-02  0.18536426290E-02  0.32772624258E+01  0.32773264525E+01  0.20000000000E-01 0. -1.
</event>
<event>
 5   0  0.3603037E+08  0.9118800E+02  0.7818608E-02  0.1180000E+00
       11   -1    0    0    0    0  0.00000000000E+00  0.00000000000E+00  0.39999999673E+01  0.40000000000E+01  0.51109989000E-03 0.  1.
     -623   -1    0    0    0    0  0.00000000000E+00  0.00000000000E+00  0.12525980253E-10  0.17130000000E+03  0.17130000000E+03 0.  1.
       11    1    1    2    0    0 -0.43782173279E-02  0.62898532300E-02  0.15167996586E+01  0.15168191048E+01  0.51109989000E-03 0.  1.
     -623    1    1    2    0    0 -0.31493934638E-04 -0.71780330804E-04  0.11165786772E-03  0.17130000000E+03  0.17130000000E+03 0.  1.
      622    1    1    2    0    0  0.44097112625E-02 -0.62180728992E-02  0.24830886509E+01  0.24831808952E+01  0.20000000000E-01 0.  1.
</event>
<event>
 5   0  0.3603037E+08  0.9118800E+02  0.7818608E-02  0.1180000E+00
       11   -1    0    0    0    0  0.00000000000E+00  0.00000000000E+00  0.39999999673E+01  0.40000000000E+01  0.51109989000E-03 0. -1.
     -623   -1    0    0    0    0  0.00000000000E+00  0.00000000000E+00  0.12525980253E-10  0.17130000000E+03  0.17130000000E+03 0.  1.
       11    1    1    2    0    0  0.61769452219E-02 -0.36653001397E-02  0.15211279948E+01  0.15211450381E+01  0.51109989000E-03 0. -1.
     -623    1    1    2    0    0 -0.12460425437E-03 -0.38393155490E-03  0.10839113077E-03  0.17130000000E+03  0.17130000000E+03 0.  1.
      622    1    1    2    0    0 -0.60523409675E-02  0.40492316946E-02  0.24787635814E+01  0.24788549614E+01  0.20000000000E-01 0. -1.
</event>
<event>
 5   0  0.3603037E+08  0.9118800E+02  0.7818608E-02  0.1180000E+00
       11   -1    0    0    0    0  0.00000000000E+00  0.00000000000E+00  0.39999999673E+01  0.40000000000E+01  0.51109989000E-03 0. -1.
     -623   -1    0    0    0    0  0.00000000000E+00  0.00000000000E+00  0.12525980253E-10  0.17130000000E+03  0.17130000000E+03 0.  1.
       11    1    1    2    0    0 -0.74934697170E-03 -0.38766966480E-03  0.81896692572E-01  0.81902632956E-01  0.51109989000E-03 0. -1.
     -623    1    1    2    0    0  0.11177321559E-02 -0.41021066813E-03  0.57055966494E-04  0.17130000000E+03  0.17130000000E+03 0.  1.
      622    1    1    2    0    0 -0.36838518422E-03  0.79788033294E-03  0.39180462188E+01  0.39180973629E+01  0.20000000000E-01 0. -1.
</event>
<event>
 5   0  0.3603037E+08  0.9118800E+02  0.7818608E-02  0.1180000E+00
       11   -1    0    0    0    0  0.00000000000E+00  0.00000000000E+00  0.39999999673E+01  0.40000000000E+01  0.51109989000E-03 0. -1.
     -623   -1    0    0    0    0  0.00000000000E+00  0.00000000000E+00  0.12525980253E-10  0.17130000000E+03  0.17130000000E+03 0. -1.
       11    1    1    2    0    0 -0.68441315079E-03 -0.38646971613E-02  0.23615856538E+00  0.23619173045E+00  0.51109989000E-03 0. -1.
     -623    1    1    2    0    0  0.83806625427E-03 -0.12540239684E-02  0.89761008865E-04  0.17130000001E+03  0.17130000000E+03 0. -1.
      622    1    1    2    0    0 -0.15365310349E-03  0.51187211297E-02  0.37637516410E+01  0.37638082629E+01  0.20000000000E-01 0. -1.
</event>
<event>
 5   0  0.3603037E+08  0.9118800E+02  0.7818608E-02  0.1180000E+00
       11   -1    0    0    0    0  0.00000000000E+00  0.00000000000E+00  0.39999999673E+01  0.40000000000E+01  0.51109989000E-03 0. -1.
     -623   -1    0    0    0    0  0.00000000000E+00  0.00000000000E+00  0.12525980253E-10  0.17130000000E+03  0.17130000000E+03 0. -1.
       11    1    1    2    0    0  0.11900864814E-02  0.16953192461E-02  0.45634154813E+00  0.45634653519E+00  0.51109989000E-03 0. -1.
     -623    1    1    2    0    0 -0.36846106348E-03 -0.62902173740E-02  0.64584001879E-04  0.17130000012E+03  0.17130000000E+03 0. -1.
      622    1    1    2    0    0 -0.82162541787E-03  0.45948981279E-02  0.35435938352E+01  0.35436533489E+01  0.20000000000E-01 0. -1.
</event>
<event>
 5   0  0.3603037E+08  0.9118800E+02  0.7818608E-02  0.1180000E+00
       11   -1    0    0    0    0  0.00000000000E+00  0.00000000000E+00  0.39999999673E+01  0.40000000000E+01  0.51109989000E-03 0.  1.
     -623   -1    0    0    0    0  0.00000000000E+00  0.00000000000E+00  0.12525980253E-10  0.17130000000E+03  0.17130000000E+03 0. -1.
       11    1    1    2    0    0 -0.21680288573E-03  0.15824998830E-03  0.10125476871E-01  0.10141920411E-01  0.51109989000E-03 0.  1.
     -623    1    1    2    0    0 -0.20274104885E-03 -0.67680774545E-03  0.66595537460E-04  0.17130000000E+03  0.17130000000E+03 0. -1.
      622    1    1    2    0    0  0.41954393458E-03  0.51855775715E-03  0.39898078950E+01  0.39898580781E+01  0.20000000000E-01 0.  1.
</event>
<event>
 5   0  0.3603037E+08  0.9118800E+02  0.7818608E-02  0.1180000E+00
       11   -1    0    0    0    0  0.00000000000E+00  0.00000000000E+00  0.39999999673E+01  0.40000000000E+01  0.51109989000E-03 0. -1.
     -623   -1    0    0    0    0  0.00000000000E+00  0.00000000000E+00  0.12525980253E-10  0.17130000000E+03  0.17130000000E+03 0.  1.
       11    1    1    2    0    0 -0.32148279642E-03  0.56718385254E-03  0.24591481937E-01  0.24605431385E-01  0.51109989000E-03 0. -1.
     -623    1    1    2    0    0  0.90924311116E-04  0.22300357650E-04  0.64277027080E-04  0.17130000000E+03  0.17130000000E+03 0.  1.
      622    1    1    2    0    0  0.23055848530E-03 -0.58948421019E-03  0.39753442084E+01  0.39753945686E+01  0.20000000000E-01 0. -1.
</event>
<event>
 5   0  0.3603037E+08  0.9118800E+02  0.7818608E-02  0.1180000E+00
       11   -1    0    0    0    0  0.00000000000E+00  0.00000000000E+00  0.39999999673E+01  0.40000000000E+01  0.51109989000E-03 0. -1.
     -623   -1    0    0    0    0  0.00000000000E+00  0.00000000000E+00  0.12525980253E-10  0.17130000000E+03  0.17130000000E+03 0. -1.
       11    1    1    2    0    0  0.19959076905E-02  0.29168764320E-02  0.19166746519E-01  0.19496594796E-01  0.51109989000E-03 0. -1.
     -623    1    1    2    0    0 -0.95823204164E-03  0.51624999113E-03  0.38168052577E-03  0.17130000000E+03  0.17130000000E+03 0. -1.
      622    1    1    2    0    0 -0.10376756488E-02 -0.34331264232E-02  0.39804515403E+01  0.39805034013E+01  0.20000000000E-01 0. -1.
</event>
<event>
 5   0  0.3603037E+08  0.9118800E+02  0.7818608E-02  0.1180000E+00
       11   -1    0    0    0    0  0.00000000000E+00  0.00000000000E+00  0.39999999673E+01  0.40000000000E+01  0.51109989000E-03 0. -1.
     -623   -1    0    0    0    0  0.00000000000E+00  0.00000000000E+00  0.12525980253E-10  0.17130000000E+03  0.17130000000E+03 0. -1.
       11    1    1    2    0    0  0.16932872291E-01 -0.49238174808E-02  0.24949777284E+01  0.24950400984E+01  0.51109989000E-03 0. -1.
     -623    1    1    2    0    0 -0.44772640007E-03  0.26354042493E-04  0.29350668130E-03  0.17130000000E+03  0.17130000000E+03 0. -1.
      622    1    1    2    0    0 -0.16485145891E-01  0.48974634383E-02  0.15047287323E+01  0.15049599008E+01  0.20000000000E-01 0.  0.
</event>
<event>
 5   0  0.3603037E+08  0.9118800E+02  0.7818608E-02  0.1180000E+00
       11   -1    0    0    0    0  0.00000000000E+00  0.00000000000E+00  0.39999999673E+01  0.40000000000E+01  0.51109989000E-03 0.  1.
     -623   -1    0    0    0    0  0.00000000000E+00  0.00000000000E+00  0.12525980253E-10  0.17130000000E+03  0.17130000000E+03 0. -1.
       11    1    1    2    0    0 -0.29456649143E-02  0.47434693199E-03  0.28114420241E+00  0.28116049814E+00  0.51109989000E-03 0.  1.
     -623    1    1    2    0    0  0.43917899439E-02  0.29226008927E-02  0.71957609052E-04  0.17130000008E+03  0.17130000000E+03 0. -1.
      622    1    1    2    0    0 -0.14461250296E-02 -0.33969478247E-02  0.37187838073E+01  0.37188394206E+01  0.20000000000E-01 0.  1.
</event>
<event>
 5   0  0.3603037E+08  0.9118800E+02  0.7818608E-02  0.1180000E+00
       11   -1    0    0    0    0  0.00000000000E+00  0.00000000000E+00  0.39999999673E+01  0.40000000000E+01  0.51109989000E-03 0. -1.
     -623   -1    0    0    0    0  0.00000000000E+00  0.00000000000E+00  0.12525980253E-10  0.17130000000E+03  0.17130000000E+03 0. -1.
       11    1    1    2    0    0 -0.74037231152E-02 -0.12102569275E-01  0.50613463330E+00  0.50633369979E+00  0.51109989000E-03 0. -1.
     -623    1    1    2    0    0  0.10566170265E-04 -0.35180299571E-03  0.28630348807E-03  0.17130000000E+03  0.17130000000E+03 0. -1.
      622    1    1    2    0    0  0.73931569450E-02  0.12454372271E-01  0.34935790306E+01  0.34936662996E+01  0.20000000000E-01 0. -1.
</event>
<event>
 5   0  0.3603037E+08  0.9118800E+02  0.7818608E-02  0.1180000E+00
       11   -1    0    0    0    0  0.00000000000E+00  0.00000000000E+00  0.39999999673E+01  0.40000000000E+01  0.51109989000E-03 0. -1.
     -623   -1    0    0    0    0  0.00000000000E+00  0.00000000000E+00  0.12525980253E-10  0.17130000000E+03  0.17130000000E+03 0. -1.
       11    1    1    2    0    0 -0.71588775641E-03 -0.41644822275E-02  0.41498777808E-01  0.41716485807E-01  0.51109989000E-03 0. -1.
     -623    1    1    2    0    0  0.19503863143E-02  0.10759084323E-02  0.26961483032E-03  0.17130000001E+03  0.17130000000E+03 0. -1.
      622    1    1    2    0    0 -0.12344985579E-02  0.30885737952E-02  0.39582315747E+01  0.39582834995E+01  0.20000000000E-01 0. -1.
</event>
<event>
 5   0  0.3603037E+08  0.9118800E+02  0.7818608E-02  0.1180000E+00
       11   -1    0    0    0    0  0.00000000000E+00  0.00000000000E+00  0.39999999673E+01  0.40000000000E+01  0.51109989000E-03 0.  1.
     -623   -1    0    0    0    0  0.00000000000E+00  0.00000000000E+00  0.12525980253E-10  0.17130000000E+03  0.17130000000E+03 0.  1.
       11    1    1    2    0    0 -0.51447055790E-02 -0.33218686220E-02  0.23343935220E+01  0.23344016106E+01  0.51109989000E-03 0.  1.
     -623    1    1    2    0    0  0.11460661584E-01  0.24931750505E-02  0.14072101255E-03  0.17130000040E+03  0.17130000000E+03 0.  1.
      622    1    1    2    0    0 -0.63159560051E-02  0.82869357159E-03  0.16654657244E+01  0.16655979879E+01  0.20000000000E-01 0.  1.
</event>
<event>
 5   0  0.3603037E+08  0.9118800E+02  0.7818608E-02  0.1180000E+00
       11   -1    0    0    0    0  0.00000000000E+00  0.00000000000E+00  0.39999999673E+01  0.40000000000E+01  0.51109989000E-03 0.  1.
     -623   -1    0    0    0    0  0.00000000000E+00  0.00000000000E+00  0.12525980253E-10  0.17130000000E+03  0.17130000000E+03 0. -1.
       11    1    1    2    0    0  0.20979292281E-03  0.17909921332E-01  0.27955177511E+01  0.27955751764E+01  0.51109989000E-03 0.  1.
     -623    1    1    2    0    0 -0.13905384278E-03 -0.14386392459E-02  0.33611551411E-03  0.17130000001E+03  0.17130000000E+03 0. -1.
      622    1    1    2    0    0 -0.70739080029E-04 -0.16471282086E-01  0.12041461008E+01  0.12044248171E+01  0.20000000000E-01 0.  0.
</event>
<event>
 5   0  0.3603037E+08  0.9118800E+02  0.7818608E-02  0.1180000E+00
       11   -1    0    0    0    0  0.00000000000E+00  0.00000000000E+00  0.39999999673E+01  0.40000000000E+01  0.51109989000E-03 0. -1.
     -623   -1    0    0    0    0  0.00000000000E+00  0.00000000000E+00  0.12525980253E-10  0.17130000000E+03  0.17130000000E+03 0. -1.
       11    1    1    2    0    0 -0.75153054376E-03 -0.14921867982E-03  0.18434039505E+00  0.18434269590E+00  0.51109989000E-03 0. -1.
     -623    1    1    2    0    0 -0.10357546168E-04 -0.97187998862E-04  0.54768237665E-04  0.17130000000E+03  0.17130000000E+03 0. -1.
      622    1    1    2    0    0  0.76188808993E-03  0.24640667868E-03  0.38156048041E+01  0.38156573041E+01  0.20000000000E-01 0. -1.
</event>
<event>
 5   0  0.3603037E+08  0.9118800E+02  0.7818608E-02  0.1180000E+00
       11   -1    0    0    0    0  0.00000000000E+00  0.00000000000E+00  0.39999999673E+01  0.40000000000E+01  0.51109989000E-03 0. -1.
     -623   -1    0    0    0    0  0.00000000000E+00  0.00000000000E+00  0.12525980253E-10  0.17130000000E+03  0.17130000000E+03 0.  1.
       11    1    1    2    0    0 -0.11932804198E-02  0.63790970409E-05  0.15119119594E+00  0.15119676884E+00  0.51109989000E-03 0. -1.
     -623    1    1    2    0    0 -0.13502116284E-03  0.19334266141E-03  0.57739393128E-04  0.17130000000E+03  0.17130000000E+03 0.  1.
      622    1    1    2    0    0  0.13283015826E-02 -0.19972175845E-03  0.38487510320E+01  0.38488032310E+01  0.20000000000E-01 0. -1.
</event>
<event>
 5   0  0.3603037E+08  0.9118800E+02  0.7818608E-02  0.1180000E+00
       11   -1    0    0    0    0  0.00000000000E+00  0.00000000000E+00  0.39999999673E+01  0.40000000000E+01  0.51109989000E-03 0. -1.
     -623   -1    0    0    0    0  0.00000000000E+00  0.00000000000E+00  0.12525980253E-10  0.17130000000E+03  0.17130000000E+03 0.  1.
       11    1    1    2    0    0 -0.42681815948E-03 -0.10833063366E-01  0.32720852058E-01  0.34473944024E-01  0.51109989000E-03 0. -1.
     -623    1    1    2    0    0  0.29443150527E-02  0.11299222440E-01  0.18047283111E-02  0.17130000041E+03  0.17130000000E+03 0.  1.
      622    1    1    2    0    0 -0.25174968932E-02 -0.46615907423E-03  0.39654743870E+01  0.39655256485E+01  0.20000000000E-01 0. -1.
</event>
<event>
 5   0  0.3603037E+08  0.9118800E+02  0.7818608E-02  0.1180000E+00
       11   -1    0    0    0    0  0.00000000000E+00  0.00000000000E+00  0.39999999673E+01  0.40000000000E+01  0.51109989000E-03 0.  1.
     -623   -1    0    0    0    0  0.00000000000E+00  0.00000000000E+00  0.12525980253E-10  0.17130000000E+03  0.17130000000E+03 0. -1.
       11    1    1    2    0    0  0.69540943683E-03  0.21528589882E-02  0.15518786812E+00  0.15520519974E+00  0.51109989000E-03 0.  1.
     -623    1    1    2    0    0  0.57672571332E-03  0.94958582875E-05  0.70137238117E-04  0.17130000000E+03  0.17130000000E+03 0. -1.
      622    1    1    2    0    0 -0.12721351501E-02 -0.21623548465E-02  0.38447419620E+01  0.38447947993E+01  0.20000000000E-01 0.  1.
</event>
<event>
 5   0  0.3603037E+08  0.9118800E+02  0.7818608E-02  0.1180000E+00
       11   -1    0    0    0    0  0.00000000000E+00  0.00000000000E+00  0.39999999673E+01  0.40000000000E+01  0.51109989000E-03 0.  1.
     -623   -1    0    0    0    0  0.00000000000E+00  0.00000000000E+00  0.12525980253E-10  0.17130000000E+03  0.17130000000E+03 0. -1.
       11    1    1    2    0    0  0.15745411855E-01  0.37507694319E-02  0.10869771849E+01  0.10870978097E+01  0.51109989000E-03 0.  1.
     -623    1    1    2    0    0  0.72769722340E-03  0.14824060656E-02  0.24054323975E-03  0.17130000001E+03  0.17130000000E+03 0. -1.
      622    1    1    2    0    0 -0.16473109078E-01 -0.52331754975E-02  0.29127822392E+01  0.29129021821E+01  0.20000000000E-01 0.  1.
</event>
<event>
 5   0  0.3603037E+08  0.9118800E+02  0.7818608E-02  0.1180000E+00
       11   -1    0    0    0    0  0.00000000000E+00  0.00000000000E+00  0.39999999673E+01  0.40000000000E+01  0.51109989000E-03 0. -1.
     -623   -1    0    0    0    0  0.00000000000E+00  0.00000000000E+00  0.12525980253E-10  0.17130000000E+03  0.17130000000E+03 0.  1.
       11    1    1    2    0    0  0.73281676237E-02  0.66645441136E-02  0.40946908605E+00  0.40958919888E+00  0.51109989000E-03 0. -1.
     -623    1    1    2    0    0 -0.47532349053E-02 -0.57943805601E-02  0.17697738853E-03  0.17130000016E+03  0.17130000000E+03 0.  1.
      622    1    1    2    0    0 -0.25749327184E-02 -0.87016355351E-03  0.35903539039E+01  0.35904106371E+01  0.20000000000E-01 0.  0.
</event>
<event>
 5   0  0.3603037E+08  0.9118800E+02  0.7818608E-02  0.1180000E+00
       11   -1    0    0    0    0  0.00000000000E+00  0.00000000000E+00  0.39999999673E+01  0.40000000000E+01  0.51109989000E-03 0.  1.
     -623   -1    0    0    0    0  0.00000000000E+00  0.00000000000E+00  0.12525980253E-10  0.17130000000E+03  0.17130000000E+03 0.  1.
       11    1    1    2    0    0 -0.62908484925E-02 -0.36040640061E-01  0.71596319529E+00  0.71689752458E+00  0.51109989000E-03 0.  1.
     -623    1    1    2    0    0  0.15437846338E-01 -0.17258344048E-02  0.12258977794E-02  0.17130000071E+03  0.17130000000E+03 0.  1.
      622    1    1    2    0    0 -0.91469978455E-02  0.37766474466E-01  0.32828108743E+01  0.32831017667E+01  0.20000000000E-01 0.  1.
</event>
<event>
 5   0  0.3603037E+08  0.9118800E+02  0.7818608E-02  0.1180000E+00
       11   -1    0    0    0    0  0.00000000000E+00  0.00000000000E+00  0.39999999673E+01  0.40000000000E+01  0.51109989000E-03 0. -1.
     -623   -1    0    0    0    0  0.00000000000E+00  0.00000000000E+00  0.12525980253E-10  0.17130000000E+03  0.17130000000E+03 0. -1.
       11    1    1    2    0    0  0.25636112709E-02  0.41036624132E-03  0.64920980649E-01  0.64974883255E-01  0.51109989000E-03 0. -1.
     -623    1    1    2    0    0 -0.22211991819E-03 -0.14014830145E-03  0.10540205000E-03  0.17130000000E+03  0.17130000000E+03 0. -1.
      622    1    1    2    0    0 -0.23414913527E-02 -0.27021793987E-03  0.39349735847E+01  0.39350251165E+01  0.20000000000E-01 0.  0.
</event>
<event>
 5   0  0.3603037E+08  0.9118800E+02  0.7818608E-02  0.1180000E+00
       11   -1    0    0    0    0  0.00000000000E+00  0.00000000000E+00  0.39999999673E+01  0.40000000000E+01  0.51109989000E-03 0.  1.
     -623   -1    0    0    0    0  0.00000000000E+00  0.00000000000E+00  0.12525980253E-10  0.17130000000E+03  0.17130000000E+03 0. -1.
       11    1    1    2    0    0  0.60585827111E-04 -0.60510898463E-03  0.13946503372E+00  0.13946729609E+00  0.51109989000E-03 0.  1.
     -623    1    1    2    0    0  0.55329593844E-03 -0.59194734582E-03  0.54272725795E-04  0.17130000000E+03  0.17130000000E+03 0. -1.
      622    1    1    2    0    0 -0.61388176555E-03  0.11970563304E-02  0.38604806609E+01  0.38605327020E+01  0.20000000000E-01 0.  1.
</event>
<event>
 5   0  0.3603037E+08  0.9118800E+02  0.7818608E-02  0.1180000E+00
       11   -1    0    0    0    0  0.00000000000E+00  0.00000000000E+00  0.39999999673E+01  0.40000000000E+01  0.51109989000E-03 0.  1.
     -623   -1    0    0    0    0  0.00000000000E+00  0.00000000000E+00  0.12525980253E-10  0.17130000000E+03  0.17130000000E+03 0.  1.
       11    1    1    2    0    0  0.85891275839E-02 -0.91015232941E-02  0.96630194578E+00  0.96638311371E+00  0.51109989000E-03 0.  1.
     -623    1    1    2    0    0 -0.34189446624E-02  0.10751866621E-01  0.15229032034E-03  0.17130000037E+03  0.17130000000E+03 0.  1.
      622    1    1    2    0    0 -0.51701829215E-02 -0.16503433274E-02  0.30335457313E+01  0.30336165147E+01  0.20000000000E-01 0.  1.
</event>
<event>
 5   0  0.3603037E+08  0.9118800E+02  0.7818608E-02  0.1180000E+00
       11   -1    0    0    0    0  0.00000000000E+00  0.00000000000E+00  0.39999999673E+01  0.40000000000E+01  0.51109989000E-03 0.  1.
     -623   -1    0    0    0    0  0.00000000000E+00  0.00000000000E+00  0.12525980253E-10  0.17130000000E+03  0.17130000000E+03 0.  1.
       11    1    1    2    0    0  0.30058397653E-02  0.31930045212E-02  0.82395748349E+00  0.82396931143E+00  0.51109989000E-03 0.  1.
     -623    1    1    2    0    0 -0.22779230867E-03  0.44303352018E-03  0.78064715978E-04  0.17130000000E+03  0.17130000000E+03 0.  1.
      622    1    1    2    0    0 -0.27780474566E-02 -0.36360380414E-02  0.31759644192E+01  0.31760306878E+01  0.20000000000E-01 0.  1.
</event>
<event>
 5   0  0.3603037E+08  0.9118800E+02  0.7818608E-02  0.1180000E+00
       11   -1    0    0    0    0  0.00000000000E+00  0.00000000000E+00  0.39999999673E+01  0.40000000000E+01  0.51109989000E-03 0. -1.
     -623   -1    0    0    0    0  0.00000000000E+00  0.00000000000E+00  0.12525980253E-10  0.17130000000E+03  0.17130000000E+03 0.  1.
       11    1    1    2    0    0 -0.10610574602E-01 -0.23274714440E-01  0.11691788006E+01  0.11694586892E+01  0.51109989000E-03 0. -1.
     -623    1    1    2    0    0 -0.52705978347E-02 -0.27079219553E-02  0.51443093442E-03  0.17130000010E+03  0.17130000000E+03 0.  1.
      622    1    1    2    0    0  0.15881172437E-01  0.25982636395E-01  0.28303067358E+01  0.28305412075E+01  0.20000000000E-01 0. -1.
</event>
<event>
 5   0  0.3603037E+08  0.9118800E+02  0.7818608E-02  0.1180000E+00
       11   -1    0    0    0    0  0.00000000000E+00  0.00000000000E+00  0.39999999673E+01  0.40000000000E+01  0.51109989000E-03 0. -1.
     -623   -1    0    0    0    0  0.00000000000E+00  0.00000000000E+00  0.12525980253E-10  0.17130000000E+03  0.17130000000E+03 0.  1.
       11    1    1    2    0    0 -0.58957080957E-02  0.17026898698E-01  0.16914024986E+00  0.17009808934E+00  0.51109989000E-03 0. -1.
     -623    1    1    2    0    0 -0.38833559650E-02 -0.83442738031E-02  0.10326052793E-02  0.17130000025E+03  0.17130000000E+03 0.  1.
      622    1    1    2    0    0  0.97790640606E-02 -0.86826248947E-02  0.38298271122E+01  0.38299016603E+01  0.20000000000E-01 0. -1.
</event>
<event>
 5   0  0.3603037E+08  0.9118800E+02  0.7818608E-02  0.1180000E+00
       11   -1    0    0    0    0  0.00000000000E+00  0.00000000000E+00  0.39999999673E+01  0.40000000000E+01  0.51109989000E-03 0.  1.
     -623   -1    0    0    0    0  0.00000000000E+00  0.00000000000E+00  0.12525980253E-10  0.17130000000E+03  0.17130000000E+03 0. -1.
       11    1    1    2    0    0  0.15657911342E-02  0.44648508254E-02  0.90210491557E-01  0.90335931956E-01  0.51109989000E-03 0.  1.
     -623    1    1    2    0    0  0.62813763158E-02 -0.22007516473E-02  0.18522358883E-03  0.17130000013E+03  0.17130000000E+03 0. -1.
      622    1    1    2    0    0 -0.78471674500E-02 -0.22640991781E-02  0.39096042522E+01  0.39096639386E+01  0.20000000000E-01 0.  1.
</event>
<event>
 5   0  0.3603037E+08  0.9118800E+02  0.7818608E-02  0.1180000E+00
       11   -1    0    0    0    0  0.00000000000E+00  0.00000000000E+00  0.39999999673E+01  0.40000000000E+01  0.51109989000E-03 0. -1.
     -623   -1    0    0    0    0  0.00000000000E+00  0.00000000000E+00  0.12525980253E-10  0.17130000000E+03  0.17130000000E+03 0. -1.
       11    1    1    2    0    0  0.57251056234E-03  0.81190863795E-03  0.13877718289E-02  0.17815991710E-02  0.51109989000E-03 0. -1.
     -623    1    1    2    0    0  0.77368030661E-03 -0.10941563312E-02  0.44405970711E-03  0.17130000001E+03  0.17130000000E+03 0. -1.
      622    1    1    2    0    0 -0.13461908689E-02  0.28224769329E-03  0.39981681358E+01  0.39982183950E+01  0.20000000000E-01 0. -1.
</event>
<event>
 5   0  0.3603037E+08  0.9118800E+02  0.7818608E-02  0.1180000E+00
       11   -1    0    0    0    0  0.00000000000E+00  0.00000000000E+00  0.39999999673E+01  0.40000000000E+01  0.51109989000E-03 0. -1.
     -623   -1    0    0    0    0  0.00000000000E+00  0.00000000000E+00  0.12525980253E-10  0.17130000000E+03  0.17130000000E+03 0. -1.
       11    1    1    2    0    0 -0.42028216089E-02 -0.84052972989E-02  0.54935271843E+00  0.54943332917E+00  0.51109989000E-03 0. -1.
     -623    1    1    2    0    0  0.44646984009E-04  0.21322581725E-02  0.14676112209E-03  0.17130000001E+03  0.17130000000E+03 0. -1.
      622    1    1    2    0    0  0.41581746249E-02  0.62730391264E-02  0.34505004878E+01  0.34505666575E+01  0.20000000000E-01 0. -1.
</event>
<event>
 5   0  0.3603037E+08  0.9118800E+02  0.7818608E-02  0.1180000E+00
       11   -1    0    0    0    0  0.00000000000E+00  0.00000000000E+00  0.39999999673E+01  0.40000000000E+01  0.51109989000E-03 0. -1.
     -623   -1    0    0    0    0  0.00000000000E+00  0.00000000000E+00  0.12525980253E-10  0.17130000000E+03  0.17130000000E+03 0. -1.
       11    1    1    2    0    0 -0.10271325078E-01  0.12696092767E-01  0.97444977219E+00  0.97458673839E+00  0.51109989000E-03 0. -1.
     -623    1    1    2    0    0 -0.12593772408E-02 -0.19087760963E-02  0.24426239992E-03  0.17130000002E+03  0.17130000000E+03 0. -1.
      622    1    1    2    0    0  0.11530702318E-01 -0.10787316671E-01  0.30253059328E+01  0.30254132462E+01  0.20000000000E-01 0. -1.
</event>
<event>
 5   0  0.3603037E+08  0.9118800E+02  0.7818608E-02  0.1180000E+00
       11   -1    0    0    0    0  0.00000000000E+00  0.00000000000E+00  0.39999999673E+01  0.40000000000E+01  0.51109989000E-03 0.  1.
     -623   -1    0    0    0    0  0.00000000000E+00  0.00000000000E+00  0.12525980253E-10  0.17130000000E+03  0.17130000000E+03 0. -1.
       11    1    1    2    0    0 -0.12968977109E-02  0.30126678365E-03  0.10770085717E+00  0.10771029923E+00  0.51109989000E-03 0.  1.
     -623    1    1    2    0    0 -0.20769746908E-03  0.12447712083E-03  0.61107681218E-04  0.17130000000E+03  0.17130000000E+03 0. -1.
      622    1    1    2    0    0  0.15045951800E-02 -0.42574390448E-03  0.38922380025E+01  0.38922897006E+01  0.20000000000E-01 0.  1.
</event>
<event>
 5   0  0.3603037E+08  0.9118800E+02  0.7818608E-02  0.1180000E+00
       11   -1    0    0    0    0  0.00000000000E+00  0.00000000000E+00  0.39999999673E+01  0.40000000000E+01  0.51109989000E-03 0.  1.
     -623   -1    0    0    0    0  0.00000000000E+00  0.00000000000E+00  0.12525980253E-10  0.17130000000E+03  0.17130000000E+03 0. -1.
       11    1    1    2    0    0  0.11218025282E-02  0.68027421689E-03  0.33438811700E+00  0.33439108126E+00  0.51109989000E-03 0.  1.
     -623    1    1    2    0    0  0.38587623087E-02  0.11688810425E-03  0.61007082603E-04  0.17130000004E+03  0.17130000000E+03 0. -1.
      622    1    1    2    0    0 -0.49805648369E-02 -0.79716232114E-03  0.36655508433E+01  0.36656088752E+01  0.20000000000E-01 0.  1.
</event>
<event>
 5   0  0.3603037E+08  0.9118800E+02  0.7818608E-02  0.1180000E+00
       11   -1    0    0    0    0  0.00000000000E+00  0.00000000000E+00  0.39999999673E+01  0.40000000000E+01  0.51109989000E-03 0.  1.
     -623   -1    0    0    0    0  0.00000000000E+00  0.00000000000E+00  0.12525980253E-10  0.17130000000E+03  0.17130000000E+03 0. -1.
       11    1    1    2    0    0 -0.21673020816E-03  0.50831729451E-03  0.13587757269E-01  0.13608590214E-01  0.51109989000E-03 0.  1.
     -623    1    1    2    0    0  0.16231512778E-02  0.32604231101E-03  0.71314741366E-04  0.17130000001E+03  0.17130000000E+03 0. -1.
      622    1    1    2    0    0 -0.14064210697E-02 -0.83435960552E-03  0.39863408953E+01  0.39863914018E+01  0.20000000000E-01 0.  1.
</event>
<event>
 5   0  0.3603037E+08  0.9118800E+02  0.7818608E-02  0.1180000E+00
       11   -1    0    0    0    0  0.00000000000E+00  0.00000000000E+00  0.39999999673E+01  0.40000000000E+01  0.51109989000E-03 0.  1.
     -623   -1    0    0    0    0  0.00000000000E+00  0.00000000000E+00  0.12525980253E-10  0.17130000000E+03  0.17130000000E+03 0. -1.
       11    1    1    2    0    0  0.79885581889E-02  0.44462050138E-02  0.60743091965E+00  0.60749993347E+00  0.51109989000E-03 0.  1.
     -623    1    1    2    0    0 -0.53777795045E-02  0.20745894696E-02  0.13530390499E-03  0.17130000010E+03  0.17130000000E+03 0. -1.
      622    1    1    2    0    0 -0.26107786843E-02 -0.65207944835E-02  0.33924337438E+01  0.33924999695E+01  0.20000000000E-01 0.  1.
</event>
<event>
 5   0  0.3603037E+08  0.9118800E+02  0.7818608E-02  0.1180000E+00
       11   -1    0    0    0    0  0.00000000000E+00  0.00000000000E+00  0.39999999673E+01  0.40000000000E+01  0.51109989000E-03 0. -1.
     -623   -1    0    0    0    0  0.00000000000E+00  0.00000000000E+00  0.12525980253E-10  0.17130000000E+03  0.17130000000E+03 0.  1.
       11    1    1    2    0    0  0.44956299282E-02 -0.69990567175E-02  0.12579003671E-01  0.15089401542E-01  0.51109989000E-03 0. -1.
     -623    1    1    2    0    0 -0.35051396999E-02  0.38213339580E-02  0.25620426591E-02  0.17130000010E+03  0.17130000000E+03 0.  1.
      622    1    1    2    0    0 -0.99049022823E-03  0.31777227596E-02  0.39848589210E+01  0.39849105008E+01  0.20000000000E-01 0. -1.
</event>
<event>
 5   0  0.3603037E+08  0.9118800E+02  0.7818608E-02  0.1180000E+00
       11   -1    0    0    0    0  0.00000000000E+00  0.00000000000E+00  0.39999999673E+01  0.40000000000E+01  0.51109989000E-03 0.  1.
     -623   -1    0    0    0    0  0.00000000000E+00  0.00000000000E+00  0.12525980253E-10  0.17130000000E+03  0.17130000000E+03 0. -1.
       11    1    1    2    0    0  0.21757923364E-02  0.29486875219E-02  0.23428155695E+00  0.23431077223E+00  0.51109989000E-03 0.  1.
     -623    1    1    2    0    0  0.11693255076E-02 -0.69758558525E-03  0.84458203660E-04  0.17130000001E+03  0.17130000000E+03 0. -1.
      622    1    1    2    0    0 -0.33451178440E-02 -0.22511019367E-02  0.37656339522E+01  0.37656892223E+01  0.20000000000E-01 0.  1.
</event>
<event>
 5   0  0.3603037E+08  0.9118800E+02  0.7818608E-02  0.1180000E+00
       11   -1    0    0    0    0  0.00000000000E+00  0.00000000000E+00  0.39999999673E+01  0.40000000000E+01  0.51109989000E-03 0. -1.
     -623   -1    0    0    0    0  0.00000000000E+00  0.00000000000E+00  0.12525980253E-10  0.17130000000E+03  0.17130000000E+03 0.  1.
       11    1    1    2    0    0 -0.11479056059E-01  0.18507158262E-02  0.77922816147E+00  0.77931507282E+00  0.51109989000E-03 0. -1.
     -623    1    1    2    0    0  0.12970492668E-02  0.39612987101E-02  0.17036824190E-03  0.17130000005E+03  0.17130000000E+03 0.  1.
      622    1    1    2    0    0  0.10182006792E-01 -0.58120145363E-02  0.32206014376E+01  0.32206848764E+01  0.20000000000E-01 0. -1.
</event>
<event>
 5   0  0.3603037E+08  0.9118800E+02  0.7818608E-02  0.1180000E+00
       11   -1    0    0    0    0  0.00000000000E+00  0.00000000000E+00  0.39999999673E+01  0.40000000000E+01  0.51109989000E-03 0. -1.
     -623   -1    0    0    0    0  0.00000000000E+00  0.00000000000E+00  0.12525980253E-10  0.17130000000E+03  0.17130000000E+03 0.  1.
       11    1    1    2    0    0 -0.38163181021E-02  0.16660230907E-03  0.13981846997E+00  0.13987157612E+00  0.51109989000E-03 0. -1.
     -623    1    1    2    0    0  0.55294814305E-04  0.32666439497E-03  0.10674973837E-03  0.17130000000E+03  0.17130000000E+03 0.  1.
      622    1    1    2    0    0  0.37610232878E-02 -0.49326670403E-03  0.38600747477E+01  0.38601284235E+01  0.20000000000E-01 0. -1.
</event>
<event>
 5   0  0.3603037E+08  0.9118800E+02  0.7818608E-02  0.1180000E+00
       11   -1    0    0    0    0  0.00000000000E+00  0.00000000000E+00  0.39999999673E+01  0.40000000000E+01  0.51109989000E-03 0.  1.
     -623   -1    0    0    0    0  0.00000000000E+00  0.00000000000E+00  0.12525980253E-10  0.17130000000E+03  0.17130000000E+03 0.  1.
       11    1    1    2    0    0  0.26224475377E-01  0.11814797892E-01  0.94815245366E+00  0.94858876715E+00  0.51109989000E-03 0.  1.
     -623    1    1    2    0    0 -0.24257030475E-01 -0.23703755368E-02  0.51881004432E-03  0.17130000173E+03  0.17130000000E+03 0.  1.
      622    1    1    2    0    0 -0.19674449020E-02 -0.94444223548E-02  0.30513287037E+01  0.30514094982E+01  0.20000000000E-01 0.  1.
</event>
<event>
 5   0  0.3603037E+08  0.9118800E+02  0.7818608E-02  0.1180000E+00
       11   -1    0    0    0    0  0.00000000000E+00  0.00000000000E+00  0.39999999673E+01  0.40000000000E+01  0.51109989000E-03 0.  1.
     -623   -1    0    0    0    0  0.00000000000E+00  0.00000000000E+00  0.12525980253E-10  0.17130000000E+03  0.17130000000E+03 0.  1.
       11    1    1    2    0    0  0.30279436538E-02 -0.24411159851E-01  0.11282002543E+01  0.11284684967E+01  0.51109989000E-03 0.  1.
     -623    1    1    2    0    0 -0.33804506554E-02  0.94496082628E-03  0.43380505968E-03  0.17130000004E+03  0.17130000000E+03 0.  1.
      622    1    1    2    0    0  0.35250700151E-03  0.23466199025E-01  0.28713659080E+01  0.28715314668E+01  0.20000000000E-01 0.  1.
</event>
<event>
 5   0  0.3603037E+08  0.9118800E+02  0.7818608E-02  0.1180000E+00
       11   -1    0    0    0    0  0.00000000000E+00  0.00000000000E+00  0.39999999673E+01  0.40000000000E+01  0.51109989000E-03 0.  1.
     -623   -1    0    0    0    0  0.00000000000E+00  0.00000000000E+00  0.12525980253E-10  0.17130000000E+03  0.17130000000E+03 0. -1.
       11    1    1    2    0    0 -0.51796472858E-02  0.12516259314E-01  0.16522955252E+01  0.16523511277E+01  0.51109989000E-03 0.  1.
     -623    1    1    2    0    0 -0.11765686236E-02  0.77977833007E-03  0.18702719013E-03  0.17130000001E+03  0.17130000000E+03 0. -1.
      622    1    1    2    0    0  0.63562159094E-02 -0.13296037644E-01  0.23475174150E+01  0.23476488663E+01  0.20000000000E-01 0.  0.
</event>
<event>
 5   0  0.3603037E+08  0.9118800E+02  0.7818608E-02  0.1180000E+00
       11   -1    0    0    0    0  0.00000000000E+00  0.00000000000E+00  0.39999999673E+01  0.40000000000E+01  0.51109989000E-03 0. -1.
     -623   -1    0    0    0    0  0.00000000000E+00  0.00000000000E+00  0.12525980253E-10  0.17130000000E+03  0.17130000000E+03 0. -1.
       11    1    1    2    0    0 -0.85047392556E-02  0.56179024781E-02  0.17389356039E+01  0.17389655509E+01  0.51109989000E-03 0. -1.
     -623    1    1    2    0    0  0.16957676412E-03 -0.16935012508E-04  0.14067308760E-03  0.17130000000E+03  0.17130000000E+03 0. -1.
      622    1    1    2    0    0  0.83351624915E-02 -0.56009674656E-02  0.22609236903E+01  0.22610344489E+01  0.20000000000E-01 0. -1.
</event>
<event>
 5   0  0.3603037E+08  0.9118800E+02  0.7818608E-02  0.1180000E+00
       11   -1    0    0    0    0  0.00000000000E+00  0.00000000000E+00  0.39999999673E+01  0.40000000000E+01  0.51109989000E-03 0.  1.
     -623   -1    0    0    0    0  0.00000000000E+00  0.00000000000E+00  0.12525980253E-10  0.17130000000E+03  0.17130000000E+03 0.  1.
       11    1    1    2    0    0 -0.86565337672E-02  0.33051782273E-01  0.21586595201E+01  0.21589299527E+01  0.51109989000E-03 0.  1.
     -623    1    1    2    0    0  0.25541119789E-01 -0.41220540732E-01  0.48145598645E-03  0.17130000686E+03  0.17130000000E+03 0.  1.
      622    1    1    2    0    0 -0.16884586022E-01  0.81687584581E-02  0.18408589913E+01  0.18410631830E+01  0.20000000000E-01 0.  1.
</event>
<event>
 5   0  0.3603037E+08  0.9118800E+02  0.7818608E-02  0.1180000E+00
       11   -1    0    0    0    0  0.00000000000E+00  0.00000000000E+00  0.39999999673E+01  0.40000000000E+01  0.51109989000E-03 0. -1.
     -623   -1    0    0    0    0  0.00000000000E+00  0.00000000000E+00  0.12525980253E-10  0.17130000000E+03  0.17130000000E+03 0.  1.
       11    1    1    2    0    0  0.17675268924E-02  0.14826286381E-01  0.16763427590E+01  0.16764093325E+01  0.51109989000E-03 0. -1.
     -623    1    1    2    0    0 -0.11036643110E-01 -0.51045536998E-02  0.19187491585E-03  0.17130000043E+03  0.17130000000E+03 0.  1.
      622    1    1    2    0    0  0.92691162173E-02 -0.97217326810E-02  0.23234653334E+01  0.23235902358E+01  0.20000000000E-01 0. -1.
</event>
<event>
 5   0  0.3603037E+08  0.9118800E+02  0.7818608E-02  0.1180000E+00
       11   -1    0    0    0    0  0.00000000000E+00  0.00000000000E+00  0.39999999673E+01  0.40000000000E+01  0.51109989000E-03 0. -1.
     -623   -1    0    0    0    0  0.00000000000E+00  0.00000000000E+00  0.12525980253E-10  0.17130000000E+03  0.17130000000E+03 0.  1.
       11    1    1    2    0    0  0.33752676583E-02 -0.15268301810E-01  0.57535910487E-01  0.59625126323E-01  0.51109989000E-03 0. -1.
     -623    1    1    2    0    0 -0.60747860303E-02  0.34464018166E-02  0.21587551105E-02  0.17130000016E+03  0.17130000000E+03 0.  1.
      622    1    1    2    0    0  0.26995183720E-02  0.11821899993E-01  0.39403053018E+01  0.39403747177E+01  0.20000000000E-01 0. -1.
</event>
<event>
 5   0  0.3603037E+08  0.9118800E+02  0.7818608E-02  0.1180000E+00
       11   -1    0    0    0    0  0.00000000000E+00  0.00000000000E+00  0.39999999673E+01  0.40000000000E+01  0.51109989000E-03 0. -1.
     -623   -1    0    0    0    0  0.00000000000E+00  0.00000000000E+00  0.12525980253E-10  0.17130000000E+03  0.17130000000E+03 0. -1.
       11    1    1    2    0    0  0.62594825035E-03  0.59799838194E-03  0.55328958985E-02  0.56234839102E-02  0.51109989000E-03 0. -1.
     -623    1    1    2    0    0 -0.86587445894E-04  0.38482987737E-03  0.14078392090E-03  0.17130000000E+03  0.17130000000E+03 0. -1.
      622    1    1    2    0    0 -0.53936080446E-03 -0.98282825931E-03  0.39943262875E+01  0.39943765156E+01  0.20000000000E-01 0. -1.
</event>
<event>
 5   0  0.3603037E+08  0.9118800E+02  0.7818608E-02  0.1180000E+00
       11   -1    0    0    0    0  0.00000000000E+00  0.00000000000E+00  0.39999999673E+01  0.40000000000E+01  0.51109989000E-03 0. -1.
     -623   -1    0    0    0    0  0.00000000000E+00  0.00000000000E+00  0.12525980253E-10  0.17130000000E+03  0.17130000000E+03 0.  1.
       11    1    1    2    0    0  0.46701571017E-01  0.44598423261E-01  0.65189661159E+00  0.65508740602E+00  0.51109989000E-03 0. -1.
     -623    1    1    2    0    0 -0.10834404679E-02 -0.15015902318E-01  0.36931790769E-02  0.17130000070E+03  0.17130000000E+03 0.  1.
      622    1    1    2    0    0 -0.45618130549E-01 -0.29582520943E-01  0.33444101767E+01  0.33449118926E+01  0.20000000000E-01 0. -1.
</event>
<event>
 5   0  0.3603037E+08  0.9118800E+02  0.7818608E-02  0.1180000E+00
       11   -1    0    0    0    0  0.00000000000E+00  0.00000000000E+00  0.39999999673E+01  0.40000000000E+01  0.51109989000E-03 0. -1.
     -623   -1    0    0    0    0  0.00000000000E+00  0.00000000000E+00  0.12525980253E-10  0.17130000000E+03  0.17130000000E+03 0.  1.
       11    1    1    2    0    0 -0.53305023461E-02 -0.27918188032E-02  0.23798277117E+00  0.23805938146E+00  0.51109989000E-03 0. -1.
     -623    1    1    2    0    0 -0.25331792927E-03  0.10370084915E-02  0.13429881202E-03  0.17130000000E+03  0.17130000000E+03 0.  1.
      622    1    1    2    0    0  0.55838202754E-02  0.17548103117E-02  0.37618828974E+01  0.37619406152E+01  0.20000000000E-01 0. -1.
</event>
<event>
 5   0  0.3603037E+08  0.9118800E+02  0.7818608E-02  0.1180000E+00
       11   -1    0    0    0    0  0.00000000000E+00  0.00000000000E+00  0.39999999673E+01  0.40000000000E+01  0.51109989000E-03 0. -1.
     -623   -1    0    0    0    0  0.00000000000E+00  0.00000000000E+00  0.12525980253E-10  0.17130000000E+03  0.17130000000E+03 0. -1.
       11    1    1    2    0    0  0.22543570927E-01  0.21289363969E-01  0.74714893598E+00  0.74779224612E+00  0.51109989000E-03 0. -1.
     -623    1    1    2    0    0 -0.30957488858E-02 -0.29818603304E-01  0.77673420276E-03  0.17130000263E+03  0.17130000000E+03 0. -1.
      622    1    1    2    0    0 -0.19447822041E-01  0.85292393352E-02  0.32520742972E+01  0.32522051288E+01  0.20000000000E-01 0. -1.
</event>
<event>
 5   0  0.3603037E+08  0.9118800E+02  0.7818608E-02  0.1180000E+00
       11   -1    0    0    0    0  0.00000000000E+00  0.00000000000E+00  0.39999999673E+01  0.40000000000E+01  0.51109989000E-03 0. -1.
     -623   -1    0    0    0    0  0.00000000000E+00  0.00000000000E+00  0.12525980253E-10  0.17130000000E+03  0.17130000000E+03 0.  1.
       11    1    1    2    0    0  0.55513041012E-03  0.44829865354E-04  0.12093594216E-01  0.12117195310E-01  0.51109989000E-03 0. -1.
     -623    1    1    2    0    0 -0.13001389053E-03  0.21696821973E-03  0.73752149654E-04  0.17130000000E+03  0.17130000000E+03 0.  1.
      622    1    1    2    0    0 -0.42511651959E-03 -0.26179808509E-03  0.39878326210E+01  0.39878828045E+01  0.20000000000E-01 0. -1.
</event>
<event>
 5   0  0.3603037E+08  0.9118800E+02  0.7818608E-02  0.1180000E+00
       11   -1    0    0    0    0  0.00000000000E+00  0.00000000000E+00  0.39999999673E+01  0.40000000000E+01  0.51109989000E-03 0. -1.
     -623   -1    0    0    0    0  0.00000000000E+00  0.00000000000E+00  0.12525980253E-10  0.17130000000E+03  0.17130000000E+03 0. -1.
       11    1    1    2    0    0 -0.16903321886E-02  0.33135249102E-03  0.14971263988E-01  0.15078693072E-01  0.51109989000E-03 0. -1.
     -623    1    1    2    0    0  0.12060552716E-03  0.52543700645E-03  0.15798816254E-03  0.17130000000E+03  0.17130000000E+03 0. -1.
      622    1    1    2    0    0  0.15697266614E-02 -0.85678949746E-03  0.39848707152E+01  0.39849213060E+01  0.20000000000E-01 0. -1.
</event>
<event>
 5   0  0.3603037E+08  0.9118800E+02  0.7818608E-02  0.1180000E+00
       11   -1    0    0    0    0  0.00000000000E+00  0.00000000000E+00  0.39999999673E+01  0.40000000000E+01  0.51109989000E-03 0. -1.
     -623   -1    0    0    0    0  0.00000000000E+00  0.00000000000E+00  0.12525980253E-10  0.17130000000E+03  0.17130000000E+03 0. -1.
       11    1    1    2    0    0  0.84358493958E-02 -0.92537512742E-02  0.22167995169E+00  0.22203391108E+00  0.51109989000E-03 0. -1.
     -623    1    1    2    0    0  0.24642031692E-02  0.88561305319E-02  0.42285823906E-03  0.17130000025E+03  0.17130000000E+03 0. -1.
      622    1    1    2    0    0 -0.10900052565E-01  0.39762074229E-03  0.37778971574E+01  0.37779658417E+01  0.20000000000E-01 0. -1.
</event>
<event>
 5   0  0.3603037E+08  0.9118800E+02  0.7818608E-02  0.1180000E+00
       11   -1    0    0    0    0  0.00000000000E+00  0.00000000000E+00  0.39999999673E+01  0.40000000000E+01  0.51109989000E-03 0. -1.
     -623   -1    0    0    0    0  0.00000000000E+00  0.00000000000E+00  0.12525980253E-10  0.17130000000E+03  0.17130000000E+03 0. -1.
       11    1    1    2    0    0 -0.19906398818E-02 -0.12494671203E-02  0.19306422714E-01  0.19455667426E-01  0.51109989000E-03 0. -1.
     -623    1    1    2    0    0  0.85474372444E-03 -0.14789078645E-03  0.19986643234E-03  0.17130000000E+03  0.17130000000E+03 0. -1.
      622    1    1    2    0    0  0.11358961574E-02  0.13973579067E-02  0.39804936782E+01  0.39805443303E+01  0.20000000000E-01 0. -1.
</event>
<event>
 5   0  0.3603037E+08  0.9118800E+02  0.7818608E-02  0.1180000E+00
       11   -1    0    0    0    0  0.00000000000E+00  0.00000000000E+00  0.39999999673E+01  0.40000000000E+01  0.51109989000E-03 0. -1.
     -623   -1    0    0    0    0  0.00000000000E+00  0.00000000000E+00  0.12525980253E-10  0.17130000000E+03  0.17130000000E+03 0.  1.
       11    1    1    2    0    0  0.19906910940E-02  0.38486412190E-02  0.21465324512E+00  0.21469758208E+00  0.51109989000E-03 0. -1.
     -623    1    1    2    0    0 -0.27750035799E-03 -0.65687202703E-02  0.98631844348E-04  0.17130000013E+03  0.17130000000E+03 0.  1.
      622    1    1    2    0    0 -0.17131907360E-02  0.27200790513E-02  0.37852480904E+01  0.37853022917E+01  0.20000000000E-01 0. -1.
</event>
<event>
 5   0  0.3603037E+08  0.9118800E+02  0.7818608E-02  0.1180000E+00
       11   -1    0    0    0    0  0.00000000000E+00  0.00000000000E+00  0.39999999673E+01  0.40000000000E+01  0.51109989000E-03 0. -1.
     -623   -1    0    0    0    0  0.00000000000E+00  0.00000000000E+00  0.12525980253E-10  0.17130000000E+03  0.17130000000E+03 0. -1.
       11    1    1    2    0    0 -0.12549175289E-03  0.15679440729E-02  0.40963277725E-02  0.44176145831E-02  0.51109989000E-03 0. -1.
     -623    1    1    2    0    0  0.71104425783E-03  0.87090277695E-03  0.37210109432E-03  0.17130000000E+03  0.17130000000E+03 0. -1.
      622    1    1    2    0    0 -0.58555250494E-03 -0.24388468499E-02  0.39955315385E+01  0.39955823813E+01  0.20000000000E-01 0. -1.
</event>
<event>
 5   0  0.3603037E+08  0.9118800E+02  0.7818608E-02  0.1180000E+00
       11   -1    0    0    0    0  0.00000000000E+00  0.00000000000E+00  0.39999999673E+01  0.40000000000E+01  0.51109989000E-03 0. -1.
     -623   -1    0    0    0    0  0.00000000000E+00  0.00000000000E+00  0.12525980253E-10  0.17130000000E+03  0.17130000000E+03 0.  1.
       11    1    1    2    0    0  0.19977722761E-02 -0.18605215525E-02  0.48316585749E-02  0.55730405568E-02  0.51109989000E-03 0. -1.
     -623    1    1    2    0    0 -0.31763654214E-02  0.88328441750E-03  0.79174639425E-03  0.17130000003E+03  0.17130000000E+03 0.  1.
      622    1    1    2    0    0  0.11785931453E-02  0.97723713495E-03  0.39943765624E+01  0.39944269259E+01  0.20000000000E-01 0. -1.
</event>
<event>
 5   0  0.3603037E+08  0.9118800E+02  0.7818608E-02  0.1180000E+00
       11   -1    0    0    0    0  0.00000000000E+00  0.00000000000E+00  0.39999999673E+01  0.40000000000E+01  0.51109989000E-03 0.  1.
     -623   -1    0    0    0    0  0.00000000000E+00  0.00000000000E+00  0.12525980253E-10  0.17130000000E+03  0.17130000000E+03 0.  1.
       11    1    1    2    0    0  0.59836264316E-02  0.65475403557E-03  0.63045694278E+00  0.63048588438E+00  0.51109989000E-03 0.  1.
     -623    1    1    2    0    0  0.92522409796E-03 -0.17028339456E-02  0.95522306487E-04  0.17130000001E+03  0.17130000000E+03 0.  1.
      622    1    1    2    0    0 -0.69088505296E-02  0.10480799100E-02  0.33694475023E+01  0.33695141046E+01  0.20000000000E-01 0.  1.
</event>
<event>
 5   0  0.3603037E+08  0.9118800E+02  0.7818608E-02  0.1180000E+00
       11   -1    0    0    0    0  0.00000000000E+00  0.00000000000E+00  0.39999999673E+01  0.40000000000E+01  0.51109989000E-03 0. -1.
     -623   -1    0    0    0    0  0.00000000000E+00  0.00000000000E+00  0.12525980253E-10  0.17130000000E+03  0.17130000000E+03 0. -1.
       11    1    1    2    0    0 -0.12318769277E-02 -0.13163259578E-02  0.11775077172E+00  0.11776568132E+00  0.51109989000E-03 0. -1.
     -623    1    1    2    0    0 -0.18471168805E-02  0.50498007126E-03  0.67710517547E-04  0.17130000001E+03  0.17130000000E+03 0. -1.
      622    1    1    2    0    0  0.30789938082E-02  0.81134588652E-03  0.38821814851E+01  0.38822343080E+01  0.20000000000E-01 0. -1.
</event>
<event>
 5   0  0.3603037E+08  0.9118800E+02  0.7818608E-02  0.1180000E+00
       11   -1    0    0    0    0  0.00000000000E+00  0.00000000000E+00  0.39999999673E+01  0.40000000000E+01  0.51109989000E-03 0.  1.
     -623   -1    0    0    0    0  0.00000000000E+00  0.00000000000E+00  0.12525980253E-10  0.17130000000E+03  0.17130000000E+03 0. -1.
       11    1    1    2    0    0  0.78951110020E-03  0.85486646921E-02  0.58442608269E+00  0.58448935862E+00  0.51109989000E-03 0.  1.
     -623    1    1    2    0    0 -0.44843921187E-03 -0.12922642515E-01  0.12510605345E-03  0.17130000049E+03  0.17130000000E+03 0. -1.
      622    1    1    2    0    0 -0.34107188834E-03  0.43739778232E-02  0.34154487786E+01  0.34155101533E+01  0.20000000000E-01 0.  1.
</event>
<event>
 5   0  0.3603037E+08  0.9118800E+02  0.7818608E-02  0.1180000E+00
       11   -1    0    0    0    0  0.00000000000E+00  0.00000000000E+00  0.39999999673E+01  0.40000000000E+01  0.51109989000E-03 0. -1.
     -623   -1    0    0    0    0  0.00000000000E+00  0.00000000000E+00  0.12525980253E-10  0.17130000000E+03  0.17130000000E+03 0.  1.
       11    1    1    2    0    0 -0.58753763935E-03 -0.14043811068E-02  0.13362451407E+00  0.13363416280E+00  0.51109989000E-03 0. -1.
     -623    1    1    2    0    0 -0.14292983455E-02  0.10482189087E-02  0.61896221203E-04  0.17130000001E+03  0.17130000000E+03 0.  1.
      622    1    1    2    0    0  0.20168359848E-02  0.35616219811E-03  0.38663135571E+01  0.38663658280E+01  0.20000000000E-01 0. -1.
</event>
<event>
 5   0  0.3603037E+08  0.9118800E+02  0.7818608E-02  0.1180000E+00
       11   -1    0    0    0    0  0.00000000000E+00  0.00000000000E+00  0.39999999673E+01  0.40000000000E+01  0.51109989000E-03 0.  1.
     -623   -1    0    0    0    0  0.00000000000E+00  0.00000000000E+00  0.12525980253E-10  0.17130000000E+03  0.17130000000E+03 0.  1.
       11    1    1    2    0    0  0.25927495739E-02  0.30495001984E-02  0.20265255271E+00  0.20269272345E+00  0.51109989000E-03 0.  1.
     -623    1    1    2    0    0 -0.35928912547E-03  0.90041059350E-03  0.95521329997E-04  0.17130000000E+03  0.17130000000E+03 0.  1.
      622    1    1    2    0    0 -0.22334604484E-02 -0.39499107919E-02  0.37972518933E+01  0.37973072738E+01  0.20000000000E-01 0.  1.
</event>
<event>
 5   0  0.3603037E+08  0.9118800E+02  0.7818608E-02  0.1180000E+00
       11   -1    0    0    0    0  0.00000000000E+00  0.00000000000E+00  0.39999999673E+01  0.40000000000E+01  0.51109989000E-03 0.  1.
     -623   -1    0    0    0    0  0.00000000000E+00  0.00000000000E+00  0.12525980253E-10  0.17130000000E+03  0.17130000000E+03 0.  1.
       11    1    1    2    0    0 -0.49210156950E-02 -0.32777968067E-02  0.43541305895E-01  0.43943906140E-01  0.51109989000E-03 0.  1.
     -623    1    1    2    0    0 -0.14681224661E-03  0.13670969589E-02  0.45683694121E-03  0.17130000001E+03  0.17130000000E+03 0.  1.
      622    1    1    2    0    0  0.50678279416E-02  0.19106998479E-02  0.39560018245E+01  0.39560560877E+01  0.20000000000E-01 0.  1.
</event>
<event>
 5   0  0.3603037E+08  0.9118800E+02  0.7818608E-02  0.1180000E+00
       11   -1    0    0    0    0  0.00000000000E+00  0.00000000000E+00  0.39999999673E+01  0.40000000000E+01  0.51109989000E-03 0.  1.
     -623   -1    0    0    0    0  0.00000000000E+00  0.00000000000E+00  0.12525980253E-10  0.17130000000E+03  0.17130000000E+03 0. -1.
       11    1    1    2    0    0 -0.58576056565E-03 -0.18806713712E-03  0.19750037286E-01  0.19766225725E-01  0.51109989000E-03 0.  1.
     -623    1    1    2    0    0 -0.45491261335E-03 -0.36024409399E-03  0.66579234132E-04  0.17130000000E+03  0.17130000000E+03 0. -1.
      622    1    1    2    0    0  0.10406731790E-02  0.54831123111E-03  0.39801833508E+01  0.39802337733E+01  0.20000000000E-01 0.  1.
</event>
<event>
 5   0  0.3603037E+08  0.9118800E+02  0.7818608E-02  0.1180000E+00
       11   -1    0    0    0    0  0.00000000000E+00  0.00000000000E+00  0.39999999673E+01  0.40000000000E+01  0.51109989000E-03 0. -1.
     -623   -1    0    0    0    0  0.00000000000E+00  0.00000000000E+00  0.12525980253E-10  0.17130000000E+03  0.17130000000E+03 0.  1.
       11    1    1    2    0    0 -0.19121114659E-02 -0.24571057792E-02  0.15450080887E+01  0.15450113103E+01  0.51109989000E-03 0. -1.
     -623    1    1    2    0    0 -0.28301128371E-03 -0.52319689213E-03  0.87448610070E-04  0.17130000000E+03  0.17130000000E+03 0.  1.
      622    1    1    2    0    0  0.21951227496E-02  0.29803026714E-02  0.24549044301E+01  0.24549886887E+01  0.20000000000E-01 0. -1.
</event>
<event>
 5   0  0.3603037E+08  0.9118800E+02  0.7818608E-02  0.1180000E+00
       11   -1    0    0    0    0  0.00000000000E+00  0.00000000000E+00  0.39999999673E+01  0.40000000000E+01  0.51109989000E-03 0. -1.
     -623   -1    0    0    0    0  0.00000000000E+00  0.00000000000E+00  0.12525980253E-10  0.17130000000E+03  0.17130000000E+03 0. -1.
       11    1    1    2    0    0  0.10431651804E-02 -0.20934879340E-02  0.28753425542E+00  0.28754422294E+00  0.51109989000E-03 0. -1.
     -623    1    1    2    0    0  0.71556721100E-04 -0.61171457487E-04  0.64600640625E-04  0.17130000000E+03  0.17130000000E+03 0. -1.
      622    1    1    2    0    0 -0.11147219015E-02  0.21546593915E-02  0.37124011113E+01  0.37124557770E+01  0.20000000000E-01 0.  0.
</event>
<event>
 5   0  0.3603037E+08  0.9118800E+02  0.7818608E-02  0.1180000E+00
       11   -1    0    0    0    0  0.00000000000E+00  0.00000000000E+00  0.39999999673E+01  0.40000000000E+01  0.51109989000E-03 0.  1.
     -623   -1    0    0    0    0  0.00000000000E+00  0.00000000000E+00  0.12525980253E-10  0.17130000000E+03  0.17130000000E+03 0.  1.
       11    1    1    2    0    0  0.23976995508E-03  0.13287738772E-02  0.20663759769E-01  0.20714133301E-01  0.51109989000E-03 0.  1.
     -623    1    1    2    0    0 -0.20483031476E-03 -0.59333149243E-04  0.10080428611E-03  0.17130000000E+03  0.17130000000E+03 0.  1.
      622    1    1    2    0    0 -0.34939640322E-04 -0.12694407279E-02  0.39792354033E+01  0.39792858665E+01  0.20000000000E-01 0.  1.
</event>
<event>
 5   0  0.3603037E+08  0.9118800E+02  0.7818608E-02  0.1180000E+00
       11   -1    0    0    0    0  0.00000000000E+00  0.00000000000E+00  0.39999999673E+01  0.40000000000E+01  0.51109989000E-03 0.  1.
     -623   -1    0    0    0    0  0.00000000000E+00  0.00000000000E+00  0.12525980253E-10  0.17130000000E+03  0.17130000000E+03 0. -1.
       11    1    1    2    0    0 -0.23112911600E-01  0.10584326325E-01  0.65975277033E+00  0.66024254167E+00  0.51109989000E-03 0.  1.
     -623    1    1    2    0    0 -0.66731930841E-02  0.20526712833E-01  0.82873338788E-03  0.17130000136E+03  0.17130000000E+03 0. -1.
      622    1    1    2    0    0  0.29786104684E-01 -0.31111039159E-01  0.33394184636E+01  0.33397560965E+01  0.20000000000E-01 0.  1.
</event>
<event>
 5   0  0.3603037E+08  0.9118800E+02  0.7818608E-02  0.1180000E+00
       11   -1    0    0    0    0  0.00000000000E+00  0.00000000000E+00  0.39999999673E+01  0.40000000000E+01  0.51109989000E-03 0.  1.
     -623   -1    0    0    0    0  0.00000000000E+00  0.00000000000E+00  0.12525980253E-10  0.17130000000E+03  0.17130000000E+03 0. -1.
       11    1    1    2    0    0 -0.10555378306E-03  0.46282282894E-02  0.26028922249E+01  0.26028963919E+01  0.51109989000E-03 0.  1.
     -623    1    1    2    0    0  0.32646924805E-02  0.22474144229E-02  0.16783372685E-03  0.17130000005E+03  0.17130000000E+03 0. -1.
      622    1    1    2    0    0 -0.31591386975E-02 -0.68756427123E-02  0.13969399088E+01  0.13971035621E+01  0.20000000000E-01 0.  0.
</event>
<event>
 5   0  0.3603037E+08  0.9118800E+02  0.7818608E-02  0.1180000E+00
       11   -1    0    0    0    0  0.00000000000E+00  0.00000000000E+00  0.39999999673E+01  0.40000000000E+01  0.51109989000E-03 0. -1.
     -623   -1    0    0    0    0  0.00000000000E+00  0.00000000000E+00  0.12525980253E-10  0.17130000000E+03  0.17130000000E+03 0.  1.
       11    1    1    2    0    0 -0.31624389918E-02  0.20382946204E-02  0.38571662634E-01  0.38758096498E-01  0.51109989000E-03 0. -1.
     -623    1    1    2    0    0  0.36730896017E-03  0.70110570926E-03  0.23882614860E-03  0.17130000000E+03  0.17130000000E+03 0.  1.
      622    1    1    2    0    0  0.27951300316E-02 -0.27394003297E-02  0.39611894786E+01  0.39612419015E+01  0.20000000000E-01 0. -1.
</event>
<event>
 5   0  0.3603037E+08  0.9118800E+02  0.7818608E-02  0.1180000E+00
       11   -1    0    0    0    0  0.00000000000E+00  0.00000000000E+00  0.39999999673E+01  0.40000000000E+01  0.51109989000E-03 0. -1.
     -623   -1    0    0    0    0  0.00000000000E+00  0.00000000000E+00  0.12525980253E-10  0.17130000000E+03  0.17130000000E+03 0.  1.
       11    1    1    2    0    0 -0.28578859179E-02  0.75380232084E-03  0.35667055088E-02  0.46602938852E-02  0.51109989000E-03 0. -1.
     -623    1    1    2    0    0 -0.22214523691E-03 -0.93269514730E-03  0.11448121077E-02  0.17130000001E+03  0.17130000000E+03 0.  1.
      622    1    1    2    0    0  0.30800311548E-02  0.17889282646E-03  0.39952884497E+01  0.39953396996E+01  0.20000000000E-01 0. -1.
</event>
<event>
 5   0  0.3603037E+08  0.9118800E+02  0.7818608E-02  0.1180000E+00
       11   -1    0    0    0    0  0.00000000000E+00  0.00000000000E+00  0.39999999673E+01  0.40000000000E+01  0.51109989000E-03 0. -1.
     -623   -1    0    0    0    0  0.00000000000E+00  0.00000000000E+00  0.12525980253E-10  0.17130000000E+03  0.17130000000E+03 0.  1.
       11    1    1    2    0    0  0.31099337464E-02  0.32438877870E-02  0.24786114609E+01  0.24786155873E+01  0.51109989000E-03 0. -1.
     -623    1    1    2    0    0 -0.19241445111E-02 -0.13201416191E-02  0.13725316526E-03  0.17130000002E+03  0.17130000000E+03 0.  1.
      622    1    1    2    0    0 -0.11857892352E-02 -0.19237461679E-02  0.15212512533E+01  0.15213843967E+01  0.20000000000E-01 0. -1.
</event>
<event>
 5   0  0.3603037E+08  0.9118800E+02  0.7818608E-02  0.1180000E+00
       11   -1    0    0    0    0  0.00000000000E+00  0.00000000000E+00  0.39999999673E+01  0.40000000000E+01  0.51109989000E-03 0.  1.
     -623   -1    0    0    0    0  0.00000000000E+00  0.00000000000E+00  0.12525980253E-10  0.17130000000E+03  0.17130000000E+03 0.  1.
       11    1    1    2    0    0  0.24707146457E-02  0.95633709443E-03  0.10379076015E+01  0.10379111087E+01  0.51109989000E-03 0.  1.
     -623    1    1    2    0    0 -0.11827819852E-02 -0.99583419942E-03  0.71282473285E-04  0.17130000001E+03  0.17130000000E+03 0.  1.
      622    1    1    2    0    0 -0.12879326605E-02  0.39497104992E-04  0.29620210834E+01  0.29620888843E+01  0.20000000000E-01 0.  1.
</event>
<event>
 5   0  0.3603037E+08  0.9118800E+02  0.7818608E-02  0.1180000E+00
       11   -1    0    0    0    0  0.00000000000E+00  0.00000000000E+00  0.39999999673E+01  0.40000000000E+01  0.51109989000E-03 0. -1.
     -623   -1    0    0    0    0  0.00000000000E+00  0.00000000000E+00  0.12525980253E-10  0.17130000000E+03  0.17130000000E+03 0.  1.
       11    1    1    2    0    0  0.34865591445E-03 -0.83050456064E-03  0.15518303681E-01  0.15552821884E-01  0.51109989000E-03 0. -1.
     -623    1    1    2    0    0  0.99306924653E-03  0.91190055413E-03  0.84913115582E-04  0.17130000001E+03  0.17130000000E+03 0.  1.
      622    1    1    2    0    0 -0.13417251610E-02 -0.81395993498E-04  0.39843967506E+01  0.39844471728E+01  0.20000000000E-01 0. -1.
</event>
<event>
 5   0  0.3603037E+08  0.9118800E+02  0.7818608E-02  0.1180000E+00
       11   -1    0    0    0    0  0.00000000000E+00  0.00000000000E+00  0.39999999673E+01  0.40000000000E+01  0.51109989000E-03 0. -1.
     -623   -1    0    0    0    0  0.00000000000E+00  0.00000000000E+00  0.12525980253E-10  0.17130000000E+03  0.17130000000E+03 0.  1.
       11    1    1    2    0    0  0.52318712172E-02 -0.12811511765E-01  0.11239000564E+01  0.11239853671E+01  0.51109989000E-03 0. -1.
     -623    1    1    2    0    0 -0.25747800950E-03  0.45768686041E-02  0.17097202697E-03  0.17130000006E+03  0.17130000000E+03 0.  1.
      622    1    1    2    0    0 -0.49743932077E-02  0.82346431607E-02  0.28759289389E+01  0.28760145715E+01  0.20000000000E-01 0. -1.
</event>
<event>
 5   0  0.3603037E+08  0.9118800E+02  0.7818608E-02  0.1180000E+00
       11   -1    0    0    0    0  0.00000000000E+00  0.00000000000E+00  0.39999999673E+01  0.40000000000E+01  0.51109989000E-03 0. -1.
     -623   -1    0    0    0    0  0.00000000000E+00  0.00000000000E+00  0.12525980253E-10  0.17130000000E+03  0.17130000000E+03 0.  1.
       11    1    1    2    0    0  0.20708587410E-01  0.51966239601E-01  0.93474710837E+00  0.93641964603E+00  0.51109989000E-03 0. -1.
     -623    1    1    2    0    0 -0.24931532941E-01 -0.27737915119E-01  0.18405780391E-02  0.17130000407E+03  0.17130000000E+03 0.  1.
      622    1    1    2    0    0  0.42229455310E-02 -0.24228324482E-01  0.30634122810E+01  0.30635762840E+01  0.20000000000E-01 0. -1.
</event>
<event>
 5   0  0.3603037E+08  0.9118800E+02  0.7818608E-02  0.1180000E+00
       11   -1    0    0    0    0  0.00000000000E+00  0.00000000000E+00  0.39999999673E+01  0.40000000000E+01  0.51109989000E-03 0. -1.
     -623   -1    0    0    0    0  0.00000000000E+00  0.00000000000E+00  0.12525980253E-10  0.17130000000E+03  0.17130000000E+03 0. -1.
       11    1    1    2    0    0  0.27704019288E-03 -0.41689727860E-02  0.55211747417E+00  0.55213351971E+00  0.51109989000E-03 0. -1.
     -623    1    1    2    0    0  0.27755750503E-03 -0.40075000702E-03  0.77093949685E-04  0.17130000000E+03  0.17130000000E+03 0. -1.
      622    1    1    2    0    0 -0.55459769790E-03  0.45697227930E-02  0.34478053992E+01  0.34478664796E+01  0.20000000000E-01 0. -1.
</event>
<event>
 5   0  0.3603037E+08  0.9118800E+02  0.7818608E-02  0.1180000E+00
       11   -1    0    0    0    0  0.00000000000E+00  0.00000000000E+00  0.39999999673E+01  0.40000000000E+01  0.51109989000E-03 0. -1.
     -623   -1    0    0    0    0  0.00000000000E+00  0.00000000000E+00  0.12525980253E-10  0.17130000000E+03  0.17130000000E+03 0. -1.
       11    1    1    2    0    0 -0.11687715670E-02 -0.27673943381E-02  0.32186389429E+00  0.32187831889E+00  0.51109989000E-03 0. -1.
     -623    1    1    2    0    0  0.22890911785E-02  0.94137729232E-03  0.69409724896E-04  0.17130000002E+03  0.17130000000E+03 0. -1.
      622    1    1    2    0    0 -0.11203196115E-02  0.18260170457E-02  0.36780666633E+01  0.36781216632E+01  0.20000000000E-01 0. -1.
</event>
<event>
 5   0  0.3603037E+08  0.9118800E+02  0.7818608E-02  0.1180000E+00
       11   -1    0    0    0    0  0.00000000000E+00  0.00000000000E+00  0.39999999673E+01  0.40000000000E+01  0.51109989000E-03 0.  1.
     -623   -1    0    0    0    0  0.00000000000E+00  0.00000000000E+00  0.12525980253E-10  0.17130000000E+03  0.17130000000E+03 0.  1.
       11    1    1    2    0    0  0.20678846600E-02 -0.22060008799E-02  0.24050414791E+00  0.24052369732E+00  0.51109989000E-03 0.  1.
     -623    1    1    2    0    0 -0.21351583495E-02  0.10796245149E-02  0.72902106038E-04  0.17130000002E+03  0.17130000000E+03 0.  1.
      622    1    1    2    0    0  0.67273689463E-04  0.11263763650E-02  0.37594229173E+01  0.37594762860E+01  0.20000000000E-01 0.  1.
</event>
<event>
 5   0  0.3603037E+08  0.9118800E+02  0.7818608E-02  0.1180000E+00
       11   -1    0    0    0    0  0.00000000000E+00  0.00000000000E+00  0.39999999673E+01  0.40000000000E+01  0.51109989000E-03 0.  1.
     -623   -1    0    0    0    0  0.00000000000E+00  0.00000000000E+00  0.12525980253E-10  0.17130000000E+03  0.17130000000E+03 0. -1.
       11    1    1    2    0    0 -0.28042005184E-02 -0.44719285122E-02  0.14019424619E+01  0.14019524919E+01  0.51109989000E-03 0.  1.
     -623    1    1    2    0    0  0.52815982206E-03 -0.91269483236E-03  0.93559768523E-04  0.17130000000E+03  0.17130000000E+03 0. -1.
      622    1    1    2    0    0  0.22760406963E-02  0.53846233446E-02  0.25979639457E+01  0.25980475048E+01  0.20000000000E-01 0. -1.
</event>
<event>
 5   0  0.3603037E+08  0.9118800E+02  0.7818608E-02  0.1180000E+00
       11   -1    0    0    0    0  0.00000000000E+00  0.00000000000E+00  0.39999999673E+01  0.40000000000E+01  0.51109989000E-03 0. -1.
     -623   -1    0    0    0    0  0.00000000000E+00  0.00000000000E+00  0.12525980253E-10  0.17130000000E+03  0.17130000000E+03 0. -1.
       11    1    1    2    0    0 -0.17314975032E-03 -0.19798933289E-02  0.72716787482E-01  0.72745737760E-01  0.51109989000E-03 0. -1.
     -623    1    1    2    0    0 -0.24213857609E-03 -0.18463022236E-04  0.80374714162E-04  0.17130000000E+03  0.17130000000E+03 0. -1.
      622    1    1    2    0    0  0.41528832642E-03  0.19983563512E-02  0.39272028052E+01  0.39272542620E+01  0.20000000000E-01 0. -1.
</event>
<event>
 5   0  0.3603037E+08  0.9118800E+02  0.7818608E-02  0.1180000E+00
       11   -1    0    0    0    0  0.00000000000E+00  0.00000000000E+00  0.39999999673E+01  0.40000000000E+01  0.51109989000E-03 0.  1.
     -623   -1    0    0    0    0  0.00000000000E+00  0.00000000000E+00  0.12525980253E-10  0.17130000000E+03  0.17130000000E+03 0.  1.
       11    1    1    2    0    0 -0.81771597461E-02 -0.17725973788E-02  0.34236307141E+00  0.34246567993E+00  0.51109989000E-03 0.  1.
     -623    1    1    2    0    0  0.29796486226E-03  0.50613745871E-03  0.16596525251E-03  0.17130000000E+03  0.17130000000E+03 0.  1.
      622    1    1    2    0    0  0.78791948838E-02  0.12664599201E-02  0.36574709307E+01  0.36575343190E+01  0.20000000000E-01 0.  1.
</event>
<event>
 5   0  0.3603037E+08  0.9118800E+02  0.7818608E-02  0.1180000E+00
       11   -1    0    0    0    0  0.00000000000E+00  0.00000000000E+00  0.39999999673E+01  0.40000000000E+01  0.51109989000E-03 0. -1.
     -623   -1    0    0    0    0  0.00000000000E+00  0.00000000000E+00  0.12525980253E-10  0.17130000000E+03  0.17130000000E+03 0.  1.
       11    1    1    2    0    0 -0.58214316547E-02  0.46599987499E-02  0.28680089136E-01  0.29638039574E-01  0.51109989000E-03 0. -1.
     -623    1    1    2    0    0  0.11087621550E-01 -0.61697736568E-02  0.10125438734E-02  0.17130000047E+03  0.17130000000E+03 0.  1.
      622    1    1    2    0    0 -0.52661898954E-02  0.15097749069E-02  0.39703073344E+01  0.39703614875E+01  0.20000000000E-01 0. -1.
</event>
<event>
 5   0  0.3603037E+08  0.9118800E+02  0.7818608E-02  0.1180000E+00
       11   -1    0    0    0    0  0.00000000000E+00  0.00000000000E+00  0.39999999673E+01  0.40000000000E+01  0.51109989000E-03 0. -1.
     -623   -1    0    0    0    0  0.00000000000E+00  0.00000000000E+00  0.12525980253E-10  0.17130000000E+03  0.17130000000E+03 0. -1.
       11    1    1    2    0    0 -0.14170876548E-02 -0.13080948469E-02  0.10939712527E-01  0.11120151967E-01  0.51109989000E-03 0. -1.
     -623    1    1    2    0    0  0.30432806020E-03 -0.23706494824E-03  0.23100158304E-03  0.17130000000E+03  0.17130000000E+03 0. -1.
      622    1    1    2    0    0  0.11127595946E-02  0.15451597951E-02  0.39888292532E+01  0.39888798474E+01  0.20000000000E-01 0. -1.
</event>
<event>
 5   0  0.3603037E+08  0.9118800E+02  0.7818608E-02  0.1180000E+00
       11   -1    0    0    0    0  0.00000000000E+00  0.00000000000E+00  0.39999999673E+01  0.40000000000E+01  0.51109989000E-03 0.  1.
     -623   -1    0    0    0    0  0.00000000000E+00  0.00000000000E+00  0.12525980253E-10  0.17130000000E+03  0.17130000000E+03 0. -1.
       11    1    1    2    0    0 -0.22609019341E-02 -0.13618883366E-02  0.22749626745E+00  0.22751215208E+00  0.51109989000E-03 0.  1.
     -623    1    1    2    0    0  0.29883325850E-04  0.50104798577E-03  0.69626453695E-04  0.17130000000E+03  0.17130000000E+03 0. -1.
      622    1    1    2    0    0  0.22310186083E-02  0.86084035084E-03  0.37724340735E+01  0.37724878472E+01  0.20000000000E-01 0.  1.
</event>
<event>
 5   0  0.3603037E+08  0.9118800E+02  0.7818608E-02  0.1180000E+00
       11   -1    0    0    0    0  0.00000000000E+00  0.00000000000E+00  0.39999999673E+01  0.40000000000E+01  0.51109989000E-03 0.  1.
     -623   -1    0    0    0    0  0.00000000000E+00  0.00000000000E+00  0.12525980253E-10  0.17130000000E+03  0.17130000000E+03 0. -1.
       11    1    1    2    0    0  0.13584999223E-02 -0.46607881138E-02  0.42916384999E+00  0.42919161202E+00  0.51109989000E-03 0.  1.
     -623    1    1    2    0    0  0.14025434210E-03 -0.20695862696E-03  0.87372220401E-04  0.17130000000E+03  0.17130000000E+03 0. -1.
      622    1    1    2    0    0 -0.14987542644E-02  0.48677467408E-02  0.35707487451E+01  0.35708083878E+01  0.20000000000E-01 0.  0.
</event>
<event>
 5   0  0.3603037E+08  0.9118800E+02  0.7818608E-02  0.1180000E+00
       11   -1    0    0    0    0  0.00000000000E+00  0.00000000000E+00  0.39999999673E+01  0.40000000000E+01  0.51109989000E-03 0. -1.
     -623   -1    0    0    0    0  0.00000000000E+00  0.00000000000E+00  0.12525980253E-10  0.17130000000E+03  0.17130000000E+03 0. -1.
       11    1    1    2    0    0  0.28919738225E-02  0.48396497743E-03  0.15764070287E+00  0.15766879893E+00  0.51109989000E-03 0. -1.
     -623    1    1    2    0    0 -0.75135041536E-03  0.25723934112E-03  0.80785160219E-04  0.17130000000E+03  0.17130000000E+03 0. -1.
      622    1    1    2    0    0 -0.21406234072E-02 -0.74120431855E-03  0.38422784793E+01  0.38423311992E+01  0.20000000000E-01 0. -1.
</event>
<event>
 5   0  0.3603037E+08  0.9118800E+02  0.7818608E-02  0.1180000E+00
       11   -1    0    0    0    0  0.00000000000E+00  0.00000000000E+00  0.39999999673E+01  0.40000000000E+01  0.51109989000E-03 0.  1.
     -623   -1    0    0    0    0  0.00000000000E+00  0.00000000000E+00  0.12525980253E-10  0.17130000000E+03  0.17130000000E+03 0.  1.
       11    1    1    2    0    0  0.19277610584E-02 -0.11712038103E-01  0.69903098764E-01  0.70905518382E-01  0.51109989000E-03 0.  1.
     -623    1    1    2    0    0 -0.30350806849E-02  0.63241756709E-02  0.10572867181E-02  0.17130000015E+03  0.17130000000E+03 0.  1.
      622    1    1    2    0    0  0.11073196265E-02  0.53878624322E-02  0.39290395819E+01  0.39290943347E+01  0.20000000000E-01 0.  1.
</event>
<event>
 5   0  0.3603037E+08  0.9118800E+02  0.7818608E-02  0.1180000E+00
       11   -1    0    0    0    0  0.00000000000E+00  0.00000000000E+00  0.39999999673E+01  0.40000000000E+01  0.51109989000E-03 0. -1.
     -623   -1    0    0    0    0  0.00000000000E+00  0.00000000000E+00  0.12525980253E-10  0.17130000000E+03  0.17130000000E+03 0.  1.
       11    1    1    2    0    0  0.36929529837E-02 -0.43773798766E-02  0.12905214283E+01  0.12905342372E+01  0.51109989000E-03 0. -1.
     -623    1    1    2    0    0 -0.20299532971E-03 -0.39034983096E-03  0.93035788987E-04  0.17130000000E+03  0.17130000000E+03 0.  1.
      622    1    1    2    0    0 -0.34899576540E-02  0.47677297076E-02  0.27093855033E+01  0.27094657622E+01  0.20000000000E-01 0. -1.
</event>
<event>
 5   0  0.3603037E+08  0.9118800E+02  0.7818608E-02  0.1180000E+00
       11   -1    0    0    0    0  0.00000000000E+00  0.00000000000E+00  0.39999999673E+01  0.40000000000E+01  0.51109989000E-03 0. -1.
     -623   -1    0    0    0    0  0.00000000000E+00  0.00000000000E+00  0.12525980253E-10  0.17130000000E+03  0.17130000000E+03 0. -1.
       11    1    1    2    0    0  0.56487192188E-02 -0.64602509334E-02  0.93326764124E+00  0.93330723466E+00  0.51109989000E-03 0. -1.
     -623    1    1    2    0    0 -0.68721345745E-03  0.76263107333E-02  0.10918480769E-03  0.17130000017E+03  0.17130000000E+03 0. -1.
      622    1    1    2    0    0 -0.49615057613E-02 -0.11660598000E-02  0.30666231413E+01  0.30666925942E+01  0.20000000000E-01 0. -1.
</event>
<event>
 5   0  0.3603037E+08  0.9118800E+02  0.7818608E-02  0.1180000E+00
       11   -1    0    0    0    0  0.00000000000E+00  0.00000000000E+00  0.39999999673E+01  0.40000000000E+01  0.51109989000E-03 0.  1.
     -623   -1    0    0    0    0  0.00000000000E+00  0.00000000000E+00  0.12525980253E-10  0.17130000000E+03  0.17130000000E+03 0.  1.
       11    1    1    2    0    0  0.10599476727E-03  0.40592014828E-03  0.22200711259E-01  0.22210556226E-01  0.51109989000E-03 0.  1.
     -623    1    1    2    0    0  0.41882797429E-03 -0.79980856340E-03  0.60148341898E-04  0.17130000000E+03  0.17130000000E+03 0.  1.
      622    1    1    2    0    0 -0.52482274155E-03  0.39388841512E-03  0.39777391078E+01  0.39777894414E+01  0.20000000000E-01 0.  1.
</event>
<event>
 5   0  0.3603037E+08  0.9118800E+02  0.7818608E-02  0.1180000E+00
       11   -1    0    0    0    0  0.00000000000E+00  0.00000000000E+00  0.39999999673E+01  0.40000000000E+01  0.51109989000E-03 0.  1.
     -623   -1    0    0    0    0  0.00000000000E+00  0.00000000000E+00  0.12525980253E-10  0.17130000000E+03  0.17130000000E+03 0. -1.
       11    1    1    2    0    0  0.13390087949E-01 -0.65857572671E-02  0.16258764357E+01  0.16259449905E+01  0.51109989000E-03 0.  1.
     -623    1    1    2    0    0 -0.40041506974E-02 -0.16571139540E-03  0.18096978572E-03  0.17130000005E+03  0.17130000000E+03 0. -1.
      622    1    1    2    0    0 -0.93859372514E-02  0.67514686625E-02  0.23739425618E+01  0.23740549625E+01  0.20000000000E-01 0.  0.
</event>
<event>
 5   0  0.3603037E+08  0.9118800E+02  0.7818608E-02  0.1180000E+00
       11   -1    0    0    0    0  0.00000000000E+00  0.00000000000E+00  0.39999999673E+01  0.40000000000E+01  0.51109989000E-03 0. -1.
     -623   -1    0    0    0    0  0.00000000000E+00  0.00000000000E+00  0.12525980253E-10  0.17130000000E+03  0.17130000000E+03 0. -1.
       11    1    1    2    0    0  0.72394320989E-02 -0.46742216616E-02  0.89086511019E+00  0.89090693314E+00  0.51109989000E-03 0. -1.
     -623    1    1    2    0    0 -0.97839070639E-03 -0.33571752523E-02  0.12283206134E-03  0.17130000004E+03  0.17130000000E+03 0. -1.
      622    1    1    2    0    0 -0.62610413925E-02  0.80313969138E-02  0.31090120251E+01  0.31090930311E+01  0.20000000000E-01 0. -1.
</event>
<event>
 5   0  0.3603037E+08  0.9118800E+02  0.7818608E-02  0.1180000E+00
       11   -1    0    0    0    0  0.00000000000E+00  0.00000000000E+00  0.39999999673E+01  0.40000000000E+01  0.51109989000E-03 0. -1.
     -623   -1    0    0    0    0  0.00000000000E+00  0.00000000000E+00  0.12525980253E-10  0.17130000000E+03  0.17130000000E+03 0. -1.
       11    1    1    2    0    0 -0.46698856000E-02 -0.20016974748E-02  0.17579685481E+00  0.17587100388E+00  0.51109989000E-03 0. -1.
     -623    1    1    2    0    0  0.65283183615E-02  0.45285090921E-02  0.12788697996E-03  0.17130000018E+03  0.17130000000E+03 0. -1.
      622    1    1    2    0    0 -0.18584327615E-02 -0.25268116173E-02  0.38240752256E+01  0.38241288118E+01  0.20000000000E-01 0. -1.
</event>
<event>
 5   0  0.3603037E+08  0.9118800E+02  0.7818608E-02  0.1180000E+00
       11   -1    0    0    0    0  0.00000000000E+00  0.00000000000E+00  0.39999999673E+01  0.40000000000E+01  0.51109989000E-03 0. -1.
     -623   -1    0    0    0    0  0.00000000000E+00  0.00000000000E+00  0.12525980253E-10  0.17130000000E+03  0.17130000000E+03 0. -1.
       11    1    1    2    0    0 -0.15387637268E-02 -0.73364987403E-03  0.50292159394E-02  0.53348168261E-02  0.51109989000E-03 0. -1.
     -623    1    1    2    0    0  0.10752186630E-02  0.24527572709E-02  0.35605344887E-03  0.17130000002E+03  0.17130000000E+03 0. -1.
      622    1    1    2    0    0  0.46354506380E-03 -0.17191073968E-02  0.39946146980E+01  0.39946651619E+01  0.20000000000E-01 0. -1.
</event>
<event>
 5   0  0.3603037E+08  0.9118800E+02  0.7818608E-02  0.1180000E+00
       11   -1    0    0    0    0  0.00000000000E+00  0.00000000000E+00  0.39999999673E+01  0.40000000000E+01  0.51109989000E-03 0.  1.
     -623   -1    0    0    0    0  0.00000000000E+00  0.00000000000E+00  0.12525980253E-10  0.17130000000E+03  0.17130000000E+03 0. -1.
       11    1    1    2    0    0  0.18345164876E-02 -0.77848104401E-03  0.23321485312E-01  0.23412056328E-01  0.51109989000E-03 0.  1.
     -623    1    1    2    0    0  0.51594275489E-04  0.81768864560E-03  0.14128257880E-03  0.17130000000E+03  0.17130000000E+03 0. -1.
      622    1    1    2    0    0 -0.18861107631E-02 -0.39207601588E-04  0.39765371995E+01  0.39765879417E+01  0.20000000000E-01 0.  1.
</event>
<event>
 5   0  0.3603037E+08  0.9118800E+02  0.7818608E-02  0.1180000E+00
       11   -1    0    0    0    0  0.00000000000E+00  0.00000000000E+00  0.39999999673E+01  0.40000000000E+01  0.51109989000E-03 0. -1.
     -623   -1    0    0    0    0  0.00000000000E+00  0.00000000000E+00  0.12525980253E-10  0.17130000000E+03  0.17130000000E+03 0. -1.
       11    1    1    2    0    0 -0.21288530941E-01 -0.36371649109E-02  0.85880018833E+00  0.85907185684E+00  0.51109989000E-03 0. -1.
     -623    1    1    2    0    0  0.37834902202E-01 -0.95068725262E-03  0.38642847316E-03  0.17130000418E+03  0.17130000000E+03 0. -1.
      622    1    1    2    0    0 -0.16546371260E-01  0.45878521635E-02  0.31408133506E+01  0.31409239618E+01  0.20000000000E-01 0. -1.
</event>
<event>
 5   0  0.3603037E+08  0.9118800E+02  0.7818608E-02  0.1180000E+00
       11   -1    0    0    0    0  0.00000000000E+00  0.00000000000E+00  0.39999999673E+01  0.40000000000E+01  0.51109989000E-03 0.  1.
     -623   -1    0    0    0    0  0.00000000000E+00  0.00000000000E+00  0.12525980253E-10  0.17130000000E+03  0.17130000000E+03 0. -1.
       11    1    1    2    0    0  0.45814423271E-01 -0.91832465270E-02  0.22157255220E+01  0.22162182076E+01  0.51109989000E-03 0.  1.
     -623    1    1    2    0    0 -0.15732137391E-02  0.16648660214E-02  0.11693997866E-02  0.17130000002E+03  0.17130000000E+03 0. -1.
      622    1    1    2    0    0 -0.44241209532E-01  0.75183805056E-02  0.17831050455E+01  0.17837817731E+01  0.20000000000E-01 0.  1.
</event>
<event>
 5   0  0.3603037E+08  0.9118800E+02  0.7818608E-02  0.1180000E+00
       11   -1    0    0    0    0  0.00000000000E+00  0.00000000000E+00  0.39999999673E+01  0.40000000000E+01  0.51109989000E-03 0. -1.
     -623   -1    0    0    0    0  0.00000000000E+00  0.00000000000E+00  0.12525980253E-10  0.17130000000E+03  0.17130000000E+03 0.  1.
       11    1    1    2    0    0  0.17027589928E-02 -0.21923299054E-03  0.26761383276E-02  0.32203089841E-02  0.51109989000E-03 0. -1.
     -623    1    1    2    0    0 -0.11161590467E-02  0.12928501338E-02  0.59437540940E-03  0.17130000001E+03  0.17130000000E+03 0.  1.
      622    1    1    2    0    0 -0.58659994609E-03 -0.10736171433E-02  0.39967294536E+01  0.39967796815E+01  0.20000000000E-01 0. -1.
</event>
<event>
 5   0  0.3603037E+08  0.9118800E+02  0.7818608E-02  0.1180000E+00
       11   -1    0    0    0    0  0.00000000000E+00  0.00000000000E+00  0.39999999673E+01  0.40000000000E+01  0.51109989000E-03 0. -1.
     -623   -1    0    0    0    0  0.00000000000E+00  0.00000000000E+00  0.12525980253E-10  0.17130000000E+03  0.17130000000E+03 0. -1.
       11    1    1    2    0    0 -0.72274233023E-03  0.40043229002E-02  0.33811544886E+00  0.33814031841E+00  0.51109989000E-03 0. -1.
     -623    1    1    2    0    0 -0.28216810010E-02 -0.18617749065E-02  0.81829969919E-04  0.17130000003E+03  0.17130000000E+03 0. -1.
      622    1    1    2    0    0  0.35444233312E-02 -0.21425479937E-02  0.36618026885E+01  0.36618596482E+01  0.20000000000E-01 0. -1.
</event>
<event>
 5   0  0.3603037E+08  0.9118800E+02  0.7818608E-02  0.1180000E+00
       11   -1    0    0    0    0  0.00000000000E+00  0.00000000000E+00  0.39999999673E+01  0.40000000000E+01  0.51109989000E-03 0. -1.
     -623   -1    0    0    0    0  0.00000000000E+00  0.00000000000E+00  0.12525980253E-10  0.17130000000E+03  0.17130000000E+03 0. -1.
       11    1    1    2    0    0 -0.14562361376E-01  0.26232911523E-02  0.27535667585E+00  0.27575442731E+00  0.51109989000E-03 0. -1.
     -623    1    1    2    0    0 -0.70767403337E-03  0.58137167924E-03  0.48410875363E-03  0.17130000000E+03  0.17130000000E+03 0. -1.
      622    1    1    2    0    0  0.15270035409E-01 -0.32046628315E-02  0.37241591828E+01  0.37242455696E+01  0.20000000000E-01 0. -1.
</event>
<event>
 5   0  0.3603037E+08  0.9118800E+02  0.7818608E-02  0.1180000E+00
       11   -1    0    0    0    0  0.00000000000E+00  0.00000000000E+00  0.39999999673E+01  0.40000000000E+01  0.51109989000E-03 0.  1.
     -623   -1    0    0    0    0  0.00000000000E+00  0.00000000000E+00  0.12525980253E-10  0.17130000000E+03  0.17130000000E+03 0. -1.
       11    1    1    2    0    0 -0.39298557057E-03  0.71452923505E-03  0.88092923351E-02  0.88617065935E-02  0.51109989000E-03 0.  1.
     -623    1    1    2    0    0  0.96852861771E-04 -0.15155846240E-03  0.10254376733E-03  0.17130000000E+03  0.17130000000E+03 0. -1.
      622    1    1    2    0    0  0.29613270880E-03 -0.56297077265E-03  0.39910881313E+01  0.39911382933E+01  0.20000000000E-01 0.  1.
</event>
<event>
 5   0  0.3603037E+08  0.9118800E+02  0.7818608E-02  0.1180000E+00
       11   -1    0    0    0    0  0.00000000000E+00  0.00000000000E+00  0.39999999673E+01  0.40000000000E+01  0.51109989000E-03 0.  1.
     -623   -1    0    0    0    0  0.00000000000E+00  0.00000000000E+00  0.12525980253E-10  0.17130000000E+03  0.17130000000E+03 0.  1.
       11    1    1    2    0    0 -0.35072174607E-03 -0.17931798967E-02  0.26053251139E+00  0.26053941968E+00  0.51109989000E-03 0.  1.
     -623    1    1    2    0    0 -0.28749920484E-02  0.14048801309E-02  0.61801044738E-04  0.17130000003E+03  0.17130000000E+03 0.  1.
      622    1    1    2    0    0  0.32257137944E-02  0.38829976582E-03  0.37394056549E+01  0.37394605504E+01  0.20000000000E-01 0.  1.
</event>
<event>
 5   0  0.3603037E+08  0.9118800E+02  0.7818608E-02  0.1180000E+00
       11   -1    0    0    0    0  0.00000000000E+00  0.00000000000E+00  0.39999999673E+01  0.40000000000E+01  0.51109989000E-03 0.  1.
     -623   -1    0    0    0    0  0.00000000000E+00  0.00000000000E+00  0.12525980253E-10  0.17130000000E+03  0.17130000000E+03 0. -1.
       11    1    1    2    0    0  0.14773790981E-02  0.95834957844E-03  0.17218452515E-01  0.17315813903E-01  0.51109989000E-03 0.  1.
     -623    1    1    2    0    0 -0.54066403793E-03  0.25545434039E-03  0.14784268670E-03  0.17130000000E+03  0.17130000000E+03 0. -1.
      622    1    1    2    0    0 -0.93671506014E-03 -0.12138039188E-02  0.39826336722E+01  0.39826841850E+01  0.20000000000E-01 0.  1.
</event>
<event>
 5   0  0.3603037E+08  0.9118800E+02  0.7818608E-02  0.1180000E+00
       11   -1    0    0    0    0  0.00000000000E+00  0.00000000000E+00  0.39999999673E+01  0.40000000000E+01  0.51109989000E-03 0.  1.
     -623   -1    0    0    0    0  0.00000000000E+00  0.00000000000E+00  0.12525980253E-10  0.17130000000E+03  0.17130000000E+03 0.  1.
       11    1    1    2    0    0  0.18902960309E-02  0.35230669463E-04  0.22234196325E-01  0.22320286014E-01  0.51109989000E-03 0.  1.
     -623    1    1    2    0    0 -0.18404393108E-02  0.53759089087E-03  0.13639027959E-03  0.17130000001E+03  0.17130000000E+03 0.  1.
      622    1    1    2    0    0 -0.49856720142E-04 -0.57282156033E-03  0.39776293808E+01  0.39776797032E+01  0.20000000000E-01 0.  1.
</event>
<event>
 5   0  0.3603037E+08  0.9118800E+02  0.7818608E-02  0.1180000E+00
       11   -1    0    0    0    0  0.00000000000E+00  0.00000000000E+00  0.39999999673E+01  0.40000000000E+01  0.51109989000E-03 0.  1.
     -623   -1    0    0    0    0  0.00000000000E+00  0.00000000000E+00  0.12525980253E-10  0.17130000000E+03  0.17130000000E+03 0.  1.
       11    1    1    2    0    0  0.13146685749E-01  0.10978781983E-01  0.89080720524E-01  0.90713863272E-01  0.51109989000E-03 0.  1.
     -623    1    1    2    0    0  0.14637268317E-02 -0.22089604604E-02  0.17214394840E-02  0.17130000003E+03  0.17130000000E+03 0.  1.
      622    1    1    2    0    0 -0.14610412581E-01 -0.87698215225E-02  0.39091978074E+01  0.39092861076E+01  0.20000000000E-01 0.  1.
</event>
<event>
 5   0  0.3603037E+08  0.9118800E+02  0.7818608E-02  0.1180000E+00
       11   -1    0    0    0    0  0.00000000000E+00  0.00000000000E+00  0.39999999673E+01  0.40000000000E+01  0.51109989000E-03 0.  1.
     -623   -1    0    0    0    0  0.00000000000E+00  0.00000000000E+00  0.12525980253E-10  0.17130000000E+03  0.17130000000E+03 0. -1.
       11    1    1    2    0    0  0.49995414930E-02 -0.18232200586E-02  0.48641079870E+00  0.48644017706E+00  0.51109989000E-03 0.  1.
     -623    1    1    2    0    0  0.23231897091E-03  0.85100351925E-04  0.90593946392E-04  0.17130000000E+03  0.17130000000E+03 0. -1.
      622    1    1    2    0    0 -0.52318604639E-02  0.17381197067E-02  0.35134985747E+01  0.35135598227E+01  0.20000000000E-01 0.  1.
</event>
<event>
 5   0  0.3603037E+08  0.9118800E+02  0.7818608E-02  0.1180000E+00
       11   -1    0    0    0    0  0.00000000000E+00  0.00000000000E+00  0.39999999673E+01  0.40000000000E+01  0.51109989000E-03 0. -1.
     -623   -1    0    0    0    0  0.00000000000E+00  0.00000000000E+00  0.12525980253E-10  0.17130000000E+03  0.17130000000E+03 0.  1.
       11    1    1    2    0    0  0.13194485320E-02 -0.49190809851E-02  0.19285902493E+00  0.19292693701E+00  0.51109989000E-03 0. -1.
     -623    1    1    2    0    0 -0.11117280593E-01 -0.36726324700E-02  0.14311673041E-03  0.17130000040E+03  0.17130000000E+03 0.  1.
      622    1    1    2    0    0  0.97978320606E-02  0.85917134551E-02  0.38069978257E+01  0.38070726628E+01  0.20000000000E-01 0. -1.
</event>
<event>
 5   0  0.3603037E+08  0.9118800E+02  0.7818608E-02  0.1180000E+00
       11   -1    0    0    0    0  0.00000000000E+00  0.00000000000E+00  0.39999999673E+01  0.40000000000E+01  0.51109989000E-03 0.  1.
     -623   -1    0    0    0    0  0.00000000000E+00  0.00000000000E+00  0.12525980253E-10  0.17130000000E+03  0.17130000000E+03 0.  1.
       11    1    1    2    0    0 -0.22685769021E-02 -0.69949506863E-02  0.28761106691E+00  0.28770551404E+00  0.51109989000E-03 0.  1.
     -623    1    1    2    0    0 -0.50145101560E-02  0.11851053684E-01  0.15909394919E-03  0.17130000048E+03  0.17130000000E+03 0.  1.
      622    1    1    2    0    0  0.72830870582E-02 -0.48561029976E-02  0.37122298065E+01  0.37122940025E+01  0.20000000000E-01 0.  1.
</event>
<event>
 5   0  0.3603037E+08  0.9118800E+02  0.7818608E-02  0.1180000E+00
       11   -1    0    0    0    0  0.00000000000E+00  0.00000000000E+00  0.39999999673E+01  0.40000000000E+01  0.51109989000E-03 0. -1.
     -623   -1    0    0    0    0  0.00000000000E+00  0.00000000000E+00  0.12525980253E-10  0.17130000000E+03  0.17130000000E+03 0. -1.
       11    1    1    2    0    0  0.13226493327E-01  0.56193344342E-02  0.35613920132E+00  0.35642938850E+00  0.51109989000E-03 0. -1.
     -623    1    1    2    0    0 -0.69415045455E-02 -0.99115641844E-02  0.35342288899E-03  0.17130000043E+03  0.17130000000E+03 0. -1.
      622    1    1    2    0    0 -0.62849887812E-02  0.42922297502E-02  0.36435073431E+01  0.36435701837E+01  0.20000000000E-01 0. -1.
</event>
<event>
 5   0  0.3603037E+08  0.9118800E+02  0.7818608E-02  0.1180000E+00
       11   -1    0    0    0    0  0.00000000000E+00  0.00000000000E+00  0.39999999673E+01  0.40000000000E+01  0.51109989000E-03 0. -1.
     -623   -1    0    0    0    0  0.00000000000E+00  0.00000000000E+00  0.12525980253E-10  0.17130000000E+03  0.17130000000E+03 0.  1.
       11    1    1    2    0    0 -0.32105340176E-04  0.59558107643E-03  0.38445633765E-01  0.38453656833E-01  0.51109989000E-03 0. -1.
     -623    1    1    2    0    0  0.99112528202E-04  0.97864532087E-04  0.58537412328E-04  0.17130000000E+03  0.17130000000E+03 0.  1.
      622    1    1    2    0    0 -0.67007188026E-04 -0.69344560851E-03  0.39614957962E+01  0.39615463431E+01  0.20000000000E-01 0. -1.
</event>
<event>
 5   0  0.3603037E+08  0.9118800E+02  0.7818608E-02  0.1180000E+00
       11   -1    0    0    0    0  0.00000000000E+00  0.00000000000E+00  0.39999999673E+01  0.40000000000E+01  0.51109989000E-03 0. -1.
     -623   -1    0    0    0    0  0.00000000000E+00  0.00000000000E+00  0.12525980253E-10  0.17130000000E+03  0.17130000000E+03 0. -1.
       11    1    1    2    0    0 -0.11984188131E-02  0.13004522535E-03  0.12212343888E+00  0.12213045757E+00  0.51109989000E-03 0. -1.
     -623    1    1    2    0    0  0.21862129493E-02  0.36211038615E-02  0.60553455183E-04  0.17130000005E+03  0.17130000000E+03 0. -1.
      622    1    1    2    0    0 -0.98779413629E-03 -0.37511490869E-02  0.38778159750E+01  0.38778694902E+01  0.20000000000E-01 0. -1.
</event>
<event>
 5   0  0.3603037E+08  0.9118800E+02  0.7818608E-02  0.1180000E+00
       11   -1    0    0    0    0  0.00000000000E+00  0.00000000000E+00  0.39999999673E+01  0.40000000000E+01  0.51109989000E-03 0.  1.
     -623   -1    0    0    0    0  0.00000000000E+00  0.00000000000E+00  0.12525980253E-10  0.17130000000E+03  0.17130000000E+03 0.  1.
       11    1    1    2    0    0  0.32687645738E-02 -0.42485675867E-02  0.10989593370E+00  0.11002778110E+00  0.51109989000E-03 0.  1.
     -623    1    1    2    0    0 -0.21191018467E-02  0.54919217433E-03  0.18517241033E-03  0.17130000001E+03  0.17130000000E+03 0.  1.
      622    1    1    2    0    0 -0.11496627272E-02  0.36993754124E-02  0.38899188612E+01  0.38899722048E+01  0.20000000000E-01 0.  1.
</event>
<event>
 5   0  0.3603037E+08  0.9118800E+02  0.7818608E-02  0.1180000E+00
       11   -1    0    0    0    0  0.00000000000E+00  0.00000000000E+00  0.39999999673E+01  0.40000000000E+01  0.51109989000E-03 0.  1.
     -623   -1    0    0    0    0  0.00000000000E+00  0.00000000000E+00  0.12525980253E-10  0.17130000000E+03  0.17130000000E+03 0. -1.
       11    1    1    2    0    0  0.20834381186E-02 -0.57992652518E-03  0.80893636347E-01  0.80924153701E-01  0.51109989000E-03 0.  1.
     -623    1    1    2    0    0 -0.33088970680E-02 -0.26572352890E-02  0.83098639566E-04  0.17130000005E+03  0.17130000000E+03 0. -1.
      622    1    1    2    0    0  0.12254589494E-02  0.32371618141E-02  0.39190232324E+01  0.39190757937E+01  0.20000000000E-01 0.  1.
</event>
<event>
 5   0  0.3603037E+08  0.9118800E+02  0.7818608E-02  0.1180000E+00
       11   -1    0    0    0    0  0.00000000000E+00  0.00000000000E+00  0.39999999673E+01  0.40000000000E+01  0.51109989000E-03 0. -1.
     -623   -1    0    0    0    0  0.00000000000E+00  0.00000000000E+00  0.12525980253E-10  0.17130000000E+03  0.17130000000E+03 0. -1.
       11    1    1    2    0    0  0.11354084812E-02  0.82315027262E-03  0.18701845258E-01  0.18761315717E-01  0.51109989000E-03 0. -1.
     -623    1    1    2    0    0 -0.69198247322E-04  0.24223245238E-04  0.10990675985E-03  0.17130000000E+03  0.17130000000E+03 0. -1.
      622    1    1    2    0    0 -0.10662102339E-02 -0.84737351786E-03  0.39811882153E+01  0.39812386842E+01  0.20000000000E-01 0. -1.
</event>
<event>
 5   0  0.3603037E+08  0.9118800E+02  0.7818608E-02  0.1180000E+00
       11   -1    0    0    0    0  0.00000000000E+00  0.00000000000E+00  0.39999999673E+01  0.40000000000E+01  0.51109989000E-03 0. -1.
     -623   -1    0    0    0    0  0.00000000000E+00  0.00000000000E+00  0.12525980253E-10  0.17130000000E+03  0.17130000000E+03 0. -1.
       11    1    1    2    0    0 -0.69276152659E-02 -0.15287093967E-02  0.22052668109E+00  0.22064135401E+00  0.51109989000E-03 0. -1.
     -623    1    1    2    0    0  0.66645786419E-03 -0.18658270829E-02  0.17428211998E-03  0.17130000001E+03  0.17130000000E+03 0. -1.
      622    1    1    2    0    0  0.62611574017E-02  0.33945364796E-02  0.37792990042E+01  0.37793586344E+01  0.20000000000E-01 0. -1.
</event>
<event>
 5   0  0.3603037E+08  0.9118800E+02  0.7818608E-02  0.1180000E+00
       11   -1    0    0    0    0  0.00000000000E+00  0.00000000000E+00  0.39999999673E+01  0.40000000000E+01  0.51109989000E-03 0. -1.
     -623   -1    0    0    0    0  0.00000000000E+00  0.00000000000E+00  0.12525980253E-10  0.17130000000E+03  0.17130000000E+03 0. -1.
       11    1    1    2    0    0 -0.52455526769E-03 -0.14805718518E-01  0.11558886881E+01  0.11559837390E+01  0.51109989000E-03 0. -1.
     -623    1    1    2    0    0  0.65665134381E-03 -0.31315890106E-02  0.22194293263E-03  0.17130000003E+03  0.17130000000E+03 0. -1.
      622    1    1    2    0    0 -0.13209607612E-03  0.17937307529E-01  0.28438893363E+01  0.28440162309E+01  0.20000000000E-01 0.  0.
</event>
<event>
 5   0  0.3603037E+08  0.9118800E+02  0.7818608E-02  0.1180000E+00
       11   -1    0    0    0    0  0.00000000000E+00  0.00000000000E+00  0.39999999673E+01  0.40000000000E+01  0.51109989000E-03 0.  1.
     -623   -1    0    0    0    0  0.00000000000E+00  0.00000000000E+00  0.12525980253E-10  0.17130000000E+03  0.17130000000E+03 0.  1.
       11    1    1    2    0    0  0.16521354282E-01  0.13155802236E-01  0.12012082688E+01  0.12013940222E+01  0.51109989000E-03 0.  1.
     -623    1    1    2    0    0 -0.24287626725E-01  0.11217262241E-02  0.30610865542E-03  0.17130000173E+03  0.17130000000E+03 0.  1.
      622    1    1    2    0    0  0.77662724424E-02 -0.14277528460E-01  0.27984855899E+01  0.27986042520E+01  0.20000000000E-01 0.  1.
</event>
<event>
 5   0  0.3603037E+08  0.9118800E+02  0.7818608E-02  0.1180000E+00
       11   -1    0    0    0    0  0.00000000000E+00  0.00000000000E+00  0.39999999673E+01  0.40000000000E+01  0.51109989000E-03 0. -1.
     -623   -1    0    0    0    0  0.00000000000E+00  0.00000000000E+00  0.12525980253E-10  0.17130000000E+03  0.17130000000E+03 0.  1.
       11    1    1    2    0    0  0.12761777469E-01  0.47501221831E-02  0.38217824828E+00  0.38242110468E+00  0.51109989000E-03 0. -1.
     -623    1    1    2    0    0 -0.11353351043E-01 -0.10409902256E-01  0.30350426812E-03  0.17130000069E+03  0.17130000000E+03 0.  1.
      622    1    1    2    0    0 -0.14084264256E-02  0.56597800728E-02  0.36175182148E+01  0.36175782025E+01  0.20000000000E-01 0. -1.
</event>
<event>
 5   0  0.3603037E+08  0.9118800E+02  0.7818608E-02  0.1180000E+00
       11   -1    0    0    0    0  0.00000000000E+00  0.00000000000E+00  0.39999999673E+01  0.40000000000E+01  0.51109989000E-03 0. -1.
     -623   -1    0    0    0    0  0.00000000000E+00  0.00000000000E+00  0.12525980253E-10  0.17130000000E+03  0.17130000000E+03 0. -1.
       11    1    1    2    0    0  0.10114060785E-03  0.62331990002E-03  0.11484479283E-01  0.11513176980E-01  0.51109989000E-03 0. -1.
     -623    1    1    2    0    0  0.60933278088E-03 -0.12478230645E-02  0.78927519699E-04  0.17130000001E+03  0.17130000000E+03 0. -1.
      622    1    1    2    0    0 -0.71047338873E-03  0.62450316450E-03  0.39884365606E+01  0.39884868174E+01  0.20000000000E-01 0. -1.
</event>
<event>
 5   0  0.3603037E+08  0.9118800E+02  0.7818608E-02  0.1180000E+00
       11   -1    0    0    0    0  0.00000000000E+00  0.00000000000E+00  0.39999999673E+01  0.40000000000E+01  0.51109989000E-03 0.  1.
     -623   -1    0    0    0    0  0.00000000000E+00  0.00000000000E+00  0.12525980253E-10  0.17130000000E+03  0.17130000000E+03 0. -1.
       11    1    1    2    0    0  0.63854511796E-02 -0.14302579393E-01  0.34362855996E+01  0.34363213355E+01  0.51109989000E-03 0.  1.
     -623    1    1    2    0    0 -0.92248319312E-03 -0.61999597822E-02  0.79047654287E-03  0.17130000012E+03  0.17130000000E+03 0. -1.
      622    1    1    2    0    0 -0.54629679865E-02  0.20502539175E-01  0.56292389122E+00  0.56367854797E+00  0.20000000000E-01 0.  0.
</event>
<event>
 5   0  0.3603037E+08  0.9118800E+02  0.7818608E-02  0.1180000E+00
       11   -1    0    0    0    0  0.00000000000E+00  0.00000000000E+00  0.39999999673E+01  0.40000000000E+01  0.51109989000E-03 0.  1.
     -623   -1    0    0    0    0  0.00000000000E+00  0.00000000000E+00  0.12525980253E-10  0.17130000000E+03  0.17130000000E+03 0. -1.
       11    1    1    2    0    0 -0.35041557632E-02  0.66933655404E-02  0.62387413589E-01  0.62845292940E-01  0.51109989000E-03 0.  1.
     -623    1    1    2    0    0  0.13996464543E-02  0.18471454641E-03  0.51522217319E-03  0.17130000001E+03  0.17130000000E+03 0. -1.
      622    1    1    2    0    0  0.21045093089E-02 -0.68780800868E-02  0.39370973316E+01  0.39371547005E+01  0.20000000000E-01 0.  1.
</event>
<event>
 5   0  0.3603037E+08  0.9118800E+02  0.7818608E-02  0.1180000E+00
       11   -1    0    0    0    0  0.00000000000E+00  0.00000000000E+00  0.39999999673E+01  0.40000000000E+01  0.51109989000E-03 0. -1.
     -623   -1    0    0    0    0  0.00000000000E+00  0.00000000000E+00  0.12525980253E-10  0.17130000000E+03  0.17130000000E+03 0.  1.
       11    1    1    2    0    0 -0.78759524446E-02 -0.20211844589E-02  0.32373625148E-01  0.33383059194E-01  0.51109989000E-03 0. -1.
     -623    1    1    2    0    0  0.39710826719E-02  0.11822575808E-02  0.10618867100E-02  0.17130000005E+03  0.17130000000E+03 0.  1.
      622    1    1    2    0    0  0.39048697728E-02  0.83892687813E-03  0.39665644555E+01  0.39666168874E+01  0.20000000000E-01 0. -1.
</event>
<event>
 5   0  0.3603037E+08  0.9118800E+02  0.7818608E-02  0.1180000E+00
       11   -1    0    0    0    0  0.00000000000E+00  0.00000000000E+00  0.39999999673E+01  0.40000000000E+01  0.51109989000E-03 0.  1.
     -623   -1    0    0    0    0  0.00000000000E+00  0.00000000000E+00  0.12525980253E-10  0.17130000000E+03  0.17130000000E+03 0.  1.
       11    1    1    2    0    0  0.15340349367E-01  0.54002989763E-02  0.32262971031E+01  0.32263381330E+01  0.51109989000E-03 0.  1.
     -623    1    1    2    0    0 -0.63266306992E-03  0.17187044192E-03  0.45948957409E-03  0.17130000000E+03  0.17130000000E+03 0.  1.
      622    1    1    2    0    0 -0.14707686297E-01 -0.55721694182E-02  0.77324337465E+00  0.77366186513E+00  0.20000000000E-01 0.  0.
</event>
<event>
 5   0  0.3603037E+08  0.9118800E+02  0.7818608E-02  0.1180000E+00
       11   -1    0    0    0    0  0.00000000000E+00  0.00000000000E+00  0.39999999673E+01  0.40000000000E+01  0.51109989000E-03 0. -1.
     -623   -1    0    0    0    0  0.00000000000E+00  0.00000000000E+00  0.12525980253E-10  0.17130000000E+03  0.17130000000E+03 0. -1.
       11    1    1    2    0    0 -0.25864583199E-01  0.44799755285E-02  0.25387087675E+00  0.25522486190E+00  0.51109989000E-03 0. -1.
     -623    1    1    2    0    0 -0.55945790389E-03 -0.22376643534E-02  0.15012838018E-02  0.17130000002E+03  0.17130000000E+03 0. -1.
      622    1    1    2    0    0  0.26424041103E-01 -0.22423111751E-02  0.37446278068E+01  0.37447751160E+01  0.20000000000E-01 0. -1.
</event>
<event>
 5   0  0.3603037E+08  0.9118800E+02  0.7818608E-02  0.1180000E+00
       11   -1    0    0    0    0  0.00000000000E+00  0.00000000000E+00  0.39999999673E+01  0.40000000000E+01  0.51109989000E-03 0.  1.
     -623   -1    0    0    0    0  0.00000000000E+00  0.00000000000E+00  0.12525980253E-10  0.17130000000E+03  0.17130000000E+03 0. -1.
       11    1    1    2    0    0 -0.75863184026E-03  0.40835400112E-02  0.85091043823E+00  0.85092072835E+00  0.51109989000E-03 0.  1.
     -623    1    1    2    0    0  0.38446804614E-03  0.22708064090E-03  0.76741932844E-04  0.17130000000E+03  0.17130000000E+03 0. -1.
      622    1    1    2    0    0  0.37416379412E-03 -0.43106206521E-02  0.31490127872E+01  0.31490792711E+01  0.20000000000E-01 0.  1.
</event>
<event>
 5   0  0.3603037E+08  0.9118800E+02  0.7818608E-02  0.1180000E+00
       11   -1    0    0    0    0  0.00000000000E+00  0.00000000000E+00  0.39999999673E+01  0.40000000000E+01  0.51109989000E-03 0. -1.
     -623   -1    0    0    0    0  0.00000000000E+00  0.00000000000E+00  0.12525980253E-10  0.17130000000E+03  0.17130000000E+03 0.  1.
       11    1    1    2    0    0 -0.28540478549E-02 -0.73556218658E-02  0.46412459484E-02  0.91680504062E-02  0.51109989000E-03 0. -1.
     -623    1    1    2    0    0  0.18100813778E-02  0.66607006258E-02  0.45772842634E-02  0.17130000020E+03  0.17130000000E+03 0.  1.
      622    1    1    2    0    0  0.10439664771E-02  0.69492124007E-03  0.39907814371E+01  0.39908317494E+01  0.20000000000E-01 0. -1.
</event>
<event>
 5   0  0.3603037E+08  0.9118800E+02  0.7818608E-02  0.1180000E+00
       11   -1    0    0    0    0  0.00000000000E+00  0.00000000000E+00  0.39999999673E+01  0.40000000000E+01  0.51109989000E-03 0. -1.
     -623   -1    0    0    0    0  0.00000000000E+00  0.00000000000E+00  0.12525980253E-10  0.17130000000E+03  0.17130000000E+03 0.  1.
       11    1    1    2    0    0 -0.14581917926E-01 -0.30469083512E-02  0.26521626379E+01  0.26522045236E+01  0.51109989000E-03 0. -1.
     -623    1    1    2    0    0 -0.26021328855E-02 -0.36149716673E-02  0.31633999871E-03  0.17130000006E+03  0.17130000000E+03 0.  1.
      622    1    1    2    0    0  0.17184050811E-01  0.66618800185E-02  0.13475209895E+01  0.13477954182E+01  0.20000000000E-01 0.  0.
</event>
<event>
 5   0  0.3603037E+08  0.9118800E+02  0.7818608E-02  0.1180000E+00
       11   -1    0    0    0    0  0.00000000000E+00  0.00000000000E+00  0.39999999673E+01  0.40000000000E+01  0.51109989000E-03 0.  1.
     -623   -1    0    0    0    0  0.00000000000E+00  0.00000000000E+00  0.12525980253E-10  0.17130000000E+03  0.17130000000E+03 0.  1.
       11    1    1    2    0    0 -0.39409107610E-03  0.19821744840E-02  0.25774444635E+00  0.25775287616E+00  0.51109989000E-03 0.  1.
     -623    1    1    2    0    0  0.66980164321E-04  0.71806956108E-05  0.62384469978E-04  0.17130000000E+03  0.17130000000E+03 0.  1.
      622    1    1    2    0    0  0.32711091178E-03 -0.19893551796E-02  0.37421931365E+01  0.37422471238E+01  0.20000000000E-01 0.  1.
</event>
<event>
 5   0  0.3603037E+08  0.9118800E+02  0.7818608E-02  0.1180000E+00
       11   -1    0    0    0    0  0.00000000000E+00  0.00000000000E+00  0.39999999673E+01  0.40000000000E+01  0.51109989000E-03 0.  1.
     -623   -1    0    0    0    0  0.00000000000E+00  0.00000000000E+00  0.12525980253E-10  0.17130000000E+03  0.17130000000E+03 0.  1.
       11    1    1    2    0    0 -0.69994771368E-03  0.15185297045E-02  0.56446836420E-01  0.56473909222E-01  0.51109989000E-03 0.  1.
     -623    1    1    2    0    0 -0.97566555334E-03 -0.21638732883E-03  0.78330429412E-04  0.17130000000E+03  0.17130000000E+03 0.  1.
      622    1    1    2    0    0  0.16756132670E-02 -0.13021423756E-02  0.39434748005E+01  0.39435260878E+01  0.20000000000E-01 0.  1.
</event>
<event>
 5   0  0.3603037E+08  0.9118800E+02  0.7818608E-02  0.1180000E+00
       11   -1    0    0    0    0  0.00000000000E+00  0.00000000000E+00  0.39999999673E+01  0.40000000000E+01  0.51109989000E-03 0. -1.
     -623   -1    0    0    0    0  0.00000000000E+00  0.00000000000E+00  0.12525980253E-10  0.17130000000E+03  0.17130000000E+03 0. -1.
       11    1    1    2    0    0  0.20310368376E-02 -0.26044874798E-02  0.42633878554E+00  0.42635188488E+00  0.51109989000E-03 0. -1.
     -623    1    1    2    0    0  0.56240270464E-04 -0.36829206298E-03  0.70878841705E-04  0.17130000000E+03  0.17130000000E+03 0. -1.
      622    1    1    2    0    0 -0.20872771080E-02  0.29727795428E-02  0.35735903030E+01  0.35736481147E+01  0.20000000000E-01 0. -1.
</event>
<event>
 5   0  0.3603037E+08  0.9118800E+02  0.7818608E-02  0.1180000E+00
       11   -1    0    0    0    0  0.00000000000E+00  0.00000000000E+00  0.39999999673E+01  0.40000000000E+01  0.51109989000E-03 0.  1.
     -623   -1    0    0    0    0  0.00000000000E+00  0.00000000000E+00  0.12525980253E-10  0.17130000000E+03  0.17130000000E+03 0. -1.
       11    1    1    2    0    0  0.59839789372E-02 -0.23615877044E-02  0.43932275656E+00  0.43937015232E+00  0.51109989000E-03 0.  1.
     -623    1    1    2    0    0 -0.37368197255E-02  0.49468163055E-02  0.10529327032E-03  0.17130000011E+03  0.17130000000E+03 0. -1.
      622    1    1    2    0    0 -0.22471592116E-02 -0.25852286011E-02  0.35605719175E+01  0.35606297355E+01  0.20000000000E-01 0.  1.
</event>
<event>
 5   0  0.3603037E+08  0.9118800E+02  0.7818608E-02  0.1180000E+00
       11   -1    0    0    0    0  0.00000000000E+00  0.00000000000E+00  0.39999999673E+01  0.40000000000E+01  0.51109989000E-03 0.  1.
     -623   -1    0    0    0    0  0.00000000000E+00  0.00000000000E+00  0.12525980253E-10  0.17130000000E+03  0.17130000000E+03 0.  1.
       11    1    1    2    0    0  0.25646403487E-02 -0.78743988133E-03  0.17796772796E+01  0.17796793752E+01  0.51109989000E-03 0.  1.
     -623    1    1    2    0    0  0.10047594371E-03  0.33313140730E-03  0.93788211500E-04  0.17130000000E+03  0.17130000000E+03 0.  1.
      622    1    1    2    0    0 -0.26651162924E-02  0.45430847404E-03  0.22202288995E+01  0.22203206245E+01  0.20000000000E-01 0.  1.
</event>
<event>
 5   0  0.3603037E+08  0.9118800E+02  0.7818608E-02  0.1180000E+00
       11   -1    0    0    0    0  0.00000000000E+00  0.00000000000E+00  0.39999999673E+01  0.40000000000E+01  0.51109989000E-03 0.  1.
     -623   -1    0    0    0    0  0.00000000000E+00  0.00000000000E+00  0.12525980253E-10  0.17130000000E+03  0.17130000000E+03 0. -1.
       11    1    1    2    0    0 -0.38176442249E-02  0.39545565456E-02  0.35887141535E-01  0.36309242267E-01  0.51109989000E-03 0.  1.
     -623    1    1    2    0    0  0.16311221512E-02 -0.18724827703E-02  0.47369503275E-03  0.17130000002E+03  0.17130000000E+03 0. -1.
      622    1    1    2    0    0  0.21865220736E-02 -0.20820737753E-02  0.39636391308E+01  0.39636907391E+01  0.20000000000E-01 0.  1.
</event>
<event>
 5   0  0.3603037E+08  0.9118800E+02  0.7818608E-02  0.1180000E+00
       11   -1    0    0    0    0  0.00000000000E+00  0.00000000000E+00  0.39999999673E+01  0.40000000000E+01  0.51109989000E-03 0.  1.
     -623   -1    0    0    0    0  0.00000000000E+00  0.00000000000E+00  0.12525980253E-10  0.17130000000E+03  0.17130000000E+03 0. -1.
       11    1    1    2    0    0 -0.39178732080E-02  0.18307302298E-02  0.23690186399E+00  0.23694188251E+00  0.51109989000E-03 0.  1.
     -623    1    1    2    0    0 -0.12735509964E-03 -0.30230258539E-03  0.95619569513E-04  0.17130000000E+03  0.17130000000E+03 0. -1.
      622    1    1    2    0    0  0.40452283076E-02 -0.15284276444E-02  0.37630024838E+01  0.37630581172E+01  0.20000000000E-01 0.  1.
</event>
<event>
 5   0  0.3603037E+08  0.9118800E+02  0.7818608E-02  0.1180000E+00
       11   -1    0    0    0    0  0.00000000000E+00  0.00000000000E+00  0.39999999673E+01  0.40000000000E+01  0.51109989000E-03 0. -1.
     -623   -1    0    0    0    0  0.00000000000E+00  0.00000000000E+00  0.12525980253E-10  0.17130000000E+03  0.17130000000E+03 0. -1.
       11    1    1    2    0    0  0.30213224920E-03  0.31700631691E-03  0.15553351200E-01  0.15567907101E-01  0.51109989000E-03 0. -1.
     -623    1    1    2    0    0  0.65685097033E-04 -0.22503640916E-03  0.64737147291E-04  0.17130000000E+03  0.17130000000E+03 0. -1.
      622    1    1    2    0    0 -0.36781734623E-03 -0.91969907752E-04  0.39843818790E+01  0.39844320927E+01  0.20000000000E-01 0. -1.
</event>
<event>
 5   0  0.3603037E+08  0.9118800E+02  0.7818608E-02  0.1180000E+00
       11   -1    0    0    0    0  0.00000000000E+00  0.00000000000E+00  0.39999999673E+01  0.40000000000E+01  0.51109989000E-03 0. -1.
     -623   -1    0    0    0    0  0.00000000000E+00  0.00000000000E+00  0.12525980253E-10  0.17130000000E+03  0.17130000000E+03 0.  1.
       11    1    1    2    0    0 -0.59146279703E-03  0.99029750341E-03  0.82704263986E-01  0.82713886502E-01  0.51109989000E-03 0. -1.
     -623    1    1    2    0    0 -0.62429635937E-03 -0.30613071831E-04  0.60953334332E-04  0.17130000000E+03  0.17130000000E+03 0.  1.
      622    1    1    2    0    0  0.12157591564E-02 -0.95968443158E-03  0.39172347500E+01  0.39172861123E+01  0.20000000000E-01 0. -1.
</event>
<event>
 5   0  0.3603037E+08  0.9118800E+02  0.7818608E-02  0.1180000E+00
       11   -1    0    0    0    0  0.00000000000E+00  0.00000000000E+00  0.39999999673E+01  0.40000000000E+01  0.51109989000E-03 0.  1.
     -623   -1    0    0    0    0  0.00000000000E+00  0.00000000000E+00  0.12525980253E-10  0.17130000000E+03  0.17130000000E+03 0. -1.
       11    1    1    2    0    0 -0.36183770370E-02 -0.35744787565E-03  0.18241940857E+00  0.18245635716E+00  0.51109989000E-03 0.  1.
     -623    1    1    2    0    0 -0.61964131635E-04  0.19719535950E-02  0.91432863912E-04  0.17130000001E+03  0.17130000000E+03 0. -1.
      622    1    1    2    0    0  0.36803411686E-02 -0.16145057194E-02  0.38174891259E+01  0.38175436315E+01  0.20000000000E-01 0.  1.
</event>
<event>
 5   0  0.3603037E+08  0.9118800E+02  0.7818608E-02  0.1180000E+00
       11   -1    0    0    0    0  0.00000000000E+00  0.00000000000E+00  0.39999999673E+01  0.40000000000E+01  0.51109989000E-03 0. -1.
     -623   -1    0    0    0    0  0.00000000000E+00  0.00000000000E+00  0.12525980253E-10  0.17130000000E+03  0.17130000000E+03 0.  1.
       11    1    1    2    0    0  0.59086719226E-03  0.59739029135E-03  0.41892693064E-01  0.41904235497E-01  0.51109989000E-03 0. -1.
     -623    1    1    2    0    0 -0.16237556945E-02  0.83966195838E-04  0.62240608009E-04  0.17130000001E+03  0.17130000000E+03 0.  1.
      622    1    1    2    0    0  0.10328885023E-02 -0.68135648719E-03  0.39580450337E+01  0.39580957568E+01  0.20000000000E-01 0. -1.
</event>
<event>
 5   0  0.3603037E+08  0.9118800E+02  0.7818608E-02  0.1180000E+00
       11   -1    0    0    0    0  0.00000000000E+00  0.00000000000E+00  0.39999999673E+01  0.40000000000E+01  0.51109989000E-03 0. -1.
     -623   -1    0    0    0    0  0.00000000000E+00  0.00000000000E+00  0.12525980253E-10  0.17130000000E+03  0.17130000000E+03 0.  1.
       11    1    1    2    0    0 -0.75424252526E-02  0.83903564987E-02  0.90958303748E-01  0.91656753728E-01  0.51109989000E-03 0. -1.
     -623    1    1    2    0    0  0.10999848885E-02  0.20596821318E-02  0.76888853007E-03  0.17130000002E+03  0.17130000000E+03 0.  1.
      622    1    1    2    0    0  0.64424403641E-02 -0.10450038631E-01  0.39082727751E+01  0.39083432286E+01  0.20000000000E-01 0. -1.
</event>
<event>
 5   0  0.3603037E+08  0.9118800E+02  0.7818608E-02  0.1180000E+00
       11   -1    0    0    0    0  0.00000000000E+00  0.00000000000E+00  0.39999999673E+01  0.40000000000E+01  0.51109989000E-03 0.  1.
     -623   -1    0    0    0    0  0.00000000000E+00  0.00000000000E+00  0.12525980253E-10  0.17130000000E+03  0.17130000000E+03 0.  1.
       11    1    1    2    0    0 -0.57598930402E-02  0.51361599913E-02  0.19835053631E+01  0.19835204419E+01  0.51109989000E-03 0.  1.
     -623    1    1    2    0    0  0.54943501842E-03 -0.26651788760E-03  0.12684473979E-03  0.17130000000E+03  0.17130000000E+03 0.  1.
      622    1    1    2    0    0  0.52104580218E-02 -0.48696421037E-02  0.20163677595E+01  0.20164795570E+01  0.20000000000E-01 0.  1.
</event>
<event>
 5   0  0.3603037E+08  0.9118800E+02  0.7818608E-02  0.1180000E+00
       11   -1    0    0    0    0  0.00000000000E+00  0.00000000000E+00  0.39999999673E+01  0.40000000000E+01  0.51109989000E-03 0.  1.
     -623   -1    0    0    0    0  0.00000000000E+00  0.00000000000E+00  0.12525980253E-10  0.17130000000E+03  0.17130000000E+03 0.  1.
       11    1    1    2    0    0 -0.27177852391E-03  0.29725321167E-02  0.56918917739E+00  0.56919723356E+00  0.51109989000E-03 0.  1.
     -623    1    1    2    0    0 -0.20479811028E-03 -0.35804331681E-03  0.67349248991E-04  0.17130000000E+03  0.17130000000E+03 0.  1.
      622    1    1    2    0    0  0.47657663419E-03 -0.26144887999E-02  0.34307434407E+01  0.34308027659E+01  0.20000000000E-01 0.  1.
</event>
<event>
 5   0  0.3603037E+08  0.9118800E+02  0.7818608E-02  0.1180000E+00
       11   -1    0    0    0    0  0.00000000000E+00  0.00000000000E+00  0.39999999673E+01  0.40000000000E+01  0.51109989000E-03 0.  1.
     -623   -1    0    0    0    0  0.00000000000E+00  0.00000000000E+00  0.12525980253E-10  0.17130000000E+03  0.17130000000E+03 0. -1.
       11    1    1    2    0    0  0.34504646746E-02  0.18546403165E-03  0.12570305475E+01  0.12570354008E+01  0.51109989000E-03 0.  1.
     -623    1    1    2    0    0 -0.32706957267E-03 -0.11071839706E-02  0.79672482269E-04  0.17130000000E+03  0.17130000000E+03 0. -1.
      622    1    1    2    0    0 -0.31233951020E-02  0.92171993891E-03  0.27428897473E+01  0.27429645953E+01  0.20000000000E-01 0.  1.
</event>
<event>
 5   0  0.3603037E+08  0.9118800E+02  0.7818608E-02  0.1180000E+00
       11   -1    0    0    0    0  0.00000000000E+00  0.00000000000E+00  0.39999999673E+01  0.40000000000E+01  0.51109989000E-03 0.  1.
     -623   -1    0    0    0    0  0.00000000000E+00  0.00000000000E+00  0.12525980253E-10  0.17130000000E+03  0.17130000000E+03 0. -1.
       11    1    1    2    0    0  0.54539505732E-03  0.65307838933E-02  0.18853459739E+01  0.18853574333E+01  0.51109989000E-03 0.  1.
     -623    1    1    2    0    0 -0.22817779488E-03  0.22245198295E-04  0.11618545748E-03  0.17130000000E+03  0.17130000000E+03 0. -1.
      622    1    1    2    0    0 -0.31721726244E-03 -0.65530290916E-02  0.21145378080E+01  0.21146425665E+01  0.20000000000E-01 0.  1.
</event>
<event>
 5   0  0.3603037E+08  0.9118800E+02  0.7818608E-02  0.1180000E+00
       11   -1    0    0    0    0  0.00000000000E+00  0.00000000000E+00  0.39999999673E+01  0.40000000000E+01  0.51109989000E-03 0.  1.
     -623   -1    0    0    0    0  0.00000000000E+00  0.00000000000E+00  0.12525980253E-10  0.17130000000E+03  0.17130000000E+03 0. -1.
       11    1    1    2    0    0 -0.98125602808E-04  0.28060591773E-02  0.45707458576E+00  0.45708349539E+00  0.51109989000E-03 0.  1.
     -623    1    1    2    0    0 -0.72666562360E-04 -0.45273174814E-03  0.66114451135E-04  0.17130000000E+03  0.17130000000E+03 0. -1.
      622    1    1    2    0    0  0.17079216517E-03 -0.23533274292E-02  0.35428592672E+01  0.35429165040E+01  0.20000000000E-01 0.  1.
</event>
<event>
 5   0  0.3603037E+08  0.9118800E+02  0.7818608E-02  0.1180000E+00
       11   -1    0    0    0    0  0.00000000000E+00  0.00000000000E+00  0.39999999673E+01  0.40000000000E+01  0.51109989000E-03 0. -1.
     -623   -1    0    0    0    0  0.00000000000E+00  0.00000000000E+00  0.12525980253E-10  0.17130000000E+03  0.17130000000E+03 0. -1.
       11    1    1    2    0    0  0.31991814561E-02 -0.52094437741E-02  0.58193397787E+00  0.58196631250E+00  0.51109989000E-03 0. -1.
     -623    1    1    2    0    0 -0.14809260011E-02 -0.62470636984E-03  0.96234294502E-04  0.17130000001E+03  0.17130000000E+03 0. -1.
      622    1    1    2    0    0 -0.17182554550E-02  0.58341501440E-02  0.34179697552E+01  0.34180336799E+01  0.20000000000E-01 0. -1.
</event>
<event>
 5   0  0.3603037E+08  0.9118800E+02  0.7818608E-02  0.1180000E+00
       11   -1    0    0    0    0  0.00000000000E+00  0.00000000000E+00  0.39999999673E+01  0.40000000000E+01  0.51109989000E-03 0. -1.
     -623   -1    0    0    0    0  0.00000000000E+00  0.00000000000E+00  0.12525980253E-10  0.17130000000E+03  0.17130000000E+03 0.  1.
       11    1    1    2    0    0  0.88532845822E-03  0.52685154018E-02  0.18156611502E+00  0.18164541394E+00  0.51109989000E-03 0. -1.
     -623    1    1    2    0    0  0.46897885200E-03 -0.94754045070E-04  0.13539132210E-03  0.17130000000E+03  0.17130000000E+03 0.  1.
      622    1    1    2    0    0 -0.13543073102E-02 -0.51737613567E-02  0.38182984610E+01  0.38183545853E+01  0.20000000000E-01 0. -1.
</event>
<event>
 5   0  0.3603037E+08  0.9118800E+02  0.7818608E-02  0.1180000E+00
       11   -1    0    0    0    0  0.00000000000E+00  0.00000000000E+00  0.39999999673E+01  0.40000000000E+01  0.51109989000E-03 0.  1.
     -623   -1    0    0    0    0  0.00000000000E+00  0.00000000000E+00  0.12525980253E-10  0.17130000000E+03  0.17130000000E+03 0.  1.
       11    1    1    2    0    0 -0.24541444708E-03 -0.62219921315E-03  0.24083589124E-01  0.24098295518E-01  0.51109989000E-03 0.  1.
     -623    1    1    2    0    0  0.18890683669E-03 -0.15801579909E-03  0.65054271611E-04  0.17130000000E+03  0.17130000000E+03 0.  1.
      622    1    1    2    0    0  0.56507610395E-04  0.78021501225E-03  0.39758513240E+01  0.39759017043E+01  0.20000000000E-01 0.  1.
</event>
<event>
 5   0  0.3603037E+08  0.9118800E+02  0.7818608E-02  0.1180000E+00
       11   -1    0    0    0    0  0.00000000000E+00  0.00000000000E+00  0.39999999673E+01  0.40000000000E+01  0.51109989000E-03 0.  1.
     -623   -1    0    0    0    0  0.00000000000E+00  0.00000000000E+00  0.12525980253E-10  0.17130000000E+03  0.17130000000E+03 0.  1.
       11    1    1    2    0    0 -0.36591579408E-02  0.77371306050E-03  0.22090477529E+00  0.22093702504E+00  0.51109989000E-03 0.  1.
     -623    1    1    2    0    0  0.35679753233E-03 -0.17419393806E-02  0.86716858779E-04  0.17130000001E+03  0.17130000000E+03 0.  1.
      622    1    1    2    0    0  0.33023604085E-02  0.96822632005E-03  0.37790084752E+01  0.37790629657E+01  0.20000000000E-01 0.  1.
</event>
<event>
 5   0  0.3603037E+08  0.9118800E+02  0.7818608E-02  0.1180000E+00
       11   -1    0    0    0    0  0.00000000000E+00  0.00000000000E+00  0.39999999673E+01  0.40000000000E+01  0.51109989000E-03 0.  1.
     -623   -1    0    0    0    0  0.00000000000E+00  0.00000000000E+00  0.12525980253E-10  0.17130000000E+03  0.17130000000E+03 0.  1.
       11    1    1    2    0    0 -0.39890974416E-03 -0.67275102548E-02  0.36516387995E-01  0.37136590280E-01  0.51109989000E-03 0.  1.
     -623    1    1    2    0    0 -0.17672475138E-03  0.35248786474E-03  0.67580990817E-03  0.17130000000E+03  0.17130000000E+03 0.  1.
      622    1    1    2    0    0  0.57563449554E-03  0.63750223901E-02  0.39628077695E+01  0.39628634079E+01  0.20000000000E-01 0.  1.
</event>
<event>
 5   0  0.3603037E+08  0.9118800E+02  0.7818608E-02  0.1180000E+00
       11   -1    0    0    0    0  0.00000000000E+00  0.00000000000E+00  0.39999999673E+01  0.40000000000E+01  0.51109989000E-03 0. -1.
     -623   -1    0    0    0    0  0.00000000000E+00  0.00000000000E+00  0.12525980253E-10  0.17130000000E+03  0.17130000000E+03 0.  1.
       11    1    1    2    0    0  0.19323160912E-02  0.23172905641E-02  0.22681530429E+00  0.22683594769E+00  0.51109989000E-03 0. -1.
     -623    1    1    2    0    0  0.12049912229E-03  0.19853229466E-03  0.75014391965E-04  0.17130000000E+03  0.17130000000E+03 0.  1.
      622    1    1    2    0    0 -0.20528152135E-02 -0.25158228587E-02  0.37731096487E+01  0.37731640521E+01  0.20000000000E-01 0. -1.
</event>
<event>
 5   0  0.3603037E+08  0.9118800E+02  0.7818608E-02  0.1180000E+00
       11   -1    0    0    0    0  0.00000000000E+00  0.00000000000E+00  0.39999999673E+01  0.40000000000E+01  0.51109989000E-03 0.  1.
     -623   -1    0    0    0    0  0.00000000000E+00  0.00000000000E+00  0.12525980253E-10  0.17130000000E+03  0.17130000000E+03 0. -1.
       11    1    1    2    0    0  0.45754199843E-02  0.25490138637E-01  0.10456360700E+01  0.10459568509E+01  0.51109989000E-03 0.  1.
     -623    1    1    2    0    0 -0.54225188896E-02  0.46065857640E-02  0.54204781547E-03  0.17130000015E+03  0.17130000000E+03 0. -1.
      622    1    1    2    0    0  0.84709890527E-03 -0.30096724401E-01  0.29538218495E+01  0.29540430005E+01  0.20000000000E-01 0.  1.
</event>
<event>
 5   0  0.3603037E+08  0.9118800E+02  0.7818608E-02  0.1180000E+00
       11   -1    0    0    0    0  0.00000000000E+00  0.00000000000E+00  0.39999999673E+01  0.40000000000E+01  0.51109989000E-03 0. -1.
     -623   -1    0    0    0    0  0.00000000000E+00  0.00000000000E+00  0.12525980253E-10  0.17130000000E+03  0.17130000000E+03 0.  1.
       11    1    1    2    0    0 -0.98916638743E-03  0.19469984226E-02  0.11975965406E-01  0.12184179165E-01  0.51109989000E-03 0.  1.
     -623    1    1    2    0    0  0.18318215294E-03 -0.10067105042E-02  0.25852976018E-03  0.17130000000E+03  0.17130000000E+03 0.  1.
      622    1    1    2    0    0  0.80598423450E-03 -0.94028791835E-03  0.39877654722E+01  0.39878158176E+01  0.20000000000E-01 0. -1.
</event>
<event>
 5   0  0.3603037E+08  0.9118800E+02  0.7818608E-02  0.1180000E+00
       11   -1    0    0    0    0  0.00000000000E+00  0.00000000000E+00  0.39999999673E+01  0.40000000000E+01  0.51109989000E-03 0. -1.
     -623   -1    0    0    0    0  0.00000000000E+00  0.00000000000E+00  0.12525980253E-10  0.17130000000E+03  0.17130000000E+03 0.  1.
       11    1    1    2    0    0  0.98522407722E-03 -0.61056094764E-03  0.96556701122E-01  0.96565010242E-01  0.51109989000E-03 0. -1.
     -623    1    1    2    0    0 -0.55464348018E-04 -0.20873032059E-04  0.59675563200E-04  0.17130000000E+03  0.17130000000E+03 0.  1.
      622    1    1    2    0    0 -0.92975972920E-03  0.63143397970E-03  0.39033835907E+01  0.39034349897E+01  0.20000000000E-01 0. -1.
</event>
<event>
 5   0  0.3603037E+08  0.9118800E+02  0.7818608E-02  0.1180000E+00
       11   -1    0    0    0    0  0.00000000000E+00  0.00000000000E+00  0.39999999673E+01  0.40000000000E+01  0.51109989000E-03 0.  1.
     -623   -1    0    0    0    0  0.00000000000E+00  0.00000000000E+00  0.12525980253E-10  0.17130000000E+03  0.17130000000E+03 0. -1.
       11    1    1    2    0    0  0.25277613088E-02  0.12972756910E-01  0.79034246456E+00  0.79045313239E+00  0.51109989000E-03 0.  1.
     -623    1    1    2    0    0 -0.11369440817E-01 -0.19903904105E-01  0.19414673704E-03  0.17130000153E+03  0.17130000000E+03 0. -1.
      622    1    1    2    0    0  0.88416795079E-02  0.69311471953E-02  0.32094633561E+01  0.32095453338E+01  0.20000000000E-01 0.  1.
</event>
<event>
 5   0  0.3603037E+08  0.9118800E+02  0.7818608E-02  0.1180000E+00
       11   -1    0    0    0    0  0.00000000000E+00  0.00000000000E+00  0.39999999673E+01  0.40000000000E+01  0.51109989000E-03 0.  1.
     -623   -1    0    0    0    0  0.00000000000E+00  0.00000000000E+00  0.12525980253E-10  0.17130000000E+03  0.17130000000E+03 0. -1.
       11    1    1    2    0    0  0.86476169226E-04 -0.54888436467E-03  0.12321301742E+00  0.12321533036E+00  0.51109989000E-03 0.  1.
     -623    1    1    2    0    0 -0.11724670755E-03 -0.49129719194E-03  0.54010208250E-04  0.17130000000E+03  0.17130000000E+03 0. -1.
      622    1    1    2    0    0  0.30770538321E-04  0.10401815566E-02  0.38767329397E+01  0.38767846689E+01  0.20000000000E-01 0.  1.
</event>
<event>
 5   0  0.3603037E+08  0.9118800E+02  0.7818608E-02  0.1180000E+00
       11   -1    0    0    0    0  0.00000000000E+00  0.00000000000E+00  0.39999999673E+01  0.40000000000E+01  0.51109989000E-03 0.  1.
     -623   -1    0    0    0    0  0.00000000000E+00  0.00000000000E+00  0.12525980253E-10  0.17130000000E+03  0.17130000000E+03 0. -1.
       11    1    1    2    0    0 -0.19680162729E-01 -0.19757619366E-01  0.75273482204E+00  0.75325138291E+00  0.51109989000E-03 0.  1.
     -623    1    1    2    0    0  0.36841840276E-03  0.12803306942E-02  0.68815004185E-03  0.17130000001E+03  0.17130000000E+03 0. -1.
      622    1    1    2    0    0  0.19311744327E-01  0.18477288672E-01  0.32465769953E+01  0.32467486105E+01  0.20000000000E-01 0.  1.
</event>
<event>
 5   0  0.3603037E+08  0.9118800E+02  0.7818608E-02  0.1180000E+00
       11   -1    0    0    0    0  0.00000000000E+00  0.00000000000E+00  0.39999999673E+01  0.40000000000E+01  0.51109989000E-03 0.  1.
     -623   -1    0    0    0    0  0.00000000000E+00  0.00000000000E+00  0.12525980253E-10  0.17130000000E+03  0.17130000000E+03 0.  1.
       11    1    1    2    0    0 -0.32149669616E-02 -0.25294985662E-03  0.33325945933E-01  0.33485517619E-01  0.51109989000E-03 0.  1.
     -623    1    1    2    0    0  0.18244858091E-03  0.37872977584E-03  0.21112334974E-03  0.17130000000E+03  0.17130000000E+03 0.  1.
      622    1    1    2    0    0  0.30325183806E-02 -0.12577991922E-03  0.39664628981E+01  0.39665144817E+01  0.20000000000E-01 0.  1.
</event>
<event>
 5   0  0.3603037E+08  0.9118800E+02  0.7818608E-02  0.1180000E+00
       11   -1    0    0    0    0  0.00000000000E+00  0.00000000000E+00  0.39999999673E+01  0.40000000000E+01  0.51109989000E-03 0.  1.
     -623   -1    0    0    0    0  0.00000000000E+00  0.00000000000E+00  0.12525980253E-10  0.17130000000E+03  0.17130000000E+03 0. -1.
       11    1    1    2    0    0 -0.17703249232E-03 -0.30324975783E-03  0.22728776147E+00  0.22728860736E+00  0.51109989000E-03 0.  1.
     -623    1    1    2    0    0 -0.58857364142E-03 -0.20117060494E-02  0.54626655945E-04  0.17130000001E+03  0.17130000000E+03 0. -1.
      622    1    1    2    0    0  0.76560613374E-03  0.23149558072E-02  0.37726575792E+01  0.37727113798E+01  0.20000000000E-01 0.  1.
</event>
<event>
 5   0  0.3603037E+08  0.9118800E+02  0.7818608E-02  0.1180000E+00
       11   -1    0    0    0    0  0.00000000000E+00  0.00000000000E+00  0.39999999673E+01  0.40000000000E+01  0.51109989000E-03 0.  1.
     -623   -1    0    0    0    0  0.00000000000E+00  0.00000000000E+00  0.12525980253E-10  0.17130000000E+03  0.17130000000E+03 0.  1.
       11    1    1    2    0    0 -0.23795047503E-01 -0.79809565251E-02  0.29962456980E+01  0.29963508546E+01  0.51109989000E-03 0.  1.
     -623    1    1    2    0    0 -0.26169474710E-02 -0.19645327134E-02  0.70141174266E-03  0.17130000003E+03  0.17130000000E+03 0.  1.
      622    1    1    2    0    0  0.26411994974E-01  0.99454892385E-02  0.10030528576E+01  0.10036491127E+01  0.20000000000E-01 0.  0.
</event>
<event>
 5   0  0.3603037E+08  0.9118800E+02  0.7818608E-02  0.1180000E+00
       11   -1    0    0    0    0  0.00000000000E+00  0.00000000000E+00  0.39999999673E+01  0.40000000000E+01  0.51109989000E-03 0.  1.
     -623   -1    0    0    0    0  0.00000000000E+00  0.00000000000E+00  0.12525980253E-10  0.17130000000E+03  0.17130000000E+03 0.  1.
       11    1    1    2    0    0  0.93198364595E-02 -0.19662190038E-01  0.23732285448E+01  0.23733283482E+01  0.51109989000E-03 0.  1.
     -623    1    1    2    0    0  0.35373059873E-02  0.84265521286E-02  0.31259331648E-03  0.17130000024E+03  0.17130000000E+03 0.  1.
      622    1    1    2    0    0 -0.12857142447E-01  0.11235637909E-01  0.16264588292E+01  0.16266714078E+01  0.20000000000E-01 0.  1.
</event>
<event>
 5   0  0.3603037E+08  0.9118800E+02  0.7818608E-02  0.1180000E+00
       11   -1    0    0    0    0  0.00000000000E+00  0.00000000000E+00  0.39999999673E+01  0.40000000000E+01  0.51109989000E-03 0.  1.
     -623   -1    0    0    0    0  0.00000000000E+00  0.00000000000E+00  0.12525980253E-10  0.17130000000E+03  0.17130000000E+03 0.  1.
       11    1    1    2    0    0  0.21194724139E-02  0.33815542181E-02  0.10753272951E+00  0.10760797465E+00  0.51109989000E-03 0.  1.
     -623    1    1    2    0    0 -0.27675800093E-02  0.47655786480E-03  0.12858424550E-03  0.17130000002E+03  0.17130000000E+03 0.  1.
      622    1    1    2    0    0  0.64810759534E-03 -0.38581120829E-02  0.38923386536E+01  0.38923920023E+01  0.20000000000E-01 0.  1.
</event>
<event>
 5   0  0.3603037E+08  0.9118800E+02  0.7818608E-02  0.1180000E+00
       11   -1    0    0    0    0  0.00000000000E+00  0.00000000000E+00  0.39999999673E+01  0.40000000000E+01  0.51109989000E-03 0.  1.
     -623   -1    0    0    0    0  0.00000000000E+00  0.00000000000E+00  0.12525980253E-10  0.17130000000E+03  0.17130000000E+03 0. -1.
       11    1    1    2    0    0 -0.24983310885E-02  0.32797492222E-02  0.30855578702E+00  0.30858375417E+00  0.51109989000E-03 0.  1.
     -623    1    1    2    0    0 -0.74042619294E-03 -0.21835961269E-03  0.84806705396E-04  0.17130000000E+03  0.17130000000E+03 0. -1.
      622    1    1    2    0    0  0.32387572814E-02 -0.30613896095E-02  0.36913593736E+01  0.36914162441E+01  0.20000000000E-01 0.  1.
</event>
<event>
 5   0  0.3603037E+08  0.9118800E+02  0.7818608E-02  0.1180000E+00
       11   -1    0    0    0    0  0.00000000000E+00  0.00000000000E+00  0.39999999673E+01  0.40000000000E+01  0.51109989000E-03 0. -1.
     -623   -1    0    0    0    0  0.00000000000E+00  0.00000000000E+00  0.12525980253E-10  0.17130000000E+03  0.17130000000E+03 0.  1.
       11    1    1    2    0    0  0.27150795921E-03 -0.10780402424E-01  0.79964010819E+00  0.79971298266E+00  0.51109989000E-03 0. -1.
     -623    1    1    2    0    0  0.51915038062E-02 -0.34738105559E-02  0.17185895395E-03  0.17130000011E+03  0.17130000000E+03 0.  1.
      622    1    1    2    0    0 -0.54630117654E-02  0.14254212980E-01  0.32001880002E+01  0.32002869034E+01  0.20000000000E-01 0.  0.
</event>
<event>
 5   0  0.3603037E+08  0.9118800E+02  0.7818608E-02  0.1180000E+00
       11   -1    0    0    0    0  0.00000000000E+00  0.00000000000E+00  0.39999999673E+01  0.40000000000E+01  0.51109989000E-03 0.  1.
     -623   -1    0    0    0    0  0.00000000000E+00  0.00000000000E+00  0.12525980253E-10  0.17130000000E+03  0.17130000000E+03 0.  1.
       11    1    1    2    0    0 -0.19719942589E-02 -0.53530699707E-02  0.35458458761E+00  0.35463084343E+00  0.51109989000E-03 0.  1.
     -623    1    1    2    0    0 -0.18076478322E-03 -0.27778880867E-04  0.10569484950E-03  0.17130000000E+03  0.17130000000E+03 0.  1.
      622    1    1    2    0    0  0.21527590422E-02  0.53808488516E-02  0.36453096849E+01  0.36453691564E+01  0.20000000000E-01 0.  1.
</event>
<event>
 5   0  0.3603037E+08  0.9118800E+02  0.7818608E-02  0.1180000E+00
       11   -1    0    0    0    0  0.00000000000E+00  0.00000000000E+00  0.39999999673E+01  0.40000000000E+01  0.51109989000E-03 0.  1.
     -623   -1    0    0    0    0  0.00000000000E+00  0.00000000000E+00  0.12525980253E-10  0.17130000000E+03  0.17130000000E+03 0.  1.
       11    1    1    2    0    0 -0.12465017056E-02 -0.29078148471E-02  0.34150256669E+00  0.34151760340E+00  0.51109989000E-03 0.  1.
     -623    1    1    2    0    0 -0.43167292855E-04  0.48000334301E-02  0.70455889349E-04  0.17130000007E+03  0.17130000000E+03 0.  1.
      622    1    1    2    0    0  0.12896689984E-02 -0.18922185830E-02  0.36584269448E+01  0.36584823293E+01  0.20000000000E-01 0.  1.
</event>
<event>
 5   0  0.3603037E+08  0.9118800E+02  0.7818608E-02  0.1180000E+00
       11   -1    0    0    0    0  0.00000000000E+00  0.00000000000E+00  0.39999999673E+01  0.40000000000E+01  0.51109989000E-03 0. -1.
     -623   -1    0    0    0    0  0.00000000000E+00  0.00000000000E+00  0.12525980253E-10  0.17130000000E+03  0.17130000000E+03 0.  1.
       11    1    1    2    0    0 -0.23163249685E-01 -0.85236023426E-02  0.10008217403E+01  0.10011261684E+01  0.51109989000E-03 0. -1.
     -623    1    1    2    0    0  0.82461996901E-03  0.34568275049E-03  0.46544530683E-03  0.17130000000E+03  0.17130000000E+03 0.  1.
      622    1    1    2    0    0  0.22338629716E-01  0.81779195921E-02  0.29987127818E+01  0.29988738287E+01  0.20000000000E-01 0.  0.
</event>
<event>
 5   0  0.3603037E+08  0.9118800E+02  0.7818608E-02  0.1180000E+00
       11   -1    0    0    0    0  0.00000000000E+00  0.00000000000E+00  0.39999999673E+01  0.40000000000E+01  0.51109989000E-03 0.  1.
     -623   -1    0    0    0    0  0.00000000000E+00  0.00000000000E+00  0.12525980253E-10  0.17130000000E+03  0.17130000000E+03 0.  1.
       11    1    1    2    0    0  0.37567032050E-05 -0.86063982445E-02  0.97250045378E-01  0.97631463431E-01  0.51109989000E-03 0.  1.
     -623    1    1    2    0    0 -0.61387859288E-03  0.86791777340E-04  0.44198615100E-03  0.17130000000E+03  0.17130000000E+03 0.  1.
      622    1    1    2    0    0  0.61012188967E-03  0.85196064671E-02  0.39023079358E+01  0.39023685349E+01  0.20000000000E-01 0.  1.
</event>
<event>
 5   0  0.3603037E+08  0.9118800E+02  0.7818608E-02  0.1180000E+00
       11   -1    0    0    0    0  0.00000000000E+00  0.00000000000E+00  0.39999999673E+01  0.40000000000E+01  0.51109989000E-03 0. -1.
     -623   -1    0    0    0    0  0.00000000000E+00  0.00000000000E+00  0.12525980253E-10  0.17130000000E+03  0.17130000000E+03 0.  1.
       11    1    1    2    0    0 -0.61477851292E-02 -0.10835069604E-02  0.16862813570E+00  0.16874441805E+00  0.51109989000E-03 0. -1.
     -623    1    1    2    0    0  0.12344188071E-02  0.34547935616E-02  0.17237608616E-03  0.17130000004E+03  0.17130000000E+03 0.  1.
      622    1    1    2    0    0  0.49133663220E-02 -0.23712866013E-02  0.38311994556E+01  0.38312555426E+01  0.20000000000E-01 0. -1.
</event>
<event>
 5   0  0.3603037E+08  0.9118800E+02  0.7818608E-02  0.1180000E+00
       11   -1    0    0    0    0  0.00000000000E+00  0.00000000000E+00  0.39999999673E+01  0.40000000000E+01  0.51109989000E-03 0. -1.
     -623   -1    0    0    0    0  0.00000000000E+00  0.00000000000E+00  0.12525980253E-10  0.17130000000E+03  0.17130000000E+03 0. -1.
       11    1    1    2    0    0 -0.18565667397E-02  0.15463889721E-02  0.61679348407E-01  0.61728772868E-01  0.51109989000E-03 0. -1.
     -623    1    1    2    0    0 -0.10910220692E-03 -0.16711856808E-03  0.10090808586E-03  0.17130000000E+03  0.17130000000E+03 0. -1.
      622    1    1    2    0    0  0.19656689466E-02 -0.13792704040E-02  0.39382197109E+01  0.39382712270E+01  0.20000000000E-01 0. -1.
</event>
<event>
 5   0  0.3603037E+08  0.9118800E+02  0.7818608E-02  0.1180000E+00
       11   -1    0    0    0    0  0.00000000000E+00  0.00000000000E+00  0.39999999673E+01  0.40000000000E+01  0.51109989000E-03 0.  1.
     -623   -1    0    0    0    0  0.00000000000E+00  0.00000000000E+00  0.12525980253E-10  0.17130000000E+03  0.17130000000E+03 0. -1.
       11    1    1    2    0    0  0.16633865462E-01 -0.60856058006E-02  0.15690653293E+01  0.15691653798E+01  0.51109989000E-03 0.  1.
     -623    1    1    2    0    0 -0.11945864368E-02  0.45289474248E-03  0.23785968186E-03  0.17130000000E+03  0.17130000000E+03 0. -1.
      622    1    1    2    0    0 -0.15439279025E-01  0.56327110581E-02  0.24306967783E+01  0.24308346153E+01  0.20000000000E-01 0.  0.
</event>
<event>
 5   0  0.3603037E+08  0.9118800E+02  0.7818608E-02  0.1180000E+00
       11   -1    0    0    0    0  0.00000000000E+00  0.00000000000E+00  0.39999999673E+01  0.40000000000E+01  0.51109989000E-03 0. -1.
     -623   -1    0    0    0    0  0.00000000000E+00  0.00000000000E+00  0.12525980253E-10  0.17130000000E+03  0.17130000000E+03 0. -1.
       11    1    1    2    0    0  0.70195335043E-02 -0.33344937317E-02  0.17318175958E+01  0.17318351074E+01  0.51109989000E-03 0. -1.
     -623    1    1    2    0    0 -0.19788291180E-02  0.16078267010E-03  0.11349104602E-03  0.17130000001E+03  0.17130000000E+03 0. -1.
      622    1    1    2    0    0 -0.50407043863E-02  0.31737110616E-02  0.22680688805E+01  0.22681648811E+01  0.20000000000E-01 0.  0.
</event>
<event>
 5   0  0.3603037E+08  0.9118800E+02  0.7818608E-02  0.1180000E+00
       11   -1    0    0    0    0  0.00000000000E+00  0.00000000000E+00  0.39999999673E+01  0.40000000000E+01  0.51109989000E-03 0. -1.
     -623   -1    0    0    0    0  0.00000000000E+00  0.00000000000E+00  0.12525980253E-10  0.17130000000E+03  0.17130000000E+03 0.  1.
       11    1    1    2    0    0  0.19231225286E-02  0.76737839807E-03  0.21609267625E+00  0.21610320039E+00  0.51109989000E-03 0. -1.
     -623    1    1    2    0    0 -0.15028252521E-02 -0.32492534778E-02  0.64222148110E-04  0.17130000004E+03  0.17130000000E+03 0.  1.
      622    1    1    2    0    0 -0.42029727650E-03  0.24818750797E-02  0.37838430690E+01  0.37838967622E+01  0.20000000000E-01 0. -1.
</event>
<event>
 5   0  0.3603037E+08  0.9118800E+02  0.7818608E-02  0.1180000E+00
       11   -1    0    0    0    0  0.00000000000E+00  0.00000000000E+00  0.39999999673E+01  0.40000000000E+01  0.51109989000E-03 0.  1.
     -623   -1    0    0    0    0  0.00000000000E+00  0.00000000000E+00  0.12525980253E-10  0.17130000000E+03  0.17130000000E+03 0. -1.
       11    1    1    2    0    0  0.26839689121E-02  0.83927527215E-02  0.10872312342E+01  0.10872670601E+01  0.51109989000E-03 0.  1.
     -623    1    1    2    0    0 -0.88230063386E-03  0.30732977244E-03  0.11801138562E-03  0.17130000000E+03  0.17130000000E+03 0. -1.
      622    1    1    2    0    0 -0.18016682783E-02 -0.87000824939E-02  0.29126507217E+01  0.29127329373E+01  0.20000000000E-01 0.  1.
</event>
<event>
 5   0  0.3603037E+08  0.9118800E+02  0.7818608E-02  0.1180000E+00
       11   -1    0    0    0    0  0.00000000000E+00  0.00000000000E+00  0.39999999673E+01  0.40000000000E+01  0.51109989000E-03 0. -1.
     -623   -1    0    0    0    0  0.00000000000E+00  0.00000000000E+00  0.12525980253E-10  0.17130000000E+03  0.17130000000E+03 0. -1.
       11    1    1    2    0    0  0.61226916629E-02  0.96994195360E-02  0.26358708275E+01  0.26358958338E+01  0.51109989000E-03 0. -1.
     -623    1    1    2    0    0 -0.22183364975E-02 -0.32008685186E-02  0.19271170376E-03  0.17130000004E+03  0.17130000000E+03 0. -1.
      622    1    1    2    0    0 -0.39043551655E-02 -0.64985510174E-02  0.13639364281E+01  0.13641041218E+01  0.20000000000E-01 0.  0.
</event>
<event>
 5   0  0.3603037E+08  0.9118800E+02  0.7818608E-02  0.1180000E+00
       11   -1    0    0    0    0  0.00000000000E+00  0.00000000000E+00  0.39999999673E+01  0.40000000000E+01  0.51109989000E-03 0.  1.
     -623   -1    0    0    0    0  0.00000000000E+00  0.00000000000E+00  0.12525980253E-10  0.17130000000E+03  0.17130000000E+03 0.  1.
       11    1    1    2    0    0 -0.78510001534E-05 -0.84331828511E-02  0.64109455368E-01  0.64663762059E-01  0.51109989000E-03 0.  1.
     -623    1    1    2    0    0 -0.83299236754E-03  0.12450339652E-02  0.61175833319E-03  0.17130000001E+03  0.17130000000E+03 0.  1.
      622    1    1    2    0    0  0.84084336770E-03  0.71881488859E-02  0.39352787537E+01  0.39353362303E+01  0.20000000000E-01 0.  1.
</event>
<event>
 5   0  0.3603037E+08  0.9118800E+02  0.7818608E-02  0.1180000E+00
       11   -1    0    0    0    0  0.00000000000E+00  0.00000000000E+00  0.39999999673E+01  0.40000000000E+01  0.51109989000E-03 0. -1.
     -623   -1    0    0    0    0  0.00000000000E+00  0.00000000000E+00  0.12525980253E-10  0.17130000000E+03  0.17130000000E+03 0. -1.
       11    1    1    2    0    0  0.23607988745E-01 -0.10001137634E-01  0.25912669688E+01  0.25913938575E+01  0.51109989000E-03 0. -1.
     -623    1    1    2    0    0 -0.16675220641E-01  0.59182386524E-03  0.31815342853E-03  0.17130000081E+03  0.17130000000E+03 0. -1.
      622    1    1    2    0    0 -0.69327681043E-02  0.94093137691E-02  0.14084148451E+01  0.14086053296E+01  0.20000000000E-01 0.  0.
</event>
<event>
 5   0  0.3603037E+08  0.9118800E+02  0.7818608E-02  0.1180000E+00
       11   -1    0    0    0    0  0.00000000000E+00  0.00000000000E+00  0.39999999673E+01  0.40000000000E+01  0.51109989000E-03 0.  1.
     -623   -1    0    0    0    0  0.00000000000E+00  0.00000000000E+00  0.12525980253E-10  0.17130000000E+03  0.17130000000E+03 0. -1.
       11    1    1    2    0    0  0.56335899461E-03  0.61979985860E-02  0.65372391672E+00  0.65375374039E+00  0.51109989000E-03 0.  1.
     -623    1    1    2    0    0  0.54786003424E-03 -0.35070411585E-02  0.90863352287E-04  0.17130000004E+03  0.17130000000E+03 0. -1.
      622    1    1    2    0    0 -0.11112190288E-02 -0.26909574276E-02  0.33461851873E+01  0.33462462228E+01  0.20000000000E-01 0.  0.
</event>
<event>
 5   0  0.3603037E+08  0.9118800E+02  0.7818608E-02  0.1180000E+00
       11   -1    0    0    0    0  0.00000000000E+00  0.00000000000E+00  0.39999999673E+01  0.40000000000E+01  0.51109989000E-03 0.  1.
     -623   -1    0    0    0    0  0.00000000000E+00  0.00000000000E+00  0.12525980253E-10  0.17130000000E+03  0.17130000000E+03 0.  1.
       11    1    1    2    0    0  0.18758575978E-02  0.26463563276E-02  0.15317924979E+01  0.15317960177E+01  0.51109989000E-03 0.  1.
     -623    1    1    2    0    0  0.15471784537E-03 -0.10855207393E-03  0.86659236343E-04  0.17130000000E+03  0.17130000000E+03 0.  1.
      622    1    1    2    0    0 -0.20305754432E-02 -0.25378042536E-02  0.24681208102E+01  0.24682039821E+01  0.20000000000E-01 0.  1.
</event>
<event>
 5   0  0.3603037E+08  0.9118800E+02  0.7818608E-02  0.1180000E+00
       11   -1    0    0    0    0  0.00000000000E+00  0.00000000000E+00  0.39999999673E+01  0.40000000000E+01  0.51109989000E-03 0.  1.
     -623   -1    0    0    0    0  0.00000000000E+00  0.00000000000E+00  0.12525980253E-10  0.17130000000E+03  0.17130000000E+03 0.  1.
       11    1    1    2    0    0  0.94505325269E-03 -0.27726172658E-02  0.14735482966E+00  0.14738482818E+00  0.51109989000E-03 0.  1.
     -623    1    1    2    0    0 -0.25432912470E-03 -0.40168073910E-03  0.83249342477E-04  0.17130000000E+03  0.17130000000E+03 0.  1.
      622    1    1    2    0    0 -0.69072412800E-03  0.31742980049E-02  0.38525618884E+01  0.38526151711E+01  0.20000000000E-01 0.  1.
</event>
<event>
 5   0  0.3603037E+08  0.9118800E+02  0.7818608E-02  0.1180000E+00
       11   -1    0    0    0    0  0.00000000000E+00  0.00000000000E+00  0.39999999673E+01  0.40000000000E+01  0.51109989000E-03 0. -1.
     -623   -1    0    0    0    0  0.00000000000E+00  0.00000000000E+00  0.12525980253E-10  0.17130000000E+03  0.17130000000E+03 0. -1.
       11    1    1    2    0    0  0.20277402039E-02  0.17429144359E-02  0.35405068565E-01  0.35509570274E-01  0.51109989000E-03 0. -1.
     -623    1    1    2    0    0 -0.97464311999E-03  0.74815959017E-04  0.15547668774E-03  0.17130000000E+03  0.17130000000E+03 0. -1.
      622    1    1    2    0    0 -0.10530970839E-02 -0.18177303949E-02  0.39644394221E+01  0.39644904269E+01  0.20000000000E-01 0. -1.
</event>
<event>
 5   0  0.3603037E+08  0.9118800E+02  0.7818608E-02  0.1180000E+00
       11   -1    0    0    0    0  0.00000000000E+00  0.00000000000E+00  0.39999999673E+01  0.40000000000E+01  0.51109989000E-03 0. -1.
     -623   -1    0    0    0    0  0.00000000000E+00  0.00000000000E+00  0.12525980253E-10  0.17130000000E+03  0.17130000000E+03 0.  1.
       11    1    1    2    0    0 -0.40621638308E-02  0.37161991915E-03  0.29743315060E+00  0.29746155982E+00  0.51109989000E-03 0. -1.
     -623    1    1    2    0    0  0.11823958458E-02 -0.63368811558E-03  0.83528452739E-04  0.17130000001E+03  0.17130000000E+03 0.  1.
      622    1    1    2    0    0  0.28797679849E-02  0.26206819642E-03  0.37024832883E+01  0.37025384349E+01  0.20000000000E-01 0. -1.
</event>
<event>
 5   0  0.3603037E+08  0.9118800E+02  0.7818608E-02  0.1180000E+00
       11   -1    0    0    0    0  0.00000000000E+00  0.00000000000E+00  0.39999999673E+01  0.40000000000E+01  0.51109989000E-03 0. -1.
     -623   -1    0    0    0    0  0.00000000000E+00  0.00000000000E+00  0.12525980253E-10  0.17130000000E+03  0.17130000000E+03 0. -1.
       11    1    1    2    0    0  0.82370165728E-02 -0.25163189644E-01  0.25592001613E+00  0.25728651428E+00  0.51109989000E-03 0. -1.
     -623    1    1    2    0    0 -0.45481023474E-02  0.14643812837E-02  0.14968263263E-02  0.17130000007E+03  0.17130000000E+03 0. -1.
      622    1    1    2    0    0 -0.36889142254E-02  0.23698808361E-01  0.37425831249E+01  0.37427134125E+01  0.20000000000E-01 0. -1.
</event>
<event>
 5   0  0.3603037E+08  0.9118800E+02  0.7818608E-02  0.1180000E+00
       11   -1    0    0    0    0  0.00000000000E+00  0.00000000000E+00  0.39999999673E+01  0.40000000000E+01  0.51109989000E-03 0. -1.
     -623   -1    0    0    0    0  0.00000000000E+00  0.00000000000E+00  0.12525980253E-10  0.17130000000E+03  0.17130000000E+03 0. -1.
       11    1    1    2    0    0  0.12349813026E-02  0.29938147816E-03  0.41980053130E+00  0.41980276572E+00  0.51109989000E-03 0. -1.
     -623    1    1    2    0    0 -0.27274497346E-02  0.13933262850E-02  0.58803699616E-04  0.17130000003E+03  0.17130000000E+03 0. -1.
      622    1    1    2    0    0  0.14924684320E-02 -0.16927077631E-02  0.35801406324E+01  0.35801972069E+01  0.20000000000E-01 0. -1.
</event>
<event>
 5   0  0.3603037E+08  0.9118800E+02  0.7818608E-02  0.1180000E+00
       11   -1    0    0    0    0  0.00000000000E+00  0.00000000000E+00  0.39999999673E+01  0.40000000000E+01  0.51109989000E-03 0. -1.
     -623   -1    0    0    0    0  0.00000000000E+00  0.00000000000E+00  0.12525980253E-10  0.17130000000E+03  0.17130000000E+03 0. -1.
       11    1    1    2    0    0 -0.28540398722E-03  0.11204146597E-02  0.87612081518E-02  0.88519361769E-02  0.51109989000E-03 0. -1.
     -623    1    1    2    0    0 -0.86670887273E-03 -0.42920472850E-03  0.14103552790E-03  0.17130000000E+03  0.17130000000E+03 0. -1.
      622    1    1    2    0    0  0.11521128600E-02 -0.69120993122E-03  0.39910977237E+01  0.39911480610E+01  0.20000000000E-01 0. -1.
</event>
<event>
 5   0  0.3603037E+08  0.9118800E+02  0.7818608E-02  0.1180000E+00
       11   -1    0    0    0    0  0.00000000000E+00  0.00000000000E+00  0.39999999673E+01  0.40000000000E+01  0.51109989000E-03 0. -1.
     -623   -1    0    0    0    0  0.00000000000E+00  0.00000000000E+00  0.12525980253E-10  0.17130000000E+03  0.17130000000E+03 0. -1.
       11    1    1    2    0    0 -0.57556536093E-02 -0.32671152815E-02  0.13306376008E+01  0.13306541578E+01  0.51109989000E-03 0. -1.
     -623    1    1    2    0    0 -0.11123186795E-02  0.65540878740E-03  0.10156823510E-03  0.17130000000E+03  0.17130000000E+03 0. -1.
      622    1    1    2    0    0  0.68679722888E-02  0.26117064941E-02  0.26692607983E+01  0.26693458374E+01  0.20000000000E-01 0. -1.
</event>
<event>
 5   0  0.3603037E+08  0.9118800E+02  0.7818608E-02  0.1180000E+00
       11   -1    0    0    0    0  0.00000000000E+00  0.00000000000E+00  0.39999999673E+01  0.40000000000E+01  0.51109989000E-03 0.  1.
     -623   -1    0    0    0    0  0.00000000000E+00  0.00000000000E+00  0.12525980253E-10  0.17130000000E+03  0.17130000000E+03 0. -1.
       11    1    1    2    0    0  0.21930043963E-03 -0.93635467106E-04  0.71841158181E-02  0.72062196698E-02  0.51109989000E-03 0.  1.
     -623    1    1    2    0    0  0.92557896603E-03  0.48332950185E-03  0.72348122246E-04  0.17130000000E+03  0.17130000000E+03 0. -1.
      622    1    1    2    0    0 -0.11448794057E-02 -0.38969403475E-03  0.39927435034E+01  0.39927937771E+01  0.20000000000E-01 0.  1.
</event>
<event>
 5   0  0.3603037E+08  0.9118800E+02  0.7818608E-02  0.1180000E+00
       11   -1    0    0    0    0  0.00000000000E+00  0.00000000000E+00  0.39999999673E+01  0.40000000000E+01  0.51109989000E-03 0. -1.
     -623   -1    0    0    0    0  0.00000000000E+00  0.00000000000E+00  0.12525980253E-10  0.17130000000E+03  0.17130000000E+03 0.  1.
       11    1    1    2    0    0  0.59643882029E-03  0.63694846779E-04  0.94514972074E-02  0.94842931137E-02  0.51109989000E-03 0. -1.
     -623    1    1    2    0    0  0.16748913999E-03  0.64572228106E-04  0.82957714575E-04  0.17130000000E+03  0.17130000000E+03 0.  1.
      622    1    1    2    0    0 -0.76392796028E-03 -0.12826707489E-03  0.39904655124E+01  0.39905157068E+01  0.20000000000E-01 0. -1.
</event>
<event>
 5   0  0.3603037E+08  0.9118800E+02  0.7818608E-02  0.1180000E+00
       11   -1    0    0    0    0  0.00000000000E+00  0.00000000000E+00  0.39999999673E+01  0.40000000000E+01  0.51109989000E-03 0.  1.
     -623   -1    0    0    0    0  0.00000000000E+00  0.00000000000E+00  0.12525980253E-10  0.17130000000E+03  0.17130000000E+03 0.  1.
       11    1    1    2    0    0  0.12079926721E-01 -0.19876110897E-02  0.12444684646E+01  0.12445287847E+01  0.51109989000E-03 0.  1.
     -623    1    1    2    0    0  0.24332870106E-02  0.20511041338E-02  0.17112382379E-03  0.17130000003E+03  0.17130000000E+03 0.  1.
      622    1    1    2    0    0 -0.14513213731E-01 -0.63493044054E-04  0.27553603789E+01  0.27554711857E+01  0.20000000000E-01 0.  0.
</event>
<event>
 5   0  0.3603037E+08  0.9118800E+02  0.7818608E-02  0.1180000E+00
       11   -1    0    0    0    0  0.00000000000E+00  0.00000000000E+00  0.39999999673E+01  0.40000000000E+01  0.51109989000E-03 0.  1.
     -623   -1    0    0    0    0  0.00000000000E+00  0.00000000000E+00  0.12525980253E-10  0.17130000000E+03  0.17130000000E+03 0.  1.
       11    1    1    2    0    0  0.93372426787E-05  0.10102005827E-02  0.90236381021E-01  0.90243483272E-01  0.51109989000E-03 0.  1.
     -623    1    1    2    0    0 -0.43860651006E-04 -0.15511174298E-03  0.58317772019E-04  0.17130000000E+03  0.17130000000E+03 0.  1.
      622    1    1    2    0    0  0.34523408327E-04 -0.85508883977E-03  0.39097052686E+01  0.39097565166E+01  0.20000000000E-01 0.  1.
</event>
<event>
 5   0  0.3603037E+08  0.9118800E+02  0.7818608E-02  0.1180000E+00
       11   -1    0    0    0    0  0.00000000000E+00  0.00000000000E+00  0.39999999673E+01  0.40000000000E+01  0.51109989000E-03 0.  1.
     -623   -1    0    0    0    0  0.00000000000E+00  0.00000000000E+00  0.12525980253E-10  0.17130000000E+03  0.17130000000E+03 0.  1.
       11    1    1    2    0    0  0.21670888861E-02 -0.10891463401E-01  0.37094744890E+00  0.37111398696E+00  0.51109989000E-03 0.  1.
     -623    1    1    2    0    0 -0.50308639593E-03  0.13702504007E-02  0.23449781652E-03  0.17130000001E+03  0.17130000000E+03 0.  1.
      622    1    1    2    0    0 -0.16640024902E-02  0.95212130003E-02  0.36288180206E+01  0.36288860067E+01  0.20000000000E-01 0.  1.
</event>
<event>
 5   0  0.3603037E+08  0.9118800E+02  0.7818608E-02  0.1180000E+00
       11   -1    0    0    0    0  0.00000000000E+00  0.00000000000E+00  0.39999999673E+01  0.40000000000E+01  0.51109989000E-03 0.  1.
     -623   -1    0    0    0    0  0.00000000000E+00  0.00000000000E+00  0.12525980253E-10  0.17130000000E+03  0.17130000000E+03 0. -1.
       11    1    1    2    0    0  0.75642755389E-03 -0.11570933559E-02  0.34524507364E+00  0.34524821961E+00  0.51109989000E-03 0.  1.
     -623    1    1    2    0    0 -0.12270195852E-02  0.41599239253E-03  0.57947362615E-04  0.17130000000E+03  0.17130000000E+03 0. -1.
      622    1    1    2    0    0  0.47059203126E-03  0.74110096339E-03  0.36546969464E+01  0.36547517755E+01  0.20000000000E-01 0.  1.
</event>
<event>
 5   0  0.3603037E+08  0.9118800E+02  0.7818608E-02  0.1180000E+00
       11   -1    0    0    0    0  0.00000000000E+00  0.00000000000E+00  0.39999999673E+01  0.40000000000E+01  0.51109989000E-03 0. -1.
     -623   -1    0    0    0    0  0.00000000000E+00  0.00000000000E+00  0.12525980253E-10  0.17130000000E+03  0.17130000000E+03 0.  1.
       11    1    1    2    0    0  0.16646294506E-02  0.17889188715E-02  0.33232117093E-01  0.33325756537E-01  0.51109989000E-03 0. -1.
     -623    1    1    2    0    0 -0.70162748507E-03  0.31311350056E-03  0.14470284163E-03  0.17130000000E+03  0.17130000000E+03 0.  1.
      622    1    1    2    0    0 -0.96300196552E-03 -0.21020323720E-02  0.39666231474E+01  0.39666742417E+01  0.20000000000E-01 0. -1.
</event>
<event>
 5   0  0.3603037E+08  0.9118800E+02  0.7818608E-02  0.1180000E+00
       11   -1    0    0    0    0  0.00000000000E+00  0.00000000000E+00  0.39999999673E+01  0.40000000000E+01  0.51109989000E-03 0.  1.
     -623   -1    0    0    0    0  0.00000000000E+00  0.00000000000E+00  0.12525980253E-10  0.17130000000E+03  0.17130000000E+03 0. -1.
       11    1    1    2    0    0 -0.22522186348E-01  0.56988524211E-02  0.67845818578E+00  0.67885602072E+00  0.51109989000E-03 0.  1.
     -623    1    1    2    0    0  0.27551722881E-01  0.14036713072E-01  0.52326315165E-03  0.17130000279E+03  0.17130000000E+03 0. -1.
      622    1    1    2    0    0 -0.50295365327E-02 -0.19735565493E-01  0.33210185184E+01  0.33211411877E+01  0.20000000000E-01 0.  1.
</event>
<event>
 5   0  0.3603037E+08  0.9118800E+02  0.7818608E-02  0.1180000E+00
       11   -1    0    0    0    0  0.00000000000E+00  0.00000000000E+00  0.39999999673E+01  0.40000000000E+01  0.51109989000E-03 0.  1.
     -623   -1    0    0    0    0  0.00000000000E+00  0.00000000000E+00  0.12525980253E-10  0.17130000000E+03  0.17130000000E+03 0.  1.
       11    1    1    2    0    0  0.13177876573E-03  0.10790327145E-02  0.55061819955E+00  0.55061950981E+00  0.51109989000E-03 0.  1.
     -623    1    1    2    0    0  0.43466041451E-04  0.51504835123E-03  0.59633113767E-04  0.17130000000E+03  0.17130000000E+03 0.  1.
      622    1    1    2    0    0 -0.17524480718E-03 -0.15940810657E-02  0.34493221347E+01  0.34493804894E+01  0.20000000000E-01 0.  1.
</event>
<event>
 5   0  0.3603037E+08  0.9118800E+02  0.7818608E-02  0.1180000E+00
       11   -1    0    0    0    0  0.00000000000E+00  0.00000000000E+00  0.39999999673E+01  0.40000000000E+01  0.51109989000E-03 0.  1.
     -623   -1    0    0    0    0  0.00000000000E+00  0.00000000000E+00  0.12525980253E-10  0.17130000000E+03  0.17130000000E+03 0. -1.
       11    1    1    2    0    0 -0.78914944023E-02 -0.20742545503E-02  0.23947459551E-01  0.25304550111E-01  0.51109989000E-03 0.  1.
     -623    1    1    2    0    0  0.81096400234E-02  0.45738642220E-02  0.14084273526E-02  0.17130000026E+03  0.17130000000E+03 0. -1.
      622    1    1    2    0    0 -0.21814562111E-03 -0.24996096718E-02  0.39746440805E+01  0.39746951911E+01  0.20000000000E-01 0.  1.
</event>
<event>
 5   0  0.3603037E+08  0.9118800E+02  0.7818608E-02  0.1180000E+00
       11   -1    0    0    0    0  0.00000000000E+00  0.00000000000E+00  0.39999999673E+01  0.40000000000E+01  0.51109989000E-03 0.  1.
     -623   -1    0    0    0    0  0.00000000000E+00  0.00000000000E+00  0.12525980253E-10  0.17130000000E+03  0.17130000000E+03 0. -1.
       11    1    1    2    0    0  0.25217112377E-01  0.12297815176E-01  0.14180359975E+00  0.14455331591E+00  0.51109989000E-03 0.  1.
     -623    1    1    2    0    0 -0.18395165449E-01 -0.12613389158E-01  0.28090821367E-02  0.17130000148E+03  0.17130000000E+03 0. -1.
      622    1    1    2    0    0 -0.68219469281E-02  0.31557398178E-03  0.38553872855E+01  0.38554452090E+01  0.20000000000E-01 0.  1.
</event>
<event>
 5   0  0.3603037E+08  0.9118800E+02  0.7818608E-02  0.1180000E+00
       11   -1    0    0    0    0  0.00000000000E+00  0.00000000000E+00  0.39999999673E+01  0.40000000000E+01  0.51109989000E-03 0. -1.
     -623   -1    0    0    0    0  0.00000000000E+00  0.00000000000E+00  0.12525980253E-10  0.17130000000E+03  0.17130000000E+03 0. -1.
       11    1    1    2    0    0  0.70663720636E-03 -0.53958020484E-03  0.64761107517E-02  0.65568067842E-02  0.51109989000E-03 0.  1.
     -623    1    1    2    0    0  0.40004772757E-04 -0.71438131475E-04  0.13086241562E-03  0.17130000000E+03  0.17130000000E+03 0. -1.
      622    1    1    2    0    0 -0.74664197911E-03  0.61101833632E-03  0.39933929942E+01  0.39934431931E+01  0.20000000000E-01 0. -1.
</event>
<event>
 5   0  0.3603037E+08  0.9118800E+02  0.7818608E-02  0.1180000E+00
       11   -1    0    0    0    0  0.00000000000E+00  0.00000000000E+00  0.39999999673E+01  0.40000000000E+01  0.51109989000E-03 0. -1.
     -623   -1    0    0    0    0  0.00000000000E+00  0.00000000000E+00  0.12525980253E-10  0.17130000000E+03  0.17130000000E+03 0. -1.
       11    1    1    2    0    0  0.55435785770E-02  0.15200856548E-01  0.85770546307E+00  0.85785821667E+00  0.51109989000E-03 0. -1.
     -623    1    1    2    0    0  0.43862694601E-03  0.20977446457E-02  0.26969970986E-03  0.17130000001E+03  0.17130000000E+03 0. -1.
      622    1    1    2    0    0 -0.59822055230E-02 -0.17298601194E-01  0.31420248046E+01  0.31421417697E+01  0.20000000000E-01 0. -1.
</event>
<event>
 5   0  0.3603037E+08  0.9118800E+02  0.7818608E-02  0.1180000E+00
       11   -1    0    0    0    0  0.00000000000E+00  0.00000000000E+00  0.39999999673E+01  0.40000000000E+01  0.51109989000E-03 0.  1.
     -623   -1    0    0    0    0  0.00000000000E+00  0.00000000000E+00  0.12525980253E-10  0.17130000000E+03  0.17130000000E+03 0. -1.
       11    1    1    2    0    0  0.21127153442E-03 -0.23698441016E-02  0.19065330646E+00  0.19066883669E+00  0.51109989000E-03 0.  1.
     -623    1    1    2    0    0 -0.92476936489E-03 -0.77917122543E-04  0.68856388911E-04  0.17130000000E+03  0.17130000000E+03 0. -1.
      622    1    1    2    0    0  0.71349783047E-03  0.24477612241E-02  0.38092778045E+01  0.38093311608E+01  0.20000000000E-01 0.  1.
</event>
<event>
 5   0  0.3603037E+08  0.9118800E+02  0.7818608E-02  0.1180000E+00
       11   -1    0    0    0    0  0.00000000000E+00  0.00000000000E+00  0.39999999673E+01  0.40000000000E+01  0.51109989000E-03 0.  1.
     -623   -1    0    0    0    0  0.00000000000E+00  0.00000000000E+00  0.12525980253E-10  0.17130000000E+03  0.17130000000E+03 0.  1.
       11    1    1    2    0    0 -0.12061415893E-02 -0.25204037592E-03  0.18905960902E+00  0.18906431521E+00  0.51109989000E-03 0.  1.
     -623    1    1    2    0    0 -0.16365973605E-03  0.11039562017E-02  0.57499512380E-04  0.17130000000E+03  0.17130000000E+03 0.  1.
      622    1    1    2    0    0  0.13698013253E-02 -0.85191582580E-03  0.38108828588E+01  0.38109356811E+01  0.20000000000E-01 0.  1.
</event>
<event>
 5   0  0.3603037E+08  0.9118800E+02  0.7818608E-02  0.1180000E+00
       11   -1    0    0    0    0  0.00000000000E+00  0.00000000000E+00  0.39999999673E+01  0.40000000000E+01  0.51109989000E-03 0.  1.
     -623   -1    0    0    0    0  0.00000000000E+00  0.00000000000E+00  0.12525980253E-10  0.17130000000E+03  0.17130000000E+03 0.  1.
       11    1    1    2    0    0 -0.89163645776E-03 -0.29707259242E-03  0.35435121256E+00  0.35435282747E+00  0.51109989000E-03 0.  1.
     -623    1    1    2    0    0  0.38367188701E-03  0.17488589942E-02  0.56776448431E-04  0.17130000001E+03  0.17130000000E+03 0.  1.
      622    1    1    2    0    0  0.50796457075E-03 -0.14517864018E-02  0.36455919783E+01  0.36456471632E+01  0.20000000000E-01 0.  1.
</event>
<event>
 5   0  0.3603037E+08  0.9118800E+02  0.7818608E-02  0.1180000E+00
       11   -1    0    0    0    0  0.00000000000E+00  0.00000000000E+00  0.39999999673E+01  0.40000000000E+01  0.51109989000E-03 0.  1.
     -623   -1    0    0    0    0  0.00000000000E+00  0.00000000000E+00  0.12525980253E-10  0.17130000000E+03  0.17130000000E+03 0.  1.
       11    1    1    2    0    0 -0.27910379776E-04  0.22733062241E-03  0.26535756640E-01  0.26541666485E-01  0.51109989000E-03 0.  1.
     -623    1    1    2    0    0 -0.76378956026E-03  0.97871059217E-03  0.56477925241E-04  0.17130000000E+03  0.17130000000E+03 0.  1.
      622    1    1    2    0    0  0.79169994003E-03 -0.12060412146E-02  0.39734077328E+01  0.39734583290E+01  0.20000000000E-01 0.  1.
</event>
<event>
 5   0  0.3603037E+08  0.9118800E+02  0.7818608E-02  0.1180000E+00
       11   -1    0    0    0    0  0.00000000000E+00  0.00000000000E+00  0.39999999673E+01  0.40000000000E+01  0.51109989000E-03 0. -1.
     -623   -1    0    0    0    0  0.00000000000E+00  0.00000000000E+00  0.12525980253E-10  0.17130000000E+03  0.17130000000E+03 0. -1.
       11    1    1    2    0    0 -0.33330478796E-02 -0.31895397235E-02  0.15257453870E+01  0.15257524470E+01  0.51109989000E-03 0. -1.
     -623    1    1    2    0    0  0.26701337634E-03  0.41272947007E-03  0.91320055586E-04  0.17130000000E+03  0.17130000000E+03 0. -1.
      622    1    1    2    0    0  0.30660345033E-02  0.27768102534E-02  0.24741632603E+01  0.24742475522E+01  0.20000000000E-01 0. -1.
</event>
<event>
 5   0  0.3603037E+08  0.9118800E+02  0.7818608E-02  0.1180000E+00
       11   -1    0    0    0    0  0.00000000000E+00  0.00000000000E+00  0.39999999673E+01  0.40000000000E+01  0.51109989000E-03 0.  1.
     -623   -1    0    0    0    0  0.00000000000E+00  0.00000000000E+00  0.12525980253E-10  0.17130000000E+03  0.17130000000E+03 0. -1.
       11    1    1    2    0    0  0.50044611219E-04 -0.18006816422E-01  0.16773010192E+01  0.16773977519E+01  0.51109989000E-03 0.  1.
     -623    1    1    2    0    0 -0.35839586371E-03 -0.82735866293E-03  0.25920306822E-03  0.17130000000E+03  0.17130000000E+03 0. -1.
      622    1    1    2    0    0  0.30835125249E-03  0.18834175085E-01  0.23224397451E+01  0.23226022455E+01  0.20000000000E-01 0.  0.
</event>
<event>
 5   0  0.3603037E+08  0.9118800E+02  0.7818608E-02  0.1180000E+00
       11   -1    0    0    0    0  0.00000000000E+00  0.00000000000E+00  0.39999999673E+01  0.40000000000E+01  0.51109989000E-03 0.  1.
     -623   -1    0    0    0    0  0.00000000000E+00  0.00000000000E+00  0.12525980253E-10  0.17130000000E+03  0.17130000000E+03 0. -1.
       11    1    1    2    0    0  0.48142769173E-03  0.33112353411E-01  0.11963371670E+01  0.11967955289E+01  0.51109989000E-03 0.  1.
     -623    1    1    2    0    0 -0.20823956457E-01 -0.47193830854E-01  0.64663029817E-03  0.17130000777E+03  0.17130000000E+03 0. -1.
      622    1    1    2    0    0  0.20342528765E-01  0.14081477443E-01  0.28030161701E+01  0.28031967031E+01  0.20000000000E-01 0.  1.
</event>
<event>
 5   0  0.3603037E+08  0.9118800E+02  0.7818608E-02  0.1180000E+00
       11   -1    0    0    0    0  0.00000000000E+00  0.00000000000E+00  0.39999999673E+01  0.40000000000E+01  0.51109989000E-03 0. -1.
     -623   -1    0    0    0    0  0.00000000000E+00  0.00000000000E+00  0.12525980253E-10  0.17130000000E+03  0.17130000000E+03 0. -1.
       11    1    1    2    0    0 -0.41628975918E-02  0.30646717920E-02  0.12331477715E+01  0.12331587122E+01  0.51109989000E-03 0. -1.
     -623    1    1    2    0    0  0.10875726311E-02 -0.98783381794E-02  0.93581028579E-04  0.17130000029E+03  0.17130000000E+03 0. -1.
      622    1    1    2    0    0  0.30753249607E-02  0.68136663874E-02  0.27667586149E+01  0.27668409995E+01  0.20000000000E-01 0. -1.
</event>
<event>
 5   0  0.3603037E+08  0.9118800E+02  0.7818608E-02  0.1180000E+00
       11   -1    0    0    0    0  0.00000000000E+00  0.00000000000E+00  0.39999999673E+01  0.40000000000E+01  0.51109989000E-03 0.  1.
     -623   -1    0    0    0    0  0.00000000000E+00  0.00000000000E+00  0.12525980253E-10  0.17130000000E+03  0.17130000000E+03 0. -1.
       11    1    1    2    0    0 -0.28602664044E-02  0.29602012493E-02  0.74171490885E+00  0.74172650697E+00  0.51109989000E-03 0.  1.
     -623    1    1    2    0    0  0.20755623443E-03  0.16779621095E-02  0.77337777577E-04  0.17130000001E+03  0.17130000000E+03 0. -1.
      622    1    1    2    0    0  0.26527101700E-02 -0.46381633588E-02  0.32582077207E+01  0.32582734847E+01  0.20000000000E-01 0.  1.
</event>
<event>
 5   0  0.3603037E+08  0.9118800E+02  0.7818608E-02  0.1180000E+00
       11   -1    0    0    0    0  0.00000000000E+00  0.00000000000E+00  0.39999999673E+01  0.40000000000E+01  0.51109989000E-03 0.  1.
     -623   -1    0    0    0    0  0.00000000000E+00  0.00000000000E+00  0.12525980253E-10  0.17130000000E+03  0.17130000000E+03 0.  1.
       11    1    1    2    0    0  0.42992319542E-02 -0.42828675362E-02  0.38534615680E+00  0.38539427621E+00  0.51109989000E-03 0.  1.
     -623    1    1    2    0    0 -0.39267663077E-03 -0.26199737137E-03  0.10838733248E-03  0.17130000000E+03  0.17130000000E+03 0.  1.
      622    1    1    2    0    0 -0.39065553234E-02  0.45448649076E-02  0.36145454232E+01  0.36146057231E+01  0.20000000000E-01 0.  1.
</event>
<event>
 5   0  0.3603037E+08  0.9118800E+02  0.7818608E-02  0.1180000E+00
       11   -1    0    0    0    0  0.00000000000E+00  0.00000000000E+00  0.39999999673E+01  0.40000000000E+01  0.51109989000E-03 0. -1.
     -623   -1    0    0    0    0  0.00000000000E+00  0.00000000000E+00  0.12525980253E-10  0.17130000000E+03  0.17130000000E+03 0. -1.
       11    1    1    2    0    0 -0.11078314599E-01  0.10855866690E-02  0.49081592628E+00  0.49094240218E+00  0.51109989000E-03 0. -1.
     -623    1    1    2    0    0  0.18564617094E-02 -0.41788492236E-03  0.19563109465E-03  0.17130000001E+03  0.17130000000E+03 0. -1.
      622    1    1    2    0    0  0.92218528894E-02 -0.66770174660E-03  0.35089884100E+01  0.35090575871E+01  0.20000000000E-01 0.  0.
</event>
<event>
 5   0  0.3603037E+08  0.9118800E+02  0.7818608E-02  0.1180000E+00
       11   -1    0    0    0    0  0.00000000000E+00  0.00000000000E+00  0.39999999673E+01  0.40000000000E+01  0.51109989000E-03 0.  1.
     -623   -1    0    0    0    0  0.00000000000E+00  0.00000000000E+00  0.12525980253E-10  0.17130000000E+03  0.17130000000E+03 0.  1.
       11    1    1    2    0    0 -0.38894159233E-05 -0.49546860003E-03  0.19134121012E+00  0.19134253426E+00  0.51109989000E-03 0.  1.
     -623    1    1    2    0    0  0.88872543671E-03 -0.16217745119E-03  0.53965757897E-04  0.17130000000E+03  0.17130000000E+03 0.  1.
      622    1    1    2    0    0 -0.88483602079E-03  0.65764605123E-03  0.38086047915E+01  0.38086574633E+01  0.20000000000E-01 0.  1.
</event>
<event>
 5   0  0.3603037E+08  0.9118800E+02  0.7818608E-02  0.1180000E+00
       11   -1    0    0    0    0  0.00000000000E+00  0.00000000000E+00  0.39999999673E+01  0.40000000000E+01  0.51109989000E-03 0. -1.
     -623   -1    0    0    0    0  0.00000000000E+00  0.00000000000E+00  0.12525980253E-10  0.17130000000E+03  0.17130000000E+03 0. -1.
       11    1    1    2    0    0 -0.32696868703E-03 -0.19799212862E-02  0.42008710617E+00  0.42009221010E+00  0.51109989000E-03 0. -1.
     -623    1    1    2    0    0 -0.35767440537E-04  0.94301133289E-04  0.61454114257E-04  0.17130000000E+03  0.17130000000E+03 0. -1.
      622    1    1    2    0    0  0.36273612757E-03  0.18856201529E-02  0.35798514071E+01  0.35799077899E+01  0.20000000000E-01 0. -1.
</event>
<event>
 5   0  0.3603037E+08  0.9118800E+02  0.7818608E-02  0.1180000E+00
       11   -1    0    0    0    0  0.00000000000E+00  0.00000000000E+00  0.39999999673E+01  0.40000000000E+01  0.51109989000E-03 0. -1.
     -623   -1    0    0    0    0  0.00000000000E+00  0.00000000000E+00  0.12525980253E-10  0.17130000000E+03  0.17130000000E+03 0.  1.
       11    1    1    2    0    0  0.82359355360E-02 -0.81173435925E-02  0.87594712826E+00  0.87602360393E+00  0.51109989000E-03 0. -1.
     -623    1    1    2    0    0 -0.21268319297E-02  0.23908331248E-03  0.15638576868E-03  0.17130000001E+03  0.17130000000E+03 0.  1.
      622    1    1    2    0    0 -0.61091036063E-02  0.78782602801E-02  0.31238964533E+01  0.31239763826E+01  0.20000000000E-01 0. -1.
</event>
<event>
 5   0  0.3603037E+08  0.9118800E+02  0.7818608E-02  0.1180000E+00
       11   -1    0    0    0    0  0.00000000000E+00  0.00000000000E+00  0.39999999673E+01  0.40000000000E+01  0.51109989000E-03 0. -1.
     -623   -1    0    0    0    0  0.00000000000E+00  0.00000000000E+00  0.12525980253E-10  0.17130000000E+03  0.17130000000E+03 0. -1.
       11    1    1    2    0    0  0.91155314946E-03 -0.45048166235E-02  0.27006955962E-01  0.27400021772E-01  0.51109989000E-03 0. -1.
     -623    1    1    2    0    0  0.36544818268E-02  0.49795403102E-02  0.44614274946E-03  0.17130000011E+03  0.17130000000E+03 0. -1.
      622    1    1    2    0    0 -0.45660349763E-02 -0.47472368673E-03  0.39725468686E+01  0.39725998663E+01  0.20000000000E-01 0. -1.
</event>
<event>
 5   0  0.3603037E+08  0.9118800E+02  0.7818608E-02  0.1180000E+00
       11   -1    0    0    0    0  0.00000000000E+00  0.00000000000E+00  0.39999999673E+01  0.40000000000E+01  0.51109989000E-03 0.  1.
     -623   -1    0    0    0    0  0.00000000000E+00  0.00000000000E+00  0.12525980253E-10  0.17130000000E+03  0.17130000000E+03 0. -1.
       11    1    1    2    0    0 -0.89029429296E-03 -0.53002792432E-02  0.12437692622E+00  0.12449404235E+00  0.51109989000E-03 0.  1.
     -623    1    1    2    0    0 -0.13594906816E-02  0.14898533686E-02  0.17122822622E-03  0.17130000001E+03  0.17130000000E+03 0. -1.
      622    1    1    2    0    0  0.22497849746E-02  0.38104258746E-02  0.38754518129E+01  0.38755059457E+01  0.20000000000E-01 0.  1.
</event>
<event>
 5   0  0.3603037E+08  0.9118800E+02  0.7818608E-02  0.1180000E+00
       11   -1    0    0    0    0  0.00000000000E+00  0.00000000000E+00  0.39999999673E+01  0.40000000000E+01  0.51109989000E-03 0. -1.
     -623   -1    0    0    0    0  0.00000000000E+00  0.00000000000E+00  0.12525980253E-10  0.17130000000E+03  0.17130000000E+03 0.  1.
       11    1    1    2    0    0 -0.46003587536E-03 -0.41792824631E-02  0.25869867220E-01  0.26214295452E-01  0.51109989000E-03 0. -1.
     -623    1    1    2    0    0  0.69913334126E-04  0.29171903873E-03  0.39664725413E-03  0.17130000000E+03  0.17130000000E+03 0.  1.
      622    1    1    2    0    0  0.39012254124E-03  0.38875634244E-02  0.39737334529E+01  0.39737857038E+01  0.20000000000E-01 0. -1.
</event>
<event>
 5   0  0.3603037E+08  0.9118800E+02  0.7818608E-02  0.1180000E+00
       11   -1    0    0    0    0  0.00000000000E+00  0.00000000000E+00  0.39999999673E+01  0.40000000000E+01  0.51109989000E-03 0. -1.
     -623   -1    0    0    0    0  0.00000000000E+00  0.00000000000E+00  0.12525980253E-10  0.17130000000E+03  0.17130000000E+03 0.  1.
       11    1    1    2    0    0  0.15022702188E-02 -0.13940481745E-03  0.14377287776E-01  0.14465264413E-01  0.51109989000E-03 0. -1.
     -623    1    1    2    0    0  0.34528309534E-03  0.10209246849E-02  0.13865495609E-03  0.17130000000E+03  0.17130000000E+03 0.  1.
      622    1    1    2    0    0 -0.18475533141E-02 -0.88151986747E-03  0.39854840246E+01  0.39855347321E+01  0.20000000000E-01 0. -1.
</event>
<event>
 5   0  0.3603037E+08  0.9118800E+02  0.7818608E-02  0.1180000E+00
       11   -1    0    0    0    0  0.00000000000E+00  0.00000000000E+00  0.39999999673E+01  0.40000000000E+01  0.51109989000E-03 0. -1.
     -623   -1    0    0    0    0  0.00000000000E+00  0.00000000000E+00  0.12525980253E-10  0.17130000000E+03  0.17130000000E+03 0. -1.
       11    1    1    2    0    0 -0.71709246529E-02 -0.10502837138E-01  0.82216651186E+00  0.82226502187E+00  0.51109989000E-03 0. -1.
     -623    1    1    2    0    0 -0.17053152464E-03  0.31870443652E-03  0.18621664308E-03  0.17130000000E+03  0.17130000000E+03 0. -1.
      622    1    1    2    0    0  0.73414561775E-02  0.10184132702E-01  0.31776472389E+01  0.31777349776E+01  0.20000000000E-01 0. -1.
</event>
<event>
 5   0  0.3603037E+08  0.9118800E+02  0.7818608E-02  0.1180000E+00
       11   -1    0    0    0    0  0.00000000000E+00  0.00000000000E+00  0.39999999673E+01  0.40000000000E+01  0.51109989000E-03 0. -1.
     -623   -1    0    0    0    0  0.00000000000E+00  0.00000000000E+00  0.12525980253E-10  0.17130000000E+03  0.17130000000E+03 0.  1.
       11    1    1    2    0    0  0.51006666823E-02 -0.69873681474E-02  0.22894044637E+01  0.22894208656E+01  0.51109989000E-03 0. -1.
     -623    1    1    2    0    0  0.38348988568E-04  0.36748807476E-03  0.15382350051E-03  0.17130000000E+03  0.17130000000E+03 0.  1.
      622    1    1    2    0    0 -0.51390156709E-02  0.66198800727E-02  0.17104416801E+01  0.17105791339E+01  0.20000000000E-01 0.  0.
</event>
<event>
 5   0  0.3603037E+08  0.9118800E+02  0.7818608E-02  0.1180000E+00
       11   -1    0    0    0    0  0.00000000000E+00  0.00000000000E+00  0.39999999673E+01  0.40000000000E+01  0.51109989000E-03 0.  1.
     -623   -1    0    0    0    0  0.00000000000E+00  0.00000000000E+00  0.12525980253E-10  0.17130000000E+03  0.17130000000E+03 0.  1.
       11    1    1    2    0    0 -0.41265392674E-02 -0.20615733468E-02  0.14559575134E+00  0.14566970323E+00  0.51109989000E-03 0.  1.
     -623    1    1    2    0    0  0.32885933798E-02  0.61547477086E-02  0.12821600915E-03  0.17130000014E+03  0.17130000000E+03 0.  1.
      622    1    1    2    0    0  0.83794588758E-03 -0.40931743619E-02  0.38542760000E+01  0.38543301546E+01  0.20000000000E-01 0.  1.
</event>
<event>
 5   0  0.3603037E+08  0.9118800E+02  0.7818608E-02  0.1180000E+00
       11   -1    0    0    0    0  0.00000000000E+00  0.00000000000E+00  0.39999999673E+01  0.40000000000E+01  0.51109989000E-03 0. -1.
     -623   -1    0    0    0    0  0.00000000000E+00  0.00000000000E+00  0.12525980253E-10  0.17130000000E+03  0.17130000000E+03 0.  1.
       11    1    1    2    0    0 -0.11671528112E-02  0.24163712591E-02  0.56612611398E-01  0.56678479924E-01  0.51109989000E-03 0. -1.
     -623    1    1    2    0    0  0.17833066150E-02  0.28147345406E-03  0.11753545266E-03  0.17130000001E+03  0.17130000000E+03 0.  1.
      622    1    1    2    0    0 -0.61615380372E-03 -0.26978447132E-02  0.39432698205E+01  0.39433215105E+01  0.20000000000E-01 0. -1.
</event>
<event>
 5   0  0.3603037E+08  0.9118800E+02  0.7818608E-02  0.1180000E+00
       11   -1    0    0    0    0  0.00000000000E+00  0.00000000000E+00  0.39999999673E+01  0.40000000000E+01  0.51109989000E-03 0. -1.
     -623   -1    0    0    0    0  0.00000000000E+00  0.00000000000E+00  0.12525980253E-10  0.17130000000E+03  0.17130000000E+03 0.  1.
       11    1    1    2    0    0 -0.77479058752E-02  0.28402804633E-01  0.16532703795E+01  0.16535325695E+01  0.51109989000E-03 0. -1.
     -623    1    1    2    0    0 -0.11941119825E-01 -0.83056829067E-02  0.51669285672E-03  0.17130000062E+03  0.17130000000E+03 0.  1.
      622    1    1    2    0    0  0.19689025701E-01 -0.20097121726E-01  0.23462128950E+01  0.23464668122E+01  0.20000000000E-01 0. -1.
</event>
<event>
 5   0  0.3603037E+08  0.9118800E+02  0.7818608E-02  0.1180000E+00
       11   -1    0    0    0    0  0.00000000000E+00  0.00000000000E+00  0.39999999673E+01  0.40000000000E+01  0.51109989000E-03 0.  1.
     -623   -1    0    0    0    0  0.00000000000E+00  0.00000000000E+00  0.12525980253E-10  0.17130000000E+03  0.17130000000E+03 0. -1.
       11    1    1    2    0    0  0.12705245302E-01 -0.91344660597E-02  0.19077148694E+01  0.19077791135E+01  0.51109989000E-03 0.  1.
     -623    1    1    2    0    0 -0.37801826592E-02 -0.15653231660E-02  0.20625366993E-03  0.17130000005E+03  0.17130000000E+03 0. -1.
      622    1    1    2    0    0 -0.89250626430E-02  0.10699789226E-01  0.20920788443E+01  0.20922208375E+01  0.20000000000E-01 0.  1.
</event>
<event>
 5   0  0.3603037E+08  0.9118800E+02  0.7818608E-02  0.1180000E+00
       11   -1    0    0    0    0  0.00000000000E+00  0.00000000000E+00  0.39999999673E+01  0.40000000000E+01  0.51109989000E-03 0.  1.
     -623   -1    0    0    0    0  0.00000000000E+00  0.00000000000E+00  0.12525980253E-10  0.17130000000E+03  0.17130000000E+03 0. -1.
       11    1    1    2    0    0  0.83910895829E-03 -0.20133578029E-02  0.16716684806E+00  0.16718185914E+00  0.51109989000E-03 0.  1.
     -623    1    1    2    0    0 -0.59597496876E-03  0.50031013172E-03  0.67467863772E-04  0.17130000000E+03  0.17130000000E+03 0. -1.
      622    1    1    2    0    0 -0.24313398953E-03  0.15130476712E-02  0.38327656514E+01  0.38328181391E+01  0.20000000000E-01 0.  1.
</event>
<event>
 5   0  0.3603037E+08  0.9118800E+02  0.7818608E-02  0.1180000E+00
       11   -1    0    0    0    0  0.00000000000E+00  0.00000000000E+00  0.39999999673E+01  0.40000000000E+01  0.51109989000E-03 0.  1.
     -623   -1    0    0    0    0  0.00000000000E+00  0.00000000000E+00  0.12525980253E-10  0.17130000000E+03  0.17130000000E+03 0. -1.
       11    1    1    2    0    0 -0.22759373856E-01 -0.13508211135E-01  0.10797360113E+01  0.10800604502E+01  0.51109989000E-03 0.  1.
     -623    1    1    2    0    0  0.20433459893E-01  0.18580615573E-01  0.40046089370E-03  0.17130000223E+03  0.17130000000E+03 0. -1.
      622    1    1    2    0    0  0.23259139632E-02 -0.50724044378E-02  0.29198634952E+01  0.29199373229E+01  0.20000000000E-01 0.  1.
</event>
<event>
 5   0  0.3603037E+08  0.9118800E+02  0.7818608E-02  0.1180000E+00
       11   -1    0    0    0    0  0.00000000000E+00  0.00000000000E+00  0.39999999673E+01  0.40000000000E+01  0.51109989000E-03 0.  1.
     -623   -1    0    0    0    0  0.00000000000E+00  0.00000000000E+00  0.12525980253E-10  0.17130000000E+03  0.17130000000E+03 0. -1.
       11    1    1    2    0    0 -0.17025291771E-03 -0.26044361942E-02  0.13600991754E+00  0.13603591791E+00  0.51109989000E-03 0.  1.
     -623    1    1    2    0    0 -0.23405972647E-02 -0.20045718417E-03  0.79578394533E-04  0.17130000002E+03  0.17130000000E+03 0. -1.
      622    1    1    2    0    0  0.25108501824E-02  0.28048933783E-02  0.38639104714E+01  0.38639640660E+01  0.20000000000E-01 0.  1.
</event>
<event>
 5   0  0.3603037E+08  0.9118800E+02  0.7818608E-02  0.1180000E+00
       11   -1    0    0    0    0  0.00000000000E+00  0.00000000000E+00  0.39999999673E+01  0.40000000000E+01  0.51109989000E-03 0. -1.
     -623   -1    0    0    0    0  0.00000000000E+00  0.00000000000E+00  0.12525980253E-10  0.17130000000E+03  0.17130000000E+03 0.  1.
       11    1    1    2    0    0  0.12617385747E-02 -0.42139559353E-02  0.45939473317E+00  0.45941607666E+00  0.51109989000E-03 0. -1.
     -623    1    1    2    0    0 -0.13598267536E-03 -0.14511349067E-03  0.80661695449E-04  0.17130000000E+03  0.17130000000E+03 0.  1.
      622    1    1    2    0    0 -0.11257558993E-02  0.43590694260E-02  0.35405245725E+01  0.35405839232E+01  0.20000000000E-01 0. -1.
</event>
<event>
 5   0  0.3603037E+08  0.9118800E+02  0.7818608E-02  0.1180000E+00
       11   -1    0    0    0    0  0.00000000000E+00  0.00000000000E+00  0.39999999673E+01  0.40000000000E+01  0.51109989000E-03 0. -1.
     -623   -1    0    0    0    0  0.00000000000E+00  0.00000000000E+00  0.12525980253E-10  0.17130000000E+03  0.17130000000E+03 0.  1.
       11    1    1    2    0    0 -0.81012967550E-03 -0.40737718515E-03  0.16056449211E-01  0.16090153814E-01  0.51109989000E-03 0. -1.
     -623    1    1    2    0    0  0.44634287589E-04 -0.33646814790E-03  0.84017562731E-04  0.17130000000E+03  0.17130000000E+03 0.  1.
      622    1    1    2    0    0  0.76549538791E-03  0.74384533305E-03  0.39838595006E+01  0.39839098458E+01  0.20000000000E-01 0. -1.
</event>
<event>
 5   0  0.3603037E+08  0.9118800E+02  0.7818608E-02  0.1180000E+00
       11   -1    0    0    0    0  0.00000000000E+00  0.00000000000E+00  0.39999999673E+01  0.40000000000E+01  0.51109989000E-03 0. -1.
     -623   -1    0    0    0    0  0.00000000000E+00  0.00000000000E+00  0.12525980253E-10  0.17130000000E+03  0.17130000000E+03 0. -1.
       11    1    1    2    0    0  0.44785217492E-02 -0.87089590002E-02  0.72702793877E-01  0.73361165365E-01  0.51109989000E-03 0. -1.
     -623    1    1    2    0    0  0.24273794122E-03 -0.31836692684E-02  0.73015293543E-03  0.17130000003E+03  0.17130000000E+03 0. -1.
      622    1    1    2    0    0 -0.47212596904E-02  0.11892628269E-01  0.39265670205E+01  0.39266388033E+01  0.20000000000E-01 0. -1.
</event>
<event>
 5   0  0.3603037E+08  0.9118800E+02  0.7818608E-02  0.1180000E+00
       11   -1    0    0    0    0  0.00000000000E+00  0.00000000000E+00  0.39999999673E+01  0.40000000000E+01  0.51109989000E-03 0.  1.
     -623   -1    0    0    0    0  0.00000000000E+00  0.00000000000E+00  0.12525980253E-10  0.17130000000E+03  0.17130000000E+03 0. -1.
       11    1    1    2    0    0  0.29709690257E-02 -0.35155392112E-01  0.85546664884E+00  0.85619400649E+00  0.51109989000E-03 0.  1.
     -623    1    1    2    0    0  0.41169295578E-02  0.44367157087E-03  0.99062749651E-03  0.17130000005E+03  0.17130000000E+03 0. -1.
      622    1    1    2    0    0 -0.70878985835E-02  0.34711720541E-01  0.31435426910E+01  0.31438059406E+01  0.20000000000E-01 0.  1.
</event>
<event>
 5   0  0.3603037E+08  0.9118800E+02  0.7818608E-02  0.1180000E+00
       11   -1    0    0    0    0  0.00000000000E+00  0.00000000000E+00  0.39999999673E+01  0.40000000000E+01  0.51109989000E-03 0. -1.
     -623   -1    0    0    0    0  0.00000000000E+00  0.00000000000E+00  0.12525980253E-10  0.17130000000E+03  0.17130000000E+03 0. -1.
       11    1    1    2    0    0 -0.63447852546E-03  0.19089978707E-02  0.96039476577E-01  0.96061902533E-01  0.51109989000E-03 0. -1.
     -623    1    1    2    0    0  0.15471097890E-03 -0.18219590014E-04  0.74111421690E-04  0.17130000000E+03  0.17130000000E+03 0. -1.
      622    1    1    2    0    0  0.47976754655E-03 -0.18907782807E-02  0.39038863794E+01  0.39039380974E+01  0.20000000000E-01 0. -1.
</event>
<event>
 5   0  0.3603037E+08  0.9118800E+02  0.7818608E-02  0.1180000E+00
       11   -1    0    0    0    0  0.00000000000E+00  0.00000000000E+00  0.39999999673E+01  0.40000000000E+01  0.51109989000E-03 0. -1.
     -623   -1    0    0    0    0  0.00000000000E+00  0.00000000000E+00  0.12525980253E-10  0.17130000000E+03  0.17130000000E+03 0.  1.
       11    1    1    2    0    0  0.94504223543E-02  0.23496450915E-01  0.43434732337E+00  0.43508533902E+00  0.51109989000E-03 0. -1.
     -623    1    1    2    0    0 -0.18189521122E-03 -0.16731971859E-02  0.87294458832E-03  0.17130000001E+03  0.17130000000E+03 0.  1.
      622    1    1    2    0    0 -0.92685271431E-02 -0.21823253729E-01  0.35647796994E+01  0.35649146505E+01  0.20000000000E-01 0. -1.
</event>
<event>
 5   0  0.3603037E+08  0.9118800E+02  0.7818608E-02  0.1180000E+00
       11   -1    0    0    0    0  0.00000000000E+00  0.00000000000E+00  0.39999999673E+01  0.40000000000E+01  0.51109989000E-03 0. -1.
     -623   -1    0    0    0    0  0.00000000000E+00  0.00000000000E+00  0.12525980253E-10  0.17130000000E+03  0.17130000000E+03 0. -1.
       11    1    1    2    0    0 -0.76991204647E-03  0.28876077047E-02  0.12650655882E-01  0.13008895306E-01  0.51109989000E-03 0. -1.
     -623    1    1    2    0    0  0.22651985360E-02 -0.28250738361E-02  0.40868989354E-03  0.17130000004E+03  0.17130000000E+03 0. -1.
      622    1    1    2    0    0 -0.14952864895E-02 -0.62533868538E-04  0.39869406216E+01  0.39869910659E+01  0.20000000000E-01 0. -1.
</event>
<event>
 5   0  0.3603037E+08  0.9118800E+02  0.7818608E-02  0.1180000E+00
       11   -1    0    0    0    0  0.00000000000E+00  0.00000000000E+00  0.39999999673E+01  0.40000000000E+01  0.51109989000E-03 0. -1.
     -623   -1    0    0    0    0  0.00000000000E+00  0.00000000000E+00  0.12525980253E-10  0.17130000000E+03  0.17130000000E+03 0. -1.
       11    1    1    2    0    0  0.91982424728E-02 -0.59842558961E-02  0.31892720550E+01  0.31892909747E+01  0.51109989000E-03 0. -1.
     -623    1    1    2    0    0  0.59500625819E-02 -0.63497382027E-02  0.50129859048E-03  0.17130000022E+03  0.17130000000E+03 0. -1.
      622    1    1    2    0    0 -0.15148305055E-01  0.12333994099E-01  0.81022661377E+00  0.81070880359E+00  0.20000000000E-01 0.  0.
</event>
<event>
 5   0  0.3603037E+08  0.9118800E+02  0.7818608E-02  0.1180000E+00
       11   -1    0    0    0    0  0.00000000000E+00  0.00000000000E+00  0.39999999673E+01  0.40000000000E+01  0.51109989000E-03 0.  1.
     -623   -1    0    0    0    0  0.00000000000E+00  0.00000000000E+00  0.12525980253E-10  0.17130000000E+03  0.17130000000E+03 0. -1.
       11    1    1    2    0    0  0.72997618114E-02 -0.38860860583E-02  0.69189732398E+00  0.69194693174E+00  0.51109989000E-03 0.  1.
     -623    1    1    2    0    0 -0.38206274486E-04 -0.25754819775E-03  0.12059975198E-03  0.17130000000E+03  0.17130000000E+03 0. -1.
      622    1    1    2    0    0 -0.72615555369E-02  0.41436342561E-02  0.33079820436E+01  0.33080530680E+01  0.20000000000E-01 0. -1.
</event>
<event>
 5   0  0.3603037E+08  0.9118800E+02  0.7818608E-02  0.1180000E+00
       11   -1    0    0    0    0  0.00000000000E+00  0.00000000000E+00  0.39999999673E+01  0.40000000000E+01  0.51109989000E-03 0.  1.
     -623   -1    0    0    0    0  0.00000000000E+00  0.00000000000E+00  0.12525980253E-10  0.17130000000E+03  0.17130000000E+03 0. -1.
       11    1    1    2    0    0 -0.12620848065E-03  0.22259513775E-04  0.99062355356E-01  0.99063756708E-01  0.51109989000E-03 0.  1.
     -623    1    1    2    0    0  0.46696690866E-03  0.84835155690E-03  0.52753573974E-04  0.17130000000E+03  0.17130000000E+03 0. -1.
      622    1    1    2    0    0 -0.34075842802E-03 -0.87061107068E-03  0.39008848584E+01  0.39009362405E+01  0.20000000000E-01 0.  1.
</event>
<event>
 5   0  0.3603037E+08  0.9118800E+02  0.7818608E-02  0.1180000E+00
       11   -1    0    0    0    0  0.00000000000E+00  0.00000000000E+00  0.39999999673E+01  0.40000000000E+01  0.51109989000E-03 0.  1.
     -623   -1    0    0    0    0  0.00000000000E+00  0.00000000000E+00  0.12525980253E-10  0.17130000000E+03  0.17130000000E+03 0. -1.
       11    1    1    2    0    0  0.46414500063E-01 -0.22902494558E-01  0.77409496600E+00  0.77582350292E+00  0.51109989000E-03 0.  1.
     -623    1    1    2    0    0  0.35017406751E-02  0.22419144342E-02  0.22432366031E-02  0.17130000007E+03  0.17130000000E+03 0. -1.
      622    1    1    2    0    0 -0.49916240738E-01  0.20660580124E-01  0.32236617648E+01  0.32241764319E+01  0.20000000000E-01 0.  1.
</event>
<event>
 5   0  0.3603037E+08  0.9118800E+02  0.7818608E-02  0.1180000E+00
       11   -1    0    0    0    0  0.00000000000E+00  0.00000000000E+00  0.39999999673E+01  0.40000000000E+01  0.51109989000E-03 0.  1.
     -623   -1    0    0    0    0  0.00000000000E+00  0.00000000000E+00  0.12525980253E-10  0.17130000000E+03  0.17130000000E+03 0.  1.
       11    1    1    2    0    0 -0.32874160334E-03 -0.40509957508E-02  0.13967027409E-01  0.14555332856E-01  0.51109989000E-03 0.  1.
     -623    1    1    2    0    0 -0.13089186309E-02  0.76894826880E-02  0.64063187458E-03  0.17130000018E+03  0.17130000000E+03 0.  1.
      622    1    1    2    0    0  0.16376602343E-02 -0.36384869372E-02  0.39853923081E+01  0.39854444884E+01  0.20000000000E-01 0.  1.
</event>
<event>
 5   0  0.3603037E+08  0.9118800E+02  0.7818608E-02  0.1180000E+00
       11   -1    0    0    0    0  0.00000000000E+00  0.00000000000E+00  0.39999999673E+01  0.40000000000E+01  0.51109989000E-03 0. -1.
     -623   -1    0    0    0    0  0.00000000000E+00  0.00000000000E+00  0.12525980253E-10  0.17130000000E+03  0.17130000000E+03 0. -1.
       11    1    1    2    0    0  0.44925623028E-03 -0.12379513989E-02  0.13981056290E-01  0.14052242185E-01  0.51109989000E-03 0. -1.
     -623    1    1    2    0    0  0.68344624002E-03  0.31914262805E-02  0.12200061901E-03  0.17130000003E+03  0.17130000000E+03 0. -1.
      622    1    1    2    0    0 -0.11327024703E-02 -0.19534748815E-02  0.39858969105E+01  0.39859477267E+01  0.20000000000E-01 0. -1.
</event>
<event>
 5   0  0.3603037E+08  0.9118800E+02  0.7818608E-02  0.1180000E+00
       11   -1    0    0    0    0  0.00000000000E+00  0.00000000000E+00  0.39999999673E+01  0.40000000000E+01  0.51109989000E-03 0. -1.
     -623   -1    0    0    0    0  0.00000000000E+00  0.00000000000E+00  0.12525980253E-10  0.17130000000E+03  0.17130000000E+03 0. -1.
       11    1    1    2    0    0 -0.16171627070E-02 -0.28265652487E-02  0.14638580309E+00  0.14642291232E+00  0.51109989000E-03 0. -1.
     -623    1    1    2    0    0  0.40247465560E-02  0.69477345673E-02  0.92120779609E-04  0.17130000019E+03  0.17130000000E+03 0. -1.
      622    1    1    2    0    0 -0.24075838490E-02 -0.41211693185E-02  0.38535220435E+01  0.38535768995E+01  0.20000000000E-01 0. -1.
</event>
<event>
 5   0  0.3603037E+08  0.9118800E+02  0.7818608E-02  0.1180000E+00
       11   -1    0    0    0    0  0.00000000000E+00  0.00000000000E+00  0.39999999673E+01  0.40000000000E+01  0.51109989000E-03 0. -1.
     -623   -1    0    0    0    0  0.00000000000E+00  0.00000000000E+00  0.12525980253E-10  0.17130000000E+03  0.17130000000E+03 0. -1.
       11    1    1    2    0    0 -0.38864454433E-03 -0.14323829092E-02  0.94555124672E-01  0.94568153145E-01  0.51109989000E-03 0. -1.
     -623    1    1    2    0    0  0.10683715642E-03 -0.35869391862E-03  0.64628192468E-04  0.17130000000E+03  0.17130000000E+03 0. -1.
      622    1    1    2    0    0  0.28180738791E-03  0.17910768278E-02  0.39053802145E+01  0.39054318464E+01  0.20000000000E-01 0. -1.
</event>
<event>
 5   0  0.3603037E+08  0.9118800E+02  0.7818608E-02  0.1180000E+00
       11   -1    0    0    0    0  0.00000000000E+00  0.00000000000E+00  0.39999999673E+01  0.40000000000E+01  0.51109989000E-03 0. -1.
     -623   -1    0    0    0    0  0.00000000000E+00  0.00000000000E+00  0.12525980253E-10  0.17130000000E+03  0.17130000000E+03 0.  1.
       11    1    1    2    0    0  0.27343863350E-03  0.16462843310E-01  0.16701378529E+01  0.16702190901E+01  0.51109989000E-03 0. -1.
     -623    1    1    2    0    0  0.21311350533E-03  0.52792311265E-04  0.22564412895E-03  0.17130000000E+03  0.17130000000E+03 0.  1.
      622    1    1    2    0    0 -0.48655213883E-03 -0.16515635621E-01  0.23296364703E+01  0.23297809096E+01  0.20000000000E-01 0. -1.
</event>
<event>
 5   0  0.3603037E+08  0.9118800E+02  0.7818608E-02  0.1180000E+00
       11   -1    0    0    0    0  0.00000000000E+00  0.00000000000E+00  0.39999999673E+01  0.40000000000E+01  0.51109989000E-03 0. -1.
     -623   -1    0    0    0    0  0.00000000000E+00  0.00000000000E+00  0.12525980253E-10  0.17130000000E+03  0.17130000000E+03 0.  1.
       11    1    1    2    0    0 -0.35405838316E-02  0.28585579939E-02  0.23855968055E+00  0.23860362423E+00  0.51109989000E-03 0. -1.
     -623    1    1    2    0    0 -0.36835611670E-03 -0.39350258820E-04  0.10017127620E-03  0.17130000000E+03  0.17130000000E+03 0.  1.
      622    1    1    2    0    0  0.39089399483E-02 -0.28192077351E-02  0.37613401155E+01  0.37613963753E+01  0.20000000000E-01 0. -1.
</event>
<event>
 5   0  0.3603037E+08  0.9118800E+02  0.7818608E-02  0.1180000E+00
       11   -1    0    0    0    0  0.00000000000E+00  0.00000000000E+00  0.39999999673E+01  0.40000000000E+01  0.51109989000E-03 0.  1.
     -623   -1    0    0    0    0  0.00000000000E+00  0.00000000000E+00  0.12525980253E-10  0.17130000000E+03  0.17130000000E+03 0. -1.
       11    1    1    2    0    0 -0.17725684401E-03 -0.65276629367E-03  0.12457844276E-01  0.12486658081E-01  0.51109989000E-03 0.  1.
     -623    1    1    2    0    0  0.31760776221E-03 -0.18170133531E-03  0.79028247202E-04  0.17130000000E+03  0.17130000000E+03 0. -1.
      622    1    1    2    0    0 -0.14035091820E-03  0.83446762898E-03  0.39874630948E+01  0.39875133415E+01  0.20000000000E-01 0.  1.
</event>
<event>
 5   0  0.3603037E+08  0.9118800E+02  0.7818608E-02  0.1180000E+00
       11   -1    0    0    0    0  0.00000000000E+00  0.00000000000E+00  0.39999999673E+01  0.40000000000E+01  0.51109989000E-03 0.  1.
     -623   -1    0    0    0    0  0.00000000000E+00  0.00000000000E+00  0.12525980253E-10  0.17130000000E+03  0.17130000000E+03 0. -1.
       11    1    1    2    0    0  0.87327066943E-03 -0.47820763625E-03  0.28342478616E+00  0.28342699575E+00  0.51109989000E-03 0.  1.
     -623    1    1    2    0    0 -0.97518231390E-04 -0.11204872371E-03  0.56118255318E-04  0.17130000000E+03  0.17130000000E+03 0. -1.
      622    1    1    2    0    0 -0.77575243804E-03  0.59025635996E-03  0.37165190629E+01  0.37165730042E+01  0.20000000000E-01 0.  1.
</event>
<event>
 5   0  0.3603037E+08  0.9118800E+02  0.7818608E-02  0.1180000E+00
       11   -1    0    0    0    0  0.00000000000E+00  0.00000000000E+00  0.39999999673E+01  0.40000000000E+01  0.51109989000E-03 0.  1.
     -623   -1    0    0    0    0  0.00000000000E+00  0.00000000000E+00  0.12525980253E-10  0.17130000000E+03  0.17130000000E+03 0. -1.
       11    1    1    2    0    0 -0.15205549400E-01 -0.14257007689E-01  0.66082780322E+00  0.66115665144E+00  0.51109989000E-03 0.  1.
     -623    1    1    2    0    0 -0.46345799359E-02 -0.53573816679E-02  0.50542901698E-03  0.17130000015E+03  0.17130000000E+03 0. -1.
      622    1    1    2    0    0  0.19840129336E-01  0.19614389357E-01  0.33386667351E+01  0.33388432013E+01  0.20000000000E-01 0.  1.
</event>
<event>
 5   0  0.3603037E+08  0.9118800E+02  0.7818608E-02  0.1180000E+00
       11   -1    0    0    0    0  0.00000000000E+00  0.00000000000E+00  0.39999999673E+01  0.40000000000E+01  0.51109989000E-03 0.  1.
     -623   -1    0    0    0    0  0.00000000000E+00  0.00000000000E+00  0.12525980253E-10  0.17130000000E+03  0.17130000000E+03 0. -1.
       11    1    1    2    0    0 -0.38325077382E-02  0.54582370374E-03  0.18357674449E+01  0.18357715978E+01  0.51109989000E-03 0.  1.
     -623    1    1    2    0    0 -0.30990288898E-04  0.38465964055E-04  0.10006139334E-03  0.17130000000E+03  0.17130000000E+03 0. -1.
      622    1    1    2    0    0  0.38634980271E-02 -0.58428966779E-03  0.21641324610E+01  0.21642284022E+01  0.20000000000E-01 0.  1.
</event>
<event>
 5   0  0.3603037E+08  0.9118800E+02  0.7818608E-02  0.1180000E+00
       11   -1    0    0    0    0  0.00000000000E+00  0.00000000000E+00  0.39999999673E+01  0.40000000000E+01  0.51109989000E-03 0.  1.
     -623   -1    0    0    0    0  0.00000000000E+00  0.00000000000E+00  0.12525980253E-10  0.17130000000E+03  0.17130000000E+03 0. -1.
       11    1    1    2    0    0  0.69951444173E-04  0.17809941742E-01  0.57044624496E+00  0.57072443309E+00  0.51109989000E-03 0.  1.
     -623    1    1    2    0    0  0.13377687369E-01 -0.15095780241E-01  0.36510688571E-03  0.17130000119E+03  0.17130000000E+03 0. -1.
      622    1    1    2    0    0 -0.13447638813E-01 -0.27141615014E-02  0.34291886155E+01  0.34292743790E+01  0.20000000000E-01 0.  1.
</event>
<event>
 5   0  0.3603037E+08  0.9118800E+02  0.7818608E-02  0.1180000E+00
       11   -1    0    0    0    0  0.00000000000E+00  0.00000000000E+00  0.39999999673E+01  0.40000000000E+01  0.51109989000E-03 0.  1.
     -623   -1    0    0    0    0  0.00000000000E+00  0.00000000000E+00  0.12525980253E-10  0.17130000000E+03  0.17130000000E+03 0. -1.
       11    1    1    2    0    0  0.62788891516E-02  0.12601047009E-02  0.12865378647E+01  0.12865539052E+01  0.51109989000E-03 0.  1.
     -623    1    1    2    0    0 -0.93757193703E-04  0.36180864310E-03  0.97250513635E-04  0.17130000000E+03  0.17130000000E+03 0. -1.
      622    1    1    2    0    0 -0.61851319579E-02 -0.16219133440E-02  0.27133648521E+01  0.27134460944E+01  0.20000000000E-01 0.  1.
</event>
<event>
 5   0  0.3603037E+08  0.9118800E+02  0.7818608E-02  0.1180000E+00
       11   -1    0    0    0    0  0.00000000000E+00  0.00000000000E+00  0.39999999673E+01  0.40000000000E+01  0.51109989000E-03 0.  1.
     -623   -1    0    0    0    0  0.00000000000E+00  0.00000000000E+00  0.12525980253E-10  0.17130000000E+03  0.17130000000E+03 0. -1.
       11    1    1    2    0    0 -0.97904731249E-03  0.32746231075E-02  0.18199895295E+00  0.18203176038E+00  0.51109989000E-03 0.  1.
     -623    1    1    2    0    0  0.10357356640E-01 -0.36246981846E-03  0.98101641153E-04  0.17130000031E+03  0.17130000000E+03 0. -1.
      622    1    1    2    0    0 -0.93783093280E-02 -0.29121532891E-02  0.38179029128E+01  0.38179679261E+01  0.20000000000E-01 0.  1.
</event>
<event>
 5   0  0.3603037E+08  0.9118800E+02  0.7818608E-02  0.1180000E+00
       11   -1    0    0    0    0  0.00000000000E+00  0.00000000000E+00  0.39999999673E+01  0.40000000000E+01  0.51109989000E-03 0. -1.
     -623   -1    0    0    0    0  0.00000000000E+00  0.00000000000E+00  0.12525980253E-10  0.17130000000E+03  0.17130000000E+03 0. -1.
       11    1    1    2    0    0 -0.97644124396E-03  0.11651629123E-02  0.18484164997E-01  0.18553614706E-01  0.51109989000E-03 0. -1.
     -623    1    1    2    0    0 -0.24131000192E-03 -0.24744930541E-02  0.12006999778E-03  0.17130000002E+03  0.17130000000E+03 0. -1.
      622    1    1    2    0    0  0.12177512459E-02  0.13093301418E-02  0.39813957324E+01  0.39814463672E+01  0.20000000000E-01 0. -1.
</event>
<event>
 5   0  0.3603037E+08  0.9118800E+02  0.7818608E-02  0.1180000E+00
       11   -1    0    0    0    0  0.00000000000E+00  0.00000000000E+00  0.39999999673E+01  0.40000000000E+01  0.51109989000E-03 0.  1.
     -623   -1    0    0    0    0  0.00000000000E+00  0.00000000000E+00  0.12525980253E-10  0.17130000000E+03  0.17130000000E+03 0.  1.
       11    1    1    2    0    0 -0.31153945051E-02  0.81822278605E-03  0.25294619199E-01  0.25504002671E-01  0.51109989000E-03 0.  1.
     -623    1    1    2    0    0 -0.74082176767E-04 -0.19906923703E-02  0.26113649062E-03  0.17130000001E+03  0.17130000000E+03 0.  1.
      622    1    1    2    0    0  0.31894766818E-02  0.11724695843E-02  0.39744442117E+01  0.39744959855E+01  0.20000000000E-01 0.  1.
</event>
<event>
 5   0  0.3603037E+08  0.9118800E+02  0.7818608E-02  0.1180000E+00
       11   -1    0    0    0    0  0.00000000000E+00  0.00000000000E+00  0.39999999673E+01  0.40000000000E+01  0.51109989000E-03 0. -1.
     -623   -1    0    0    0    0  0.00000000000E+00  0.00000000000E+00  0.12525980253E-10  0.17130000000E+03  0.17130000000E+03 0. -1.
       11    1    1    2    0    0  0.16953276741E-02 -0.36466788967E-02  0.87916257324E-02  0.96812348372E-02  0.51109989000E-03 0. -1.
     -623    1    1    2    0    0  0.58701855796E-03 -0.87928727491E-03  0.94292346441E-03  0.17130000001E+03  0.17130000000E+03 0. -1.
      622    1    1    2    0    0 -0.22823462320E-02  0.45259661716E-02  0.39902654182E+01  0.39903187593E+01  0.20000000000E-01 0. -1.
</event>
<event>
 5   0  0.3603037E+08  0.9118800E+02  0.7818608E-02  0.1180000E+00
       11   -1    0    0    0    0  0.00000000000E+00  0.00000000000E+00  0.39999999673E+01  0.40000000000E+01  0.51109989000E-03 0.  1.
     -623   -1    0    0    0    0  0.00000000000E+00  0.00000000000E+00  0.12525980253E-10  0.17130000000E+03  0.17130000000E+03 0. -1.
       11    1    1    2    0    0 -0.38908621524E-01 -0.40997029292E-02  0.37982956529E+00  0.38183955830E+00  0.51109989000E-03 0.  1.
     -623    1    1    2    0    0 -0.67074442371E-03  0.45352243415E-02  0.22818310821E-02  0.17130000008E+03  0.17130000000E+03 0. -1.
      622    1    1    2    0    0  0.39579365948E-01 -0.43552141230E-03  0.36178885710E+01  0.36181603651E+01  0.20000000000E-01 0.  1.
</event>
<event>
 5   0  0.3603037E+08  0.9118800E+02  0.7818608E-02  0.1180000E+00
       11   -1    0    0    0    0  0.00000000000E+00  0.00000000000E+00  0.39999999673E+01  0.40000000000E+01  0.51109989000E-03 0. -1.
     -623   -1    0    0    0    0  0.00000000000E+00  0.00000000000E+00  0.12525980253E-10  0.17130000000E+03  0.17130000000E+03 0. -1.
       11    1    1    2    0    0 -0.13230888584E-02  0.22638560519E-02  0.83902762902E-01  0.83945282498E-01  0.51109989000E-03 0. -1.
     -623    1    1    2    0    0  0.20649524484E-02  0.13186220372E-02  0.95285596483E-04  0.17130000002E+03  0.17130000000E+03 0. -1.
      622    1    1    2    0    0 -0.74186359002E-03 -0.35824780891E-02  0.39160019189E+01  0.39160547000E+01  0.20000000000E-01 0. -1.
</event>
<event>
 5   0  0.3603037E+08  0.9118800E+02  0.7818608E-02  0.1180000E+00
       11   -1    0    0    0    0  0.00000000000E+00  0.00000000000E+00  0.39999999673E+01  0.40000000000E+01  0.51109989000E-03 0. -1.
     -623   -1    0    0    0    0  0.00000000000E+00  0.00000000000E+00  0.12525980253E-10  0.17130000000E+03  0.17130000000E+03 0. -1.
       11    1    1    2    0    0 -0.43156164769E-03  0.53560116837E-03  0.43908892214E-01  0.43917253458E-01  0.51109989000E-03 0. -1.
     -623    1    1    2    0    0  0.37166898662E-03  0.16035531746E-03  0.58946146409E-04  0.17130000000E+03  0.17130000000E+03 0. -1.
      622    1    1    2    0    0  0.59892661071E-04 -0.69595648583E-03  0.39560321290E+01  0.39560827461E+01  0.20000000000E-01 0. -1.
</event>
<event>
 5   0  0.3603037E+08  0.9118800E+02  0.7818608E-02  0.1180000E+00
       11   -1    0    0    0    0  0.00000000000E+00  0.00000000000E+00  0.39999999673E+01  0.40000000000E+01  0.51109989000E-03 0. -1.
     -623   -1    0    0    0    0  0.00000000000E+00  0.00000000000E+00  0.12525980253E-10  0.17130000000E+03  0.17130000000E+03 0.  1.
       11    1    1    2    0    0 -0.23892439608E-02  0.24493377379E-02  0.19056813025E+00  0.19059953103E+00  0.51109989000E-03 0. -1.
     -623    1    1    2    0    0 -0.82450051055E-02 -0.46468186958E-02  0.99608934688E-04  0.17130000026E+03  0.17130000000E+03 0.  1.
      622    1    1    2    0    0  0.10634249066E-01  0.21974809579E-02  0.38093322282E+01  0.38094002075E+01  0.20000000000E-01 0. -1.
</event>
<event>
 5   0  0.3603037E+08  0.9118800E+02  0.7818608E-02  0.1180000E+00
       11   -1    0    0    0    0  0.00000000000E+00  0.00000000000E+00  0.39999999673E+01  0.40000000000E+01  0.51109989000E-03 0.  1.
     -623   -1    0    0    0    0  0.00000000000E+00  0.00000000000E+00  0.12525980253E-10  0.17130000000E+03  0.17130000000E+03 0.  1.
       11    1    1    2    0    0  0.94606612645E-03 -0.26931178845E-03  0.21995068184E-01  0.22022983791E-01  0.51109989000E-03 0.  1.
     -623    1    1    2    0    0  0.99435200297E-04 -0.17977452939E-03  0.78322979334E-04  0.17130000000E+03  0.17130000000E+03 0.  1.
      622    1    1    2    0    0 -0.10455013267E-02  0.44908631784E-03  0.39779265762E+01  0.39779770161E+01  0.20000000000E-01 0.  1.
</event>
<event>
 5   0  0.3603037E+08  0.9118800E+02  0.7818608E-02  0.1180000E+00
       11   -1    0    0    0    0  0.00000000000E+00  0.00000000000E+00  0.39999999673E+01  0.40000000000E+01  0.51109989000E-03 0.  1.
     -623   -1    0    0    0    0  0.00000000000E+00  0.00000000000E+00  0.12525980253E-10  0.17130000000E+03  0.17130000000E+03 0.  1.
       11    1    1    2    0    0 -0.69975624341E-02 -0.11224256838E-02  0.12756831807E+01  0.12757029687E+01  0.51109989000E-03 0.  1.
     -623    1    1    2    0    0  0.12933061855E-03  0.37339897704E-03  0.10193129057E-03  0.17130000000E+03  0.17130000000E+03 0.  1.
      622    1    1    2    0    0  0.68682318155E-02  0.74902670680E-03  0.27242148554E+01  0.27242970308E+01  0.20000000000E-01 0.  1.
</event>
<event>
 5   0  0.3603037E+08  0.9118800E+02  0.7818608E-02  0.1180000E+00
       11   -1    0    0    0    0  0.00000000000E+00  0.00000000000E+00  0.39999999673E+01  0.40000000000E+01  0.51109989000E-03 0.  1.
     -623   -1    0    0    0    0  0.00000000000E+00  0.00000000000E+00  0.12525980253E-10  0.17130000000E+03  0.17130000000E+03 0.  1.
       11    1    1    2    0    0 -0.29221070241E-02  0.19502320810E-02  0.14318005662E+01  0.14318049674E+01  0.51109989000E-03 0.  1.
     -623    1    1    2    0    0 -0.46991116606E-04 -0.84982692662E-03  0.84199693149E-04  0.17130000000E+03  0.17130000000E+03 0.  1.
      622    1    1    2    0    0  0.29690981407E-02 -0.11004051544E-02  0.25681152015E+01  0.25681950305E+01  0.20000000000E-01 0.  1.
</event>
<event>
 5   0  0.3603037E+08  0.9118800E+02  0.7818608E-02  0.1180000E+00
       11   -1    0    0    0    0  0.00000000000E+00  0.00000000000E+00  0.39999999673E+01  0.40000000000E+01  0.51109989000E-03 0. -1.
     -623   -1    0    0    0    0  0.00000000000E+00  0.00000000000E+00  0.12525980253E-10  0.17130000000E+03  0.17130000000E+03 0.  1.
       11    1    1    2    0    0 -0.25137371506E-02 -0.63547232281E-02  0.14429402079E+01  0.14429564811E+01  0.51109989000E-03 0. -1.
     -623    1    1    2    0    0 -0.13924408833E-03 -0.99347920340E-03  0.10639495147E-03  0.17130000000E+03  0.17130000000E+03 0.  1.
      622    1    1    2    0    0  0.26529812389E-02  0.73482024315E-02  0.25569533645E+01  0.25570435160E+01  0.20000000000E-01 0.  0.
</event>
<event>
 5   0  0.3603037E+08  0.9118800E+02  0.7818608E-02  0.1180000E+00
       11   -1    0    0    0    0  0.00000000000E+00  0.00000000000E+00  0.39999999673E+01  0.40000000000E+01  0.51109989000E-03 0.  1.
     -623   -1    0    0    0    0  0.00000000000E+00  0.00000000000E+00  0.12525980253E-10  0.17130000000E+03  0.17130000000E+03 0. -1.
       11    1    1    2    0    0 -0.24667150080E-02  0.54488353115E-03  0.16935963105E-01  0.17130955875E-01  0.51109989000E-03 0.  1.
     -623    1    1    2    0    0  0.19670162111E-03  0.11954932969E-02  0.24620711269E-03  0.17130000000E+03  0.17130000000E+03 0. -1.
      622    1    1    2    0    0  0.22700133868E-02 -0.17403768281E-02  0.39828177971E+01  0.39828690397E+01  0.20000000000E-01 0.  1.
</event>
<event>
 5   0  0.3603037E+08  0.9118800E+02  0.7818608E-02  0.1180000E+00
       11   -1    0    0    0    0  0.00000000000E+00  0.00000000000E+00  0.39999999673E+01  0.40000000000E+01  0.51109989000E-03 0.  1.
     -623   -1    0    0    0    0  0.00000000000E+00  0.00000000000E+00  0.12525980253E-10  0.17130000000E+03  0.17130000000E+03 0.  1.
       11    1    1    2    0    0  0.81613735558E-02  0.36154348943E-02  0.50802128645E+00  0.50809995876E+00  0.51109989000E-03 0.  1.
     -623    1    1    2    0    0  0.26393386326E-03  0.10934771424E-02  0.14925894731E-03  0.17130000000E+03  0.17130000000E+03 0.  1.
      622    1    1    2    0    0 -0.84253074191E-02 -0.47089120367E-02  0.34918294220E+01  0.34919000375E+01  0.20000000000E-01 0.  1.
</event>
<event>
 5   0  0.3603037E+08  0.9118800E+02  0.7818608E-02  0.1180000E+00
       11   -1    0    0    0    0  0.00000000000E+00  0.00000000000E+00  0.39999999673E+01  0.40000000000E+01  0.51109989000E-03 0.  1.
     -623   -1    0    0    0    0  0.00000000000E+00  0.00000000000E+00  0.12525980253E-10  0.17130000000E+03  0.17130000000E+03 0. -1.
       11    1    1    2    0    0 -0.13486342461E-02  0.18312194591E-02  0.91855679622E-01  0.91885250614E-01  0.51109989000E-03 0.  1.
     -623    1    1    2    0    0  0.14258025448E-03  0.17873947096E-03  0.81417399088E-04  0.17130000000E+03  0.17130000000E+03 0. -1.
      622    1    1    2    0    0  0.12060539917E-02 -0.20099589301E-02  0.39080628703E+01  0.39081147492E+01  0.20000000000E-01 0.  1.
</event>
<event>
 5   0  0.3603037E+08  0.9118800E+02  0.7818608E-02  0.1180000E+00
       11   -1    0    0    0    0  0.00000000000E+00  0.00000000000E+00  0.39999999673E+01  0.40000000000E+01  0.51109989000E-03 0. -1.
     -623   -1    0    0    0    0  0.00000000000E+00  0.00000000000E+00  0.12525980253E-10  0.17130000000E+03  0.17130000000E+03 0.  1.
       11    1    1    2    0    0  0.19252113900E-02  0.59449924750E-03  0.13976719652E+00  0.13978265383E+00  0.51109989000E-03 0. -1.
     -623    1    1    2    0    0 -0.27872495975E-02 -0.25759444508E-02  0.67882430569E-04  0.17130000004E+03  0.17130000000E+03 0.  1.
      622    1    1    2    0    0  0.86203820750E-03  0.19814452033E-02  0.38601648884E+01  0.38602173041E+01  0.20000000000E-01 0. -1.
</event>
<event>
 5   0  0.3603037E+08  0.9118800E+02  0.7818608E-02  0.1180000E+00
       11   -1    0    0    0    0  0.00000000000E+00  0.00000000000E+00  0.39999999673E+01  0.40000000000E+01  0.51109989000E-03 0. -1.
     -623   -1    0    0    0    0  0.00000000000E+00  0.00000000000E+00  0.12525980253E-10  0.17130000000E+03  0.17130000000E+03 0.  1.
       11    1    1    2    0    0  0.75139920561E-03 -0.17860988577E-03  0.39390528472E+00  0.39390637346E+00  0.51109989000E-03 0. -1.
     -623    1    1    2    0    0  0.63127544148E-03 -0.92099848227E-04  0.56794643926E-04  0.17130000000E+03  0.17130000000E+03 0.  1.
      622    1    1    2    0    0 -0.13826746471E-02  0.27070973400E-03  0.36060378880E+01  0.36060936253E+01  0.20000000000E-01 0. -1.
</event>
<event>
 5   0  0.3603037E+08  0.9118800E+02  0.7818608E-02  0.1180000E+00
       11   -1    0    0    0    0  0.00000000000E+00  0.00000000000E+00  0.39999999673E+01  0.40000000000E+01  0.51109989000E-03 0.  1.
     -623   -1    0    0    0    0  0.00000000000E+00  0.00000000000E+00  0.12525980253E-10  0.17130000000E+03  0.17130000000E+03 0.  1.
       11    1    1    2    0    0 -0.42661597638E-02  0.44061539136E-01  0.60119837672E+00  0.60282615135E+00  0.51109989000E-03 0.  1.
     -623    1    1    2    0    0 -0.25928797892E-01 -0.35771013135E-01  0.18366343972E-02  0.17130000571E+03  0.17130000000E+03 0.  1.
      622    1    1    2    0    0  0.30194957656E-01 -0.82905260013E-02  0.33969649562E+01  0.33971681416E+01  0.20000000000E-01 0.  1.
</event>
<event>
 5   0  0.3603037E+08  0.9118800E+02  0.7818608E-02  0.1180000E+00
       11   -1    0    0    0    0  0.00000000000E+00  0.00000000000E+00  0.39999999673E+01  0.40000000000E+01  0.51109989000E-03 0. -1.
     -623   -1    0    0    0    0  0.00000000000E+00  0.00000000000E+00  0.12525980253E-10  0.17130000000E+03  0.17130000000E+03 0.  1.
       11    1    1    2    0    0 -0.19674928189E-02 -0.97331413603E-02  0.31182929974E+00  0.31198778576E+00  0.51109989000E-03 0. -1.
     -623    1    1    2    0    0  0.82772872377E-02  0.69417944576E-02  0.21947845536E-03  0.17130000034E+03  0.17130000000E+03 0.  1.
      622    1    1    2    0    0 -0.63097944187E-02  0.27913469026E-02  0.36879511892E+01  0.36880118735E+01  0.20000000000E-01 0. -1.
</event>
<event>
 5   0  0.3603037E+08  0.9118800E+02  0.7818608E-02  0.1180000E+00
       11   -1    0    0    0    0  0.00000000000E+00  0.00000000000E+00  0.39999999673E+01  0.40000000000E+01  0.51109989000E-03 0.  1.
     -623   -1    0    0    0    0  0.00000000000E+00  0.00000000000E+00  0.12525980253E-10  0.17130000000E+03  0.17130000000E+03 0.  1.
       11    1    1    2    0    0 -0.16795536927E-02  0.10326171551E-02  0.65163964783E-02  0.68272867149E-02  0.51109989000E-03 0.  1.
     -623    1    1    2    0    0 -0.27547942720E-03  0.17273682458E-03  0.36160460284E-03  0.17130000000E+03  0.17130000000E+03 0.  1.
      622    1    1    2    0    0  0.19550331199E-02 -0.12053539797E-02  0.39931219663E+01  0.39931727126E+01  0.20000000000E-01 0.  1.
</event>
<event>
 5   0  0.3603037E+08  0.9118800E+02  0.7818608E-02  0.1180000E+00
       11   -1    0    0    0    0  0.00000000000E+00  0.00000000000E+00  0.39999999673E+01  0.40000000000E+01  0.51109989000E-03 0. -1.
     -623   -1    0    0    0    0  0.00000000000E+00  0.00000000000E+00  0.12525980253E-10  0.17130000000E+03  0.17130000000E+03 0. -1.
       11    1    1    2    0    0 -0.11205814739E-02 -0.15062726030E-02  0.91172766944E-02  0.93225810027E-02  0.51109989000E-03 0. -1.
     -623    1    1    2    0    0  0.14703711164E-02  0.37042672713E-03  0.25557266628E-03  0.17130000001E+03  0.17130000000E+03 0. -1.
      622    1    1    2    0    0 -0.34978964258E-03  0.11358458759E-02  0.39906271180E+01  0.39906774121E+01  0.20000000000E-01 0. -1.
</event>
<event>
 5   0  0.3603037E+08  0.9118800E+02  0.7818608E-02  0.1180000E+00
       11   -1    0    0    0    0  0.00000000000E+00  0.00000000000E+00  0.39999999673E+01  0.40000000000E+01  0.51109989000E-03 0.  1.
     -623   -1    0    0    0    0  0.00000000000E+00  0.00000000000E+00  0.12525980253E-10  0.17130000000E+03  0.17130000000E+03 0.  1.
       11    1    1    2    0    0  0.15219233602E-01 -0.10778533590E-01  0.31743994492E+01  0.31744542722E+01  0.51109989000E-03 0.  1.
     -623    1    1    2    0    0 -0.79360439863E-03  0.17932971194E-01  0.45513091672E-03  0.17130000094E+03  0.17130000000E+03 0.  1.
      622    1    1    2    0    0 -0.14425629204E-01 -0.71544376039E-02  0.82514538724E+00  0.82554478670E+00  0.20000000000E-01 0.  1.
</event>
<event>
 5   0  0.3603037E+08  0.9118800E+02  0.7818608E-02  0.1180000E+00
       11   -1    0    0    0    0  0.00000000000E+00  0.00000000000E+00  0.39999999673E+01  0.40000000000E+01  0.51109989000E-03 0. -1.
     -623   -1    0    0    0    0  0.00000000000E+00  0.00000000000E+00  0.12525980253E-10  0.17130000000E+03  0.17130000000E+03 0. -1.
       11    1    1    2    0    0  0.16210731552E-02  0.25065471756E-02  0.10984752016E-01  0.11394588899E-01  0.51109989000E-03 0. -1.
     -623    1    1    2    0    0 -0.12347672701E-02 -0.33892616148E-02  0.46010238031E-03  0.17130000004E+03  0.17130000000E+03 0. -1.
      622    1    1    2    0    0 -0.38630588507E-03  0.88271443915E-03  0.39885551130E+01  0.39886053725E+01  0.20000000000E-01 0. -1.
</event>
<event>
 5   0  0.3603037E+08  0.9118800E+02  0.7818608E-02  0.1180000E+00
       11   -1    0    0    0    0  0.00000000000E+00  0.00000000000E+00  0.39999999673E+01  0.40000000000E+01  0.51109989000E-03 0.  1.
     -623   -1    0    0    0    0  0.00000000000E+00  0.00000000000E+00  0.12525980253E-10  0.17130000000E+03  0.17130000000E+03 0.  1.
       11    1    1    2    0    0 -0.16031804090E-03  0.37665341179E-02  0.95461801207E+00  0.95462559293E+00  0.51109989000E-03 0.  1.
     -623    1    1    2    0    0 -0.23282158240E-02  0.10674512483E-02  0.78094867562E-04  0.17130000002E+03  0.17130000000E+03 0.  1.
      622    1    1    2    0    0  0.24885338649E-02 -0.48339853662E-02  0.30453038604E+01  0.30453743879E+01  0.20000000000E-01 0. -1.
</event>
<event>
 5   0  0.3603037E+08  0.9118800E+02  0.7818608E-02  0.1180000E+00
       11   -1    0    0    0    0  0.00000000000E+00  0.00000000000E+00  0.39999999673E+01  0.40000000000E+01  0.51109989000E-03 0.  1.
     -623   -1    0    0    0    0  0.00000000000E+00  0.00000000000E+00  0.12525980253E-10  0.17130000000E+03  0.17130000000E+03 0.  1.
       11    1    1    2    0    0  0.58377436847E-02 -0.19841939061E-02  0.20091062314E+01  0.20091157573E+01  0.51109989000E-03 0.  1.
     -623    1    1    2    0    0 -0.27908043163E-05 -0.50596288875E-04  0.11954477817E-03  0.17130000000E+03  0.17130000000E+03 0.  1.
      622    1    1    2    0    0 -0.58349528804E-02  0.20347901950E-02  0.19907741912E+01  0.19908842426E+01  0.20000000000E-01 0.  1.
</event>
<event>
 5   0  0.3603037E+08  0.9118800E+02  0.7818608E-02  0.1180000E+00
       11   -1    0    0    0    0  0.00000000000E+00  0.00000000000E+00  0.39999999673E+01  0.40000000000E+01  0.51109989000E-03 0.  1.
     -623   -1    0    0    0    0  0.00000000000E+00  0.00000000000E+00  0.12525980253E-10  0.17130000000E+03  0.17130000000E+03 0.  1.
       11    1    1    2    0    0 -0.21737925886E-02  0.29712420920E-02  0.30023432204E+00  0.30025732798E+00  0.51109989000E-03 0.  1.
     -623    1    1    2    0    0 -0.22293255401E-03 -0.70569037289E-04  0.78945116624E-04  0.17130000000E+03  0.17130000000E+03 0.  1.
      622    1    1    2    0    0  0.23967251426E-02 -0.29006730547E-02  0.36996867002E+01  0.36997426718E+01  0.20000000000E-01 0.  1.
</event>
<event>
 5   0  0.3603037E+08  0.9118800E+02  0.7818608E-02  0.1180000E+00
       11   -1    0    0    0    0  0.00000000000E+00  0.00000000000E+00  0.39999999673E+01  0.40000000000E+01  0.51109989000E-03 0. -1.
     -623   -1    0    0    0    0  0.00000000000E+00  0.00000000000E+00  0.12525980253E-10  0.17130000000E+03  0.17130000000E+03 0.  1.
       11    1    1    2    0    0 -0.64095868372E-02 -0.25039532957E-01  0.11719905700E+01  0.11722756580E+01  0.51109989000E-03 0. -1.
     -623    1    1    2    0    0 -0.31584182172E-02  0.87594590317E-02  0.41909243710E-03  0.17130000025E+03  0.17130000000E+03 0.  1.
      622    1    1    2    0    0  0.95680050544E-02  0.16280073926E-01  0.28275903050E+01  0.28277240884E+01  0.20000000000E-01 0. -1.
</event>
<event>
 5   0  0.3603037E+08  0.9118800E+02  0.7818608E-02  0.1180000E+00
       11   -1    0    0    0    0  0.00000000000E+00  0.00000000000E+00  0.39999999673E+01  0.40000000000E+01  0.51109989000E-03 0. -1.
     -623   -1    0    0    0    0  0.00000000000E+00  0.00000000000E+00  0.12525980253E-10  0.17130000000E+03  0.17130000000E+03 0. -1.
       11    1    1    2    0    0 -0.13407202593E-03  0.21032918839E-02  0.35673854857E-01  0.35739711165E-01  0.51109989000E-03 0. -1.
     -623    1    1    2    0    0 -0.55206074305E-03  0.10151134064E-03  0.11694823191E-03  0.17130000000E+03  0.17130000000E+03 0. -1.
      622    1    1    2    0    0  0.68613276898E-03 -0.22048032245E-02  0.39642091643E+01  0.39642602879E+01  0.20000000000E-01 0. -1.
</event>
<event>
 5   0  0.3603037E+08  0.9118800E+02  0.7818608E-02  0.1180000E+00
       11   -1    0    0    0    0  0.00000000000E+00  0.00000000000E+00  0.39999999673E+01  0.40000000000E+01  0.51109989000E-03 0.  1.
     -623   -1    0    0    0    0  0.00000000000E+00  0.00000000000E+00  0.12525980253E-10  0.17130000000E+03  0.17130000000E+03 0.  1.
       11    1    1    2    0    0  0.15920912133E-02  0.12312009292E-02  0.47076385639E-01  0.47122159510E-01  0.51109989000E-03 0. -1.
     -623    1    1    2    0    0  0.48017886154E-03  0.62654251912E-03  0.97319194158E-04  0.17130000000E+03  0.17130000000E+03 0.  1.
      622    1    1    2    0    0 -0.20722700749E-02 -0.18577434484E-02  0.39528262625E+01  0.39528778386E+01  0.20000000000E-01 0.  1.
</event>
<event>
 5   0  0.3603037E+08  0.9118800E+02  0.7818608E-02  0.1180000E+00
       11   -1    0    0    0    0  0.00000000000E+00  0.00000000000E+00  0.39999999673E+01  0.40000000000E+01  0.51109989000E-03 0. -1.
     -623   -1    0    0    0    0  0.00000000000E+00  0.00000000000E+00  0.12525980253E-10  0.17130000000E+03  0.17130000000E+03 0.  1.
       11    1    1    2    0    0  0.12899617519E-02  0.56481998630E-02  0.22711273223E+00  0.22718719269E+00  0.51109989000E-03 0. -1.
     -623    1    1    2    0    0  0.29527580042E-03 -0.38690077644E-03  0.13144140046E-03  0.17130000000E+03  0.17130000000E+03 0.  1.
      622    1    1    2    0    0 -0.15852375523E-02 -0.52612990866E-02  0.37727557937E+01  0.37728128066E+01  0.20000000000E-01 0. -1.
</event>
<event>
 5   0  0.3603037E+08  0.9118800E+02  0.7818608E-02  0.1180000E+00
       11   -1    0    0    0    0  0.00000000000E+00  0.00000000000E+00  0.39999999673E+01  0.40000000000E+01  0.51109989000E-03 0. -1.
     -623   -1    0    0    0    0  0.00000000000E+00  0.00000000000E+00  0.12525980253E-10  0.17130000000E+03  0.17130000000E+03 0. -1.
       11    1    1    2    0    0 -0.37041733924E-02 -0.28004931787E-03  0.21651185474E-01  0.21973492680E-01  0.51109989000E-03 0. -1.
     -623    1    1    2    0    0  0.21883692797E-02  0.17988189937E-02  0.37315362596E-03  0.17130000002E+03  0.17130000000E+03 0. -1.
      622    1    1    2    0    0  0.15158041127E-02 -0.15187696759E-02  0.39779756283E+01  0.39780264835E+01  0.20000000000E-01 0. -1.
</event>
<event>
 5   0  0.3603037E+08  0.9118800E+02  0.7818608E-02  0.1180000E+00
       11   -1    0    0    0    0  0.00000000000E+00  0.00000000000E+00  0.39999999673E+01  0.40000000000E+01  0.51109989000E-03 0.  1.
     -623   -1    0    0    0    0  0.00000000000E+00  0.00000000000E+00  0.12525980253E-10  0.17130000000E+03  0.17130000000E+03 0.  1.
       11    1    1    2    0    0 -0.32512178054E-01 -0.13187596857E-01  0.78982932553E+00  0.79060836014E+00  0.51109989000E-03 0.  1.
     -623    1    1    2    0    0  0.79741861440E-02  0.11274516589E-01  0.93625715827E-03  0.17130000056E+03  0.17130000000E+03 0.  1.
      622    1    1    2    0    0  0.24537991910E-01  0.19130802680E-02  0.32092343847E+01  0.32093910807E+01  0.20000000000E-01 0.  1.
</event>
<event>
 5   0  0.3603037E+08  0.9118800E+02  0.7818608E-02  0.1180000E+00
       11   -1    0    0    0    0  0.00000000000E+00  0.00000000000E+00  0.39999999673E+01  0.40000000000E+01  0.51109989000E-03 0. -1.
     -623   -1    0    0    0    0  0.00000000000E+00  0.00000000000E+00  0.12525980253E-10  0.17130000000E+03  0.17130000000E+03 0. -1.
       11    1    1    2    0    0 -0.56273335808E-02 -0.46227012746E-02  0.11445708867E+01  0.11445941692E+01  0.51109989000E-03 0. -1.
     -623    1    1    2    0    0 -0.62715065767E-03  0.57411407099E-03  0.10301578671E-03  0.17130000000E+03  0.17130000000E+03 0. -1.
      622    1    1    2    0    0  0.62544842385E-02  0.40485872036E-02  0.28553260649E+01  0.28554058287E+01  0.20000000000E-01 0. -1.
</event>
<event>
 5   0  0.3603037E+08  0.9118800E+02  0.7818608E-02  0.1180000E+00
       11   -1    0    0    0    0  0.00000000000E+00  0.00000000000E+00  0.39999999673E+01  0.40000000000E+01  0.51109989000E-03 0.  1.
     -623   -1    0    0    0    0  0.00000000000E+00  0.00000000000E+00  0.12525980253E-10  0.17130000000E+03  0.17130000000E+03 0. -1.
       11    1    1    2    0    0 -0.76301857541E-03 -0.58911621942E-04  0.10587561004E+00  0.10587960943E+00  0.51109989000E-03 0.  1.
     -623    1    1    2    0    0 -0.11193765348E-03  0.31839940063E-04  0.55425003787E-04  0.17130000000E+03  0.17130000000E+03 0. -1.
      622    1    1    2    0    0  0.87495622889E-03  0.27071681879E-04  0.38940689323E+01  0.38941203905E+01  0.20000000000E-01 0.  1.
</event>
<event>
 5   0  0.3603037E+08  0.9118800E+02  0.7818608E-02  0.1180000E+00
       11   -1    0    0    0    0  0.00000000000E+00  0.00000000000E+00  0.39999999673E+01  0.40000000000E+01  0.51109989000E-03 0. -1.
     -623   -1    0    0    0    0  0.00000000000E+00  0.00000000000E+00  0.12525980253E-10  0.17130000000E+03  0.17130000000E+03 0. -1.
       11    1    1    2    0    0 -0.12877570875E-02 -0.10788317730E-01  0.12726996295E+01  0.12727461075E+01  0.51109989000E-03 0. -1.
     -623    1    1    2    0    0 -0.33438586985E-02  0.59053342022E-02  0.12821915638E-03  0.17130000013E+03  0.17130000000E+03 0. -1.
      622    1    1    2    0    0  0.46316157860E-02  0.48829835274E-02  0.27271721187E+01  0.27272537580E+01  0.20000000000E-01 0. -1.
</event>
<event>
 5   0  0.3603037E+08  0.9118800E+02  0.7818608E-02  0.1180000E+00
       11   -1    0    0    0    0  0.00000000000E+00  0.00000000000E+00  0.39999999673E+01  0.40000000000E+01  0.51109989000E-03 0. -1.
     -623   -1    0    0    0    0  0.00000000000E+00  0.00000000000E+00  0.12525980253E-10  0.17130000000E+03  0.17130000000E+03 0. -1.
       11    1    1    2    0    0  0.18134995959E-02  0.18330261521E-01  0.10472443558E+00  0.10633323044E+00  0.51109989000E-03 0. -1.
     -623    1    1    2    0    0 -0.41620859695E-02 -0.70772442554E-02  0.16773026464E-02  0.17130000020E+03  0.17130000000E+03 0. -1.
      622    1    1    2    0    0  0.23485863735E-02 -0.11253017266E-01  0.38935982291E+01  0.38936665646E+01  0.20000000000E-01 0. -1.
</event>
<event>
 5   0  0.3603037E+08  0.9118800E+02  0.7818608E-02  0.1180000E+00
       11   -1    0    0    0    0  0.00000000000E+00  0.00000000000E+00  0.39999999673E+01  0.40000000000E+01  0.51109989000E-03 0.  1.
     -623   -1    0    0    0    0  0.00000000000E+00  0.00000000000E+00  0.12525980253E-10  0.17130000000E+03  0.17130000000E+03 0. -1.
       11    1    1    2    0    0  0.16099951109E-02  0.33307801580E-02  0.97837415202E-01  0.97908667719E-01  0.51109989000E-03 0.  1.
     -623    1    1    2    0    0  0.85213171463E-03 -0.12235413056E-03  0.12457282489E-03  0.17130000000E+03  0.17130000000E+03 0. -1.
      622    1    1    2    0    0 -0.24621268255E-02 -0.32084260274E-02  0.39020379793E+01  0.39020913301E+01  0.20000000000E-01 0.  1.
</event>
<event>
 5   0  0.3603037E+08  0.9118800E+02  0.7818608E-02  0.1180000E+00
       11   -1    0    0    0    0  0.00000000000E+00  0.00000000000E+00  0.39999999673E+01  0.40000000000E+01  0.51109989000E-03 0.  1.
     -623   -1    0    0    0    0  0.00000000000E+00  0.00000000000E+00  0.12525980253E-10  0.17130000000E+03  0.17130000000E+03 0. -1.
       11    1    1    2    0    0 -0.36266334719E-02 -0.55843063116E-02  0.41370175251E+00  0.41375565036E+00  0.51109989000E-03 0.  1.
     -623    1    1    2    0    0 -0.66871936671E-04  0.14135473517E-03  0.11566694763E-03  0.17130000000E+03  0.17130000000E+03 0. -1.
      622    1    1    2    0    0  0.36935054085E-02  0.54429515765E-02  0.35861825479E+01  0.35862443495E+01  0.20000000000E-01 0.  0.
</event>
<event>
 5   0  0.3603037E+08  0.9118800E+02  0.7818608E-02  0.1180000E+00
       11   -1    0    0    0    0  0.00000000000E+00  0.00000000000E+00  0.39999999673E+01  0.40000000000E+01  0.51109989000E-03 0.  1.
     -623   -1    0    0    0    0  0.00000000000E+00  0.00000000000E+00  0.12525980253E-10  0.17130000000E+03  0.17130000000E+03 0. -1.
       11    1    1    2    0    0 -0.13688087603E-02 -0.11213914100E-02  0.11263972705E+00  0.11265478458E+00  0.51109989000E-03 0.  1.
     -623    1    1    2    0    0  0.66501760094E-04 -0.18882230229E-04  0.66859630301E-04  0.17130000000E+03  0.17130000000E+03 0. -1.
      622    1    1    2    0    0  0.13023070002E-02  0.11402736402E-02  0.38872933807E+01  0.38873452154E+01  0.20000000000E-01 0.  1.
</event>
<event>
 5   0  0.3603037E+08  0.9118800E+02  0.7818608E-02  0.1180000E+00
       11   -1    0    0    0    0  0.00000000000E+00  0.00000000000E+00  0.39999999673E+01  0.40000000000E+01  0.51109989000E-03 0.  1.
     -623   -1    0    0    0    0  0.00000000000E+00  0.00000000000E+00  0.12525980253E-10  0.17130000000E+03  0.17130000000E+03 0. -1.
       11    1    1    2    0    0 -0.46276443167E-02 -0.20513388003E-03  0.48204967711E+00  0.48207220371E+00  0.51109989000E-03 0.  1.
     -623    1    1    2    0    0 -0.18614672736E-03  0.16533242949E-03  0.82640056106E-04  0.17130000000E+03  0.17130000000E+03 0. -1.
      622    1    1    2    0    0  0.48137910440E-02  0.39801450540E-04  0.35178676502E+01  0.35179277961E+01  0.20000000000E-01 0.  1.
</event>
<event>
 5   0  0.3603037E+08  0.9118800E+02  0.7818608E-02  0.1180000E+00
       11   -1    0    0    0    0  0.00000000000E+00  0.00000000000E+00  0.39999999673E+01  0.40000000000E+01  0.51109989000E-03 0. -1.
     -623   -1    0    0    0    0  0.00000000000E+00  0.00000000000E+00  0.12525980253E-10  0.17130000000E+03  0.17130000000E+03 0. -1.
       11    1    1    2    0    0  0.80320646640E-02 -0.16491406783E-02  0.56850996590E+00  0.56856932407E+00  0.51109989000E-03 0. -1.
     -623    1    1    2    0    0  0.18115037367E-02 -0.61224522669E-02  0.14064979315E-03  0.17130000012E+03  0.17130000000E+03 0. -1.
      622    1    1    2    0    0 -0.98435684007E-02  0.77715929451E-02  0.34313493517E+01  0.34314305569E+01  0.20000000000E-01 0.  0.
</event>
<event>
 5   0  0.3603037E+08  0.9118800E+02  0.7818608E-02  0.1180000E+00
       11   -1    0    0    0    0  0.00000000000E+00  0.00000000000E+00  0.39999999673E+01  0.40000000000E+01  0.51109989000E-03 0. -1.
     -623   -1    0    0    0    0  0.00000000000E+00  0.00000000000E+00  0.12525980253E-10  0.17130000000E+03  0.17130000000E+03 0. -1.
       11    1    1    2    0    0  0.16102138899E-02 -0.14175004838E-02  0.99655286622E-01  0.99679684338E-01  0.51109989000E-03 0. -1.
     -623    1    1    2    0    0 -0.25974031077E-03 -0.31243497180E-03  0.76261203267E-04  0.17130000000E+03  0.17130000000E+03 0. -1.
      622    1    1    2    0    0 -0.13504735792E-02  0.17299354556E-02  0.39002684195E+01  0.39003203152E+01  0.20000000000E-01 0. -1.
</event>
<event>
 5   0  0.3603037E+08  0.9118800E+02  0.7818608E-02  0.1180000E+00
       11   -1    0    0    0    0  0.00000000000E+00  0.00000000000E+00  0.39999999673E+01  0.40000000000E+01  0.51109989000E-03 0. -1.
     -623   -1    0    0    0    0  0.00000000000E+00  0.00000000000E+00  0.12525980253E-10  0.17130000000E+03  0.17130000000E+03 0.  1.
       11    1    1    2    0    0 -0.36556171143E-02 -0.69739986284E-02  0.29467122384E+01  0.29467228029E+01  0.51109989000E-03 0. -1.
     -623    1    1    2    0    0  0.53772128800E-02  0.41623861564E-02  0.20572824994E-03  0.17130000014E+03  0.17130000000E+03 0.  1.
      622    1    1    2    0    0 -0.17215957657E-02  0.28116124720E-02  0.10530820007E+01  0.10532770620E+01  0.20000000000E-01 0. -1.
</event>
<event>
 5   0  0.3603037E+08  0.9118800E+02  0.7818608E-02  0.1180000E+00
       11   -1    0    0    0    0  0.00000000000E+00  0.00000000000E+00  0.39999999673E+01  0.40000000000E+01  0.51109989000E-03 0.  1.
     -623   -1    0    0    0    0  0.00000000000E+00  0.00000000000E+00  0.12525980253E-10  0.17130000000E+03  0.17130000000E+03 0.  1.
       11    1    1    2    0    0 -0.17535583563E-02 -0.95200902811E-03  0.43924833362E-01  0.43973099669E-01  0.51109989000E-03 0.  1.
     -623    1    1    2    0    0 -0.61283441544E-03  0.17087878068E-02  0.99579563832E-04  0.17130000001E+03  0.17130000000E+03 0.  1.
      622    1    1    2    0    0  0.23663927718E-02 -0.75677877871E-03  0.39559755544E+01  0.39560268907E+01  0.20000000000E-01 0.  1.
</event>
<event>
 5   0  0.3603037E+08  0.9118800E+02  0.7818608E-02  0.1180000E+00
       11   -1    0    0    0    0  0.00000000000E+00  0.00000000000E+00  0.39999999673E+01  0.40000000000E+01  0.51109989000E-03 0. -1.
     -623   -1    0    0    0    0  0.00000000000E+00  0.00000000000E+00  0.12525980253E-10  0.17130000000E+03  0.17130000000E+03 0.  1.
       11    1    1    2    0    0 -0.75826615742E-02  0.27907713444E-02  0.64760698653E+00  0.64765759115E+00  0.51109989000E-03 0. -1.
     -623    1    1    2    0    0 -0.55620966514E-03  0.64622484582E-03  0.12187642450E-03  0.17130000000E+03  0.17130000000E+03 0.  1.
      622    1    1    2    0    0  0.81388712393E-02 -0.34369961903E-02  0.33522711044E+01  0.33523424067E+01  0.20000000000E-01 0.  0.
</event>
<event>
 5   0  0.3603037E+08  0.9118800E+02  0.7818608E-02  0.1180000E+00
       11   -1    0    0    0    0  0.00000000000E+00  0.00000000000E+00  0.39999999673E+01  0.40000000000E+01  0.51109989000E-03 0. -1.
     -623   -1    0    0    0    0  0.00000000000E+00  0.00000000000E+00  0.12525980253E-10  0.17130000000E+03  0.17130000000E+03 0. -1.
       11    1    1    2    0    0  0.11849617775E-01  0.93051328500E-03  0.76245938079E+00  0.76255219354E+00  0.51109989000E-03 0. -1.
     -623    1    1    2    0    0 -0.97291537638E-02  0.54412417859E-02  0.16188537790E-03  0.17130000036E+03  0.17130000000E+03 0. -1.
      622    1    1    2    0    0 -0.21204640111E-02 -0.63717550709E-02  0.32373787012E+01  0.32374474437E+01  0.20000000000E-01 0. -1.
</event>
<event>
 5   0  0.3603037E+08  0.9118800E+02  0.7818608E-02  0.1180000E+00
       11   -1    0    0    0    0  0.00000000000E+00  0.00000000000E+00  0.39999999673E+01  0.40000000000E+01  0.51109989000E-03 0.  1.
     -623   -1    0    0    0    0  0.00000000000E+00  0.00000000000E+00  0.12525980253E-10  0.17130000000E+03  0.17130000000E+03 0. -1.
       11    1    1    2    0    0 -0.11515151603E-02 -0.51151999624E-02  0.15343451730E+01  0.15343542168E+01  0.51109989000E-03 0.  1.
     -623    1    1    2    0    0  0.31877568175E-02  0.10232829387E-01  0.96614438002E-04  0.17130000034E+03  0.17130000000E+03 0. -1.
      622    1    1    2    0    0 -0.20362416572E-02 -0.51176294244E-02  0.24655581799E+01  0.24656454479E+01  0.20000000000E-01 0.  1.
</event>
<event>
 5   0  0.3603037E+08  0.9118800E+02  0.7818608E-02  0.1180000E+00
       11   -1    0    0    0    0  0.00000000000E+00  0.00000000000E+00  0.39999999673E+01  0.40000000000E+01  0.51109989000E-03 0.  1.
     -623   -1    0    0    0    0  0.00000000000E+00  0.00000000000E+00  0.12525980253E-10  0.17130000000E+03  0.17130000000E+03 0. -1.
       11    1    1    2    0    0  0.69985850851E-03 -0.28755988059E-03  0.10585348584E-01  0.10624656148E-01  0.51109989000E-03 0.  1.
     -623    1    1    2    0    0 -0.22014291580E-03 -0.16733991576E-03  0.89463426410E-04  0.17130000000E+03  0.17130000000E+03 0. -1.
      622    1    1    2    0    0 -0.47971559271E-03  0.45489979634E-03  0.39893251553E+01  0.39893753436E+01  0.20000000000E-01 0.  1.
</event>
<event>
 5   0  0.3603037E+08  0.9118800E+02  0.7818608E-02  0.1180000E+00
       11   -1    0    0    0    0  0.00000000000E+00  0.00000000000E+00  0.39999999673E+01  0.40000000000E+01  0.51109989000E-03 0.  1.
     -623   -1    0    0    0    0  0.00000000000E+00  0.00000000000E+00  0.12525980253E-10  0.17130000000E+03  0.17130000000E+03 0.  1.
       11    1    1    2    0    0  0.23485046296E-01 -0.20225911290E-01  0.43875815580E-01  0.53721348654E-01  0.51109989000E-03 0.  1.
     -623    1    1    2    0    0 -0.20830527076E-01  0.21005355242E-01  0.98999917149E-02  0.17130000284E+03  0.17130000000E+03 0.  1.
      622    1    1    2    0    0 -0.26545192205E-02 -0.77944395199E-03  0.39462241601E+01  0.39462758109E+01  0.20000000000E-01 0.  1.
</event>
<event>
 5   0  0.3603037E+08  0.9118800E+02  0.7818608E-02  0.1180000E+00
       11   -1    0    0    0    0  0.00000000000E+00  0.00000000000E+00  0.39999999673E+01  0.40000000000E+01  0.51109989000E-03 0.  1.
     -623   -1    0    0    0    0  0.00000000000E+00  0.00000000000E+00  0.12525980253E-10  0.17130000000E+03  0.17130000000E+03 0. -1.
       11    1    1    2    0    0  0.82443726184E-02  0.25251908802E-01  0.15349261957E+01  0.15351561211E+01  0.51109989000E-03 0.  1.
     -623    1    1    2    0    0  0.21270843363E-02 -0.61437395782E-02  0.40705024258E-03  0.17130000012E+03  0.17130000000E+03 0. -1.
      622    1    1    2    0    0 -0.10371456955E-01 -0.19108169224E-01  0.24646667214E+01  0.24648437551E+01  0.20000000000E-01 0.  1.
</event>
<event>
 5   0  0.3603037E+08  0.9118800E+02  0.7818608E-02  0.1180000E+00
       11   -1    0    0    0    0  0.00000000000E+00  0.00000000000E+00  0.39999999673E+01  0.40000000000E+01  0.51109989000E-03 0. -1.
     -623   -1    0    0    0    0  0.00000000000E+00  0.00000000000E+00  0.12525980253E-10  0.17130000000E+03  0.17130000000E+03 0.  1.
       11    1    1    2    0    0  0.47426110388E-04 -0.16899935940E-02  0.12482031705E+01  0.12482044202E+01  0.51109989000E-03 0. -1.
     -623    1    1    2    0    0 -0.26036805313E-05 -0.84710504197E-04  0.74470445656E-04  0.17130000000E+03  0.17130000000E+03 0.  1.
      622    1    1    2    0    0 -0.44822429857E-04  0.17747040982E-02  0.27517223264E+01  0.27517955798E+01  0.20000000000E-01 0. -1.
</event>
<event>
 5   0  0.3603037E+08  0.9118800E+02  0.7818608E-02  0.1180000E+00
       11   -1    0    0    0    0  0.00000000000E+00  0.00000000000E+00  0.39999999673E+01  0.40000000000E+01  0.51109989000E-03 0. -1.
     -623   -1    0    0    0    0  0.00000000000E+00  0.00000000000E+00  0.12525980253E-10  0.17130000000E+03  0.17130000000E+03 0. -1.
       11    1    1    2    0    0  0.49680432568E-03 -0.22415313232E-03  0.86028970707E-01  0.86032215372E-01  0.51109989000E-03 0. -1.
     -623    1    1    2    0    0 -0.52973153496E-03 -0.11439836167E-03  0.54327046017E-04  0.17130000000E+03  0.17130000000E+03 0. -1.
      622    1    1    2    0    0  0.32927209278E-04  0.33855149399E-03  0.39139166696E+01  0.39139677838E+01  0.20000000000E-01 0. -1.
</event>
<event>
 5   0  0.3603037E+08  0.9118800E+02  0.7818608E-02  0.1180000E+00
       11   -1    0    0    0    0  0.00000000000E+00  0.00000000000E+00  0.39999999673E+01  0.40000000000E+01  0.51109989000E-03 0.  1.
     -623   -1    0    0    0    0  0.00000000000E+00  0.00000000000E+00  0.12525980253E-10  0.17130000000E+03  0.17130000000E+03 0.  1.
       11    1    1    2    0    0  0.15600941932E-02  0.24787465131E-02  0.41255742896E-01  0.41362732283E-01  0.51109989000E-03 0.  1.
     -623    1    1    2    0    0 -0.20318937596E-02 -0.18736992335E-02  0.15757623071E-03  0.17130000002E+03  0.17130000000E+03 0.  1.
      622    1    1    2    0    0  0.47179956635E-03 -0.60504727958E-03  0.39585866482E+01  0.39586372453E+01  0.20000000000E-01 0.  1.
</event>
<event>
 5   0  0.3603037E+08  0.9118800E+02  0.7818608E-02  0.1180000E+00
       11   -1    0    0    0    0  0.00000000000E+00  0.00000000000E+00  0.39999999673E+01  0.40000000000E+01  0.51109989000E-03 0. -1.
     -623   -1    0    0    0    0  0.00000000000E+00  0.00000000000E+00  0.12525980253E-10  0.17130000000E+03  0.17130000000E+03 0. -1.
       11    1    1    2    0    0 -0.28842066126E-04 -0.14140947509E-01  0.31912224008E+00  0.31943580351E+00  0.51109989000E-03 0. -1.
     -623    1    1    2    0    0  0.11391595220E-02  0.11547884232E-02  0.39095627325E-03  0.17130000001E+03  0.17130000000E+03 0. -1.
      622    1    1    2    0    0 -0.11103174559E-02  0.12986159086E-01  0.36804867710E+01  0.36805641884E+01  0.20000000000E-01 0. -1.
</event>
<event>
 5   0  0.3603037E+08  0.9118800E+02  0.7818608E-02  0.1180000E+00
       11   -1    0    0    0    0  0.00000000000E+00  0.00000000000E+00  0.39999999673E+01  0.40000000000E+01  0.51109989000E-03 0.  1.
     -623   -1    0    0    0    0  0.00000000000E+00  0.00000000000E+00  0.12525980253E-10  0.17130000000E+03  0.17130000000E+03 0.  1.
       11    1    1    2    0    0  0.29931857463E-02  0.31362670655E-02  0.40481046470E+00  0.40483400164E+00  0.51109989000E-03 0.  1.
     -623    1    1    2    0    0 -0.70946382242E-03  0.83709641554E-03  0.82059573851E-04  0.17130000000E+03  0.17130000000E+03 0.  1.
      622    1    1    2    0    0 -0.22837219239E-02 -0.39733634811E-02  0.35951074431E+01  0.35951659948E+01  0.20000000000E-01 0.  1.
</event>
<event>
 5   0  0.3603037E+08  0.9118800E+02  0.7818608E-02  0.1180000E+00
       11   -1    0    0    0    0  0.00000000000E+00  0.00000000000E+00  0.39999999673E+01  0.40000000000E+01  0.51109989000E-03 0. -1.
     -623   -1    0    0    0    0  0.00000000000E+00  0.00000000000E+00  0.12525980253E-10  0.17130000000E+03  0.17130000000E+03 0.  1.
       11    1    1    2    0    0  0.56847384245E-04  0.31728512433E-03  0.13290263966E+00  0.13290401330E+00  0.51109989000E-03 0. -1.
     -623    1    1    2    0    0 -0.18787710119E-03  0.72433905906E-03  0.53203890113E-04  0.17130000000E+03  0.17130000000E+03 0.  1.
      622    1    1    2    0    0  0.13102971694E-03 -0.10416241834E-02  0.38670441238E+01  0.38670959851E+01  0.20000000000E-01 0. -1.
</event>
<event>
 5   0  0.3603037E+08  0.9118800E+02  0.7818608E-02  0.1180000E+00
       11   -1    0    0    0    0  0.00000000000E+00  0.00000000000E+00  0.39999999673E+01  0.40000000000E+01  0.51109989000E-03 0.  1.
     -623   -1    0    0    0    0  0.00000000000E+00  0.00000000000E+00  0.12525980253E-10  0.17130000000E+03  0.17130000000E+03 0.  1.
       11    1    1    2    0    0 -0.76886823239E-02 -0.12549562004E-01  0.61557213282E+00  0.61574825966E+00  0.51109989000E-03 0.  1.
     -623    1    1    2    0    0 -0.43270430691E-03  0.93009889570E-03  0.26488766336E-03  0.17130000000E+03  0.17130000000E+03 0.  1.
      622    1    1    2    0    0  0.81213866308E-02  0.11619463108E-01  0.33841629469E+01  0.33842517371E+01  0.20000000000E-01 0.  1.
</event>
<event>
 5   0  0.3603037E+08  0.9118800E+02  0.7818608E-02  0.1180000E+00
       11   -1    0    0    0    0  0.00000000000E+00  0.00000000000E+00  0.39999999673E+01  0.40000000000E+01  0.51109989000E-03 0.  1.
     -623   -1    0    0    0    0  0.00000000000E+00  0.00000000000E+00  0.12525980253E-10  0.17130000000E+03  0.17130000000E+03 0. -1.
       11    1    1    2    0    0  0.53357855039E-02 -0.13505989335E-02  0.23925315704E+00  0.23931700546E+00  0.51109989000E-03 0.  1.
     -623    1    1    2    0    0 -0.28723347389E-02 -0.10102756461E-01  0.13556808070E-03  0.17130000032E+03  0.17130000000E+03 0. -1.
      622    1    1    2    0    0 -0.24634507650E-02  0.11453355394E-01  0.37606112422E+01  0.37606826725E+01  0.20000000000E-01 0.  1.
</event>
<event>
 5   0  0.3603037E+08  0.9118800E+02  0.7818608E-02  0.1180000E+00
       11   -1    0    0    0    0  0.00000000000E+00  0.00000000000E+00  0.39999999673E+01  0.40000000000E+01  0.51109989000E-03 0.  1.
     -623   -1    0    0    0    0  0.00000000000E+00  0.00000000000E+00  0.12525980253E-10  0.17130000000E+03  0.17130000000E+03 0.  1.
       11    1    1    2    0    0 -0.14804473525E-02 -0.38518621485E-02  0.33775667249E-01  0.34030655107E-01  0.51109989000E-03 0.  1.
     -623    1    1    2    0    0  0.15820706346E-02  0.12525399721E-02  0.30624985075E-03  0.17130000001E+03  0.17130000000E+03 0.  1.
      622    1    1    2    0    0 -0.10162328209E-03  0.25993221764E-02  0.39659180503E+01  0.39659693327E+01  0.20000000000E-01 0.  1.
</event>
<event>
 5   0  0.3603037E+08  0.9118800E+02  0.7818608E-02  0.1180000E+00
       11   -1    0    0    0    0  0.00000000000E+00  0.00000000000E+00  0.39999999673E+01  0.40000000000E+01  0.51109989000E-03 0. -1.
     -623   -1    0    0    0    0  0.00000000000E+00  0.00000000000E+00  0.12525980253E-10  0.17130000000E+03  0.17130000000E+03 0. -1.
       11    1    1    2    0    0  0.32030878678E-03 -0.12043763025E-02  0.21751311018E+01  0.21751315189E+01  0.51109989000E-03 0. -1.
     -623    1    1    2    0    0  0.10080454729E-02  0.33796457138E-02  0.11180104966E-03  0.17130000004E+03  0.17130000000E+03 0. -1.
      622    1    1    2    0    0 -0.13283542597E-02 -0.21752694113E-02  0.18247570645E+01  0.18248684448E+01  0.20000000000E-01 0. -1.
</event>
<event>
 5   0  0.3603037E+08  0.9118800E+02  0.7818608E-02  0.1180000E+00
       11   -1    0    0    0    0  0.00000000000E+00  0.00000000000E+00  0.39999999673E+01  0.40000000000E+01  0.51109989000E-03 0. -1.
     -623   -1    0    0    0    0  0.00000000000E+00  0.00000000000E+00  0.12525980253E-10  0.17130000000E+03  0.17130000000E+03 0.  1.
       11    1    1    2    0    0  0.15296278032E-01 -0.80889005765E-02  0.11681858857E+01  0.11683141406E+01  0.51109989000E-03 0. -1.
     -623    1    1    2    0    0 -0.89698873837E-03  0.20320195575E-02  0.24195680261E-03  0.17130000001E+03  0.17130000000E+03 0.  1.
      622    1    1    2    0    0 -0.14399289293E-01  0.60568810189E-02  0.28315721249E+01  0.28316858448E+01  0.20000000000E-01 0.  0.
</event>
<event>
 5   0  0.3603037E+08  0.9118800E+02  0.7818608E-02  0.1180000E+00
       11   -1    0    0    0    0  0.00000000000E+00  0.00000000000E+00  0.39999999673E+01  0.40000000000E+01  0.51109989000E-03 0.  1.
     -623   -1    0    0    0    0  0.00000000000E+00  0.00000000000E+00  0.12525980253E-10  0.17130000000E+03  0.17130000000E+03 0.  1.
       11    1    1    2    0    0 -0.85815555169E-03  0.80113544897E-03  0.95401362259E-02  0.96256775781E-02  0.51109989000E-03 0.  1.
     -623    1    1    2    0    0  0.45479274702E-03  0.10994491104E-03  0.13575472783E-03  0.17130000000E+03  0.17130000000E+03 0.  1.
      622    1    1    2    0    0  0.40336280466E-03 -0.91108036001E-03  0.39903240764E+01  0.39903743217E+01  0.20000000000E-01 0.  1.
</event>
<event>
 5   0  0.3603037E+08  0.9118800E+02  0.7818608E-02  0.1180000E+00
       11   -1    0    0    0    0  0.00000000000E+00  0.00000000000E+00  0.39999999673E+01  0.40000000000E+01  0.51109989000E-03 0. -1.
     -623   -1    0    0    0    0  0.00000000000E+00  0.00000000000E+00  0.12525980253E-10  0.17130000000E+03  0.17130000000E+03 0.  1.
       11    1    1    2    0    0 -0.29426047375E-02  0.10078104398E-03  0.36305110469E-01  0.36427892423E-01  0.51109989000E-03 0. -1.
     -623    1    1    2    0    0  0.23467023163E-02 -0.22819281551E-02  0.17388547513E-03  0.17130000003E+03  0.17130000000E+03 0.  1.
      622    1    1    2    0    0  0.59590242118E-03  0.21811471112E-02  0.39635209714E+01  0.39635720762E+01  0.20000000000E-01 0. -1.
</event>
<event>
 5   0  0.3603037E+08  0.9118800E+02  0.7818608E-02  0.1180000E+00
       11   -1    0    0    0    0  0.00000000000E+00  0.00000000000E+00  0.39999999673E+01  0.40000000000E+01  0.51109989000E-03 0.  1.
     -623   -1    0    0    0    0  0.00000000000E+00  0.00000000000E+00  0.12525980253E-10  0.17130000000E+03  0.17130000000E+03 0. -1.
       11    1    1    2    0    0 -0.11570585422E-01 -0.18441039376E-02  0.47854743116E-01  0.49270851679E-01  0.51109989000E-03 0.  1.
     -623    1    1    2    0    0  0.97050394031E-03  0.88681211849E-03  0.14810478285E-02  0.17130000001E+03  0.17130000000E+03 0. -1.
      622    1    1    2    0    0  0.10600081481E-01  0.95729181913E-03  0.39506641764E+01  0.39507291369E+01  0.20000000000E-01 0.  1.
</event>
<event>
 5   0  0.3603037E+08  0.9118800E+02  0.7818608E-02  0.1180000E+00
       11   -1    0    0    0    0  0.00000000000E+00  0.00000000000E+00  0.39999999673E+01  0.40000000000E+01  0.51109989000E-03 0. -1.
     -623   -1    0    0    0    0  0.00000000000E+00  0.00000000000E+00  0.12525980253E-10  0.17130000000E+03  0.17130000000E+03 0. -1.
       11    1    1    2    0    0  0.30518160026E-02  0.30347698030E-02  0.69270835598E+00  0.69272191467E+00  0.51109989000E-03 0. -1.
     -623    1    1    2    0    0 -0.13576158669E-02  0.89957683161E-03  0.76781205145E-04  0.17130000001E+03  0.17130000000E+03 0. -1.
      622    1    1    2    0    0 -0.16942001356E-02 -0.39343466346E-02  0.33072148302E+01  0.33072780776E+01  0.20000000000E-01 0. -1.
</event>
<event>
 5   0  0.3603037E+08  0.9118800E+02  0.7818608E-02  0.1180000E+00
       11   -1    0    0    0    0  0.00000000000E+00  0.00000000000E+00  0.39999999673E+01  0.40000000000E+01  0.51109989000E-03 0.  1.
     -623   -1    0    0    0    0  0.00000000000E+00  0.00000000000E+00  0.12525980253E-10  0.17130000000E+03  0.17130000000E+03 0.  1.
       11    1    1    2    0    0 -0.91013782683E-03  0.23278620835E-02  0.35829326957E+00  0.35830235211E+00  0.51109989000E-03 0.  1.
     -623    1    1    2    0    0  0.31337308929E-04 -0.50017195520E-03  0.64535189907E-04  0.17130000000E+03  0.17130000000E+03 0.  1.
      622    1    1    2    0    0  0.87880051790E-03 -0.18276901283E-02  0.36416421626E+01  0.36416976471E+01  0.20000000000E-01 0.  1.
</event>
<event>
 5   0  0.3603037E+08  0.9118800E+02  0.7818608E-02  0.1180000E+00
       11   -1    0    0    0    0  0.00000000000E+00  0.00000000000E+00  0.39999999673E+01  0.40000000000E+01  0.51109989000E-03 0. -1.
     -623   -1    0    0    0    0  0.00000000000E+00  0.00000000000E+00  0.12525980253E-10  0.17130000000E+03  0.17130000000E+03 0. -1.
       11    1    1    2    0    0 -0.24949305064E-02  0.12773039359E-02  0.13768936703E-01  0.14060619590E-01  0.51109989000E-03 0. -1.
     -623    1    1    2    0    0  0.57121646551E-03  0.27107268486E-03  0.34259341699E-03  0.17130000000E+03  0.17130000000E+03 0. -1.
      622    1    1    2    0    0  0.19237140409E-02 -0.15483766207E-02  0.39858884372E+01  0.39859393789E+01  0.20000000000E-01 0. -1.
</event>
<event>
 5   0  0.3603037E+08  0.9118800E+02  0.7818608E-02  0.1180000E+00
       11   -1    0    0    0    0  0.00000000000E+00  0.00000000000E+00  0.39999999673E+01  0.40000000000E+01  0.51109989000E-03 0.  1.
     -623   -1    0    0    0    0  0.00000000000E+00  0.00000000000E+00  0.12525980253E-10  0.17130000000E+03  0.17130000000E+03 0. -1.
       11    1    1    2    0    0 -0.49230625958E-02 -0.70773620638E-02  0.71113461341E+00  0.71118705360E+00  0.51109989000E-03 0.  1.
     -623    1    1    2    0    0 -0.15617789693E-01 -0.12950280019E-01  0.23955289187E-03  0.17130000120E+03  0.17130000000E+03 0. -1.
      622    1    1    2    0    0  0.20540852288E-01  0.20027642083E-01  0.32886258011E+01  0.32888117448E+01  0.20000000000E-01 0.  0.
</event>
<event>
 5   0  0.3603037E+08  0.9118800E+02  0.7818608E-02  0.1180000E+00
       11   -1    0    0    0    0  0.00000000000E+00  0.00000000000E+00  0.39999999673E+01  0.40000000000E+01  0.51109989000E-03 0. -1.
     -623   -1    0    0    0    0  0.00000000000E+00  0.00000000000E+00  0.12525980253E-10  0.17130000000E+03  0.17130000000E+03 0. -1.
       11    1    1    2    0    0 -0.15316037775E-02 -0.17110284872E-01  0.10243982806E+00  0.10387149393E+00  0.51109989000E-03 0. -1.
     -623    1    1    2    0    0 -0.14038416071E-02  0.16495529572E-01  0.14849273464E-02  0.17130000081E+03  0.17130000000E+03 0. -1.
      622    1    1    2    0    0  0.29354453846E-02  0.61475529955E-03  0.38960752120E+01  0.38961276997E+01  0.20000000000E-01 0. -1.
</event>
<event>
 5   0  0.3603037E+08  0.9118800E+02  0.7818608E-02  0.1180000E+00
       11   -1    0    0    0    0  0.00000000000E+00  0.00000000000E+00  0.39999999673E+01  0.40000000000E+01  0.51109989000E-03 0.  1.
     -623   -1    0    0    0    0  0.00000000000E+00  0.00000000000E+00  0.12525980253E-10  0.17130000000E+03  0.17130000000E+03 0.  1.
       11    1    1    2    0    0 -0.37391132631E-02  0.62663296907E-03  0.21666500215E+00  0.21669877252E+00  0.51109989000E-03 0.  1.
     -623    1    1    2    0    0  0.28345765540E-02 -0.64022698818E-02  0.91261888098E-04  0.17130000014E+03  0.17130000000E+03 0.  1.
      622    1    1    2    0    0  0.90453670910E-03  0.57756369127E-02  0.37832437033E+01  0.37833010844E+01  0.20000000000E-01 0.  1.
</event>
<event>
 5   0  0.3603037E+08  0.9118800E+02  0.7818608E-02  0.1180000E+00
       11   -1    0    0    0    0  0.00000000000E+00  0.00000000000E+00  0.39999999673E+01  0.40000000000E+01  0.51109989000E-03 0. -1.
     -623   -1    0    0    0    0  0.00000000000E+00  0.00000000000E+00  0.12525980253E-10  0.17130000000E+03  0.17130000000E+03 0.  1.
       11    1    1    2    0    0 -0.75398963915E-02 -0.15350547539E-02  0.16732551243E+00  0.16750311866E+00  0.51109989000E-03 0. -1.
     -623    1    1    2    0    0 -0.86166416185E-03 -0.35412990246E-02  0.24236924755E-03  0.17130000004E+03  0.17130000000E+03 0.  1.
      622    1    1    2    0    0  0.84015605534E-02  0.50763537785E-02  0.38324320857E+01  0.38324968424E+01  0.20000000000E-01 0. -1.
</event>
<event>
 5   0  0.3603037E+08  0.9118800E+02  0.7818608E-02  0.1180000E+00
       11   -1    0    0    0    0  0.00000000000E+00  0.00000000000E+00  0.39999999673E+01  0.40000000000E+01  0.51109989000E-03 0. -1.
     -623   -1    0    0    0    0  0.00000000000E+00  0.00000000000E+00  0.12525980253E-10  0.17130000000E+03  0.17130000000E+03 0. -1.
       11    1    1    2    0    0 -0.50492580711E-02 -0.59734516213E-02  0.67546730958E+00  0.67551278645E+00  0.51109989000E-03 0. -1.
     -623    1    1    2    0    0  0.82797969751E-02 -0.24776942835E-02  0.11813415554E-03  0.17130000022E+03  0.17130000000E+03 0. -1.
      622    1    1    2    0    0 -0.32305389040E-02  0.84511459048E-02  0.33244145236E+01  0.33244869955E+01  0.20000000000E-01 0. -1.
</event>
<event>
 5   0  0.3603037E+08  0.9118800E+02  0.7818608E-02  0.1180000E+00
       11   -1    0    0    0    0  0.00000000000E+00  0.00000000000E+00  0.39999999673E+01  0.40000000000E+01  0.51109989000E-03 0.  1.
     -623   -1    0    0    0    0  0.00000000000E+00  0.00000000000E+00  0.12525980253E-10  0.17130000000E+03  0.17130000000E+03 0.  1.
       11    1    1    2    0    0 -0.73008212327E-02  0.13786972467E-01  0.24805602431E+01  0.24806093533E+01  0.51109989000E-03 0.  1.
     -623    1    1    2    0    0 -0.45728732076E-03 -0.41806400216E-03  0.25934739764E-03  0.17130000000E+03  0.17130000000E+03 0.  1.
      622    1    1    2    0    0  0.77581085535E-02 -0.13368908464E-01  0.15191803768E+01  0.15193906454E+01  0.20000000000E-01 0. -1.
</event>
<event>
 5   0  0.3603037E+08  0.9118800E+02  0.7818608E-02  0.1180000E+00
       11   -1    0    0    0    0  0.00000000000E+00  0.00000000000E+00  0.39999999673E+01  0.40000000000E+01  0.51109989000E-03 0. -1.
     -623   -1    0    0    0    0  0.00000000000E+00  0.00000000000E+00  0.12525980253E-10  0.17130000000E+03  0.17130000000E+03 0.  1.
       11    1    1    2    0    0  0.96308072536E-02 -0.12944342539E-02  0.97871363457E+00  0.97876200770E+00  0.51109989000E-03 0. -1.
     -623    1    1    2    0    0 -0.12921470658E-01 -0.11154905769E-01  0.14283209098E-03  0.17130000085E+03  0.17130000000E+03 0.  1.
      622    1    1    2    0    0  0.32906634041E-02  0.12449340022E-01  0.30211435007E+01  0.30212371417E+01  0.20000000000E-01 0. -1.
</event>
<event>
 5   0  0.3603037E+08  0.9118800E+02  0.7818608E-02  0.1180000E+00
       11   -1    0    0    0    0  0.00000000000E+00  0.00000000000E+00  0.39999999673E+01  0.40000000000E+01  0.51109989000E-03 0.  1.
     -623   -1    0    0    0    0  0.00000000000E+00  0.00000000000E+00  0.12525980253E-10  0.17130000000E+03  0.17130000000E+03 0. -1.
       11    1    1    2    0    0 -0.60975247492E-02 -0.34459143750E-01  0.63323416506E+00  0.63420058453E+00  0.51109989000E-03 0.  1.
     -623    1    1    2    0    0  0.27769646602E-01  0.35824969188E-02  0.12395102341E-02  0.17130000229E+03  0.17130000000E+03 0. -1.
      622    1    1    2    0    0 -0.21672121853E-01  0.30876646831E-01  0.33655262921E+01  0.33657971226E+01  0.20000000000E-01 0.  1.
</event>
<event>
 5   0  0.3603037E+08  0.9118800E+02  0.7818608E-02  0.1180000E+00
       11   -1    0    0    0    0  0.00000000000E+00  0.00000000000E+00  0.39999999673E+01  0.40000000000E+01  0.51109989000E-03 0. -1.
     -623   -1    0    0    0    0  0.00000000000E+00  0.00000000000E+00  0.12525980253E-10  0.17130000000E+03  0.17130000000E+03 0.  1.
       11    1    1    2    0    0  0.58825859548E-04  0.94760548138E-05  0.14399727651E-01  0.14408918326E-01  0.51109989000E-03 0. -1.
     -623    1    1    2    0    0 -0.41707158711E-03 -0.16343425367E-03  0.59358784306E-04  0.17130000000E+03  0.17130000000E+03 0.  1.
      622    1    1    2    0    0  0.35824572756E-03  0.15395819885E-03  0.39855408809E+01  0.39855910811E+01  0.20000000000E-01 0. -1.
</event>
<event>
 5   0  0.3603037E+08  0.9118800E+02  0.7818608E-02  0.1180000E+00
       11   -1    0    0    0    0  0.00000000000E+00  0.00000000000E+00  0.39999999673E+01  0.40000000000E+01  0.51109989000E-03 0. -1.
     -623   -1    0    0    0    0  0.00000000000E+00  0.00000000000E+00  0.12525980253E-10  0.17130000000E+03  0.17130000000E+03 0.  1.
       11    1    1    2    0    0  0.29251957976E-02 -0.48814330765E-03  0.50721744376E+00  0.50722637109E+00  0.51109989000E-03 0. -1.
     -623    1    1    2    0    0  0.60801440053E-02  0.11788171155E-02  0.77945855444E-04  0.17130000011E+03  0.17130000000E+03 0.  1.
      622    1    1    2    0    0 -0.90053398030E-02 -0.69067380786E-03  0.34927045777E+01  0.34927735169E+01  0.20000000000E-01 0. -1.
</event>
<event>
 5   0  0.3603037E+08  0.9118800E+02  0.7818608E-02  0.1180000E+00
       11   -1    0    0    0    0  0.00000000000E+00  0.00000000000E+00  0.39999999673E+01  0.40000000000E+01  0.51109989000E-03 0. -1.
     -623   -1    0    0    0    0  0.00000000000E+00  0.00000000000E+00  0.12525980253E-10  0.17130000000E+03  0.17130000000E+03 0.  1.
       11    1    1    2    0    0 -0.27315799982E-03  0.24445190462E-02  0.14100108858E-01  0.14322170929E-01  0.51109989000E-03 0. -1.
     -623    1    1    2    0    0 -0.14926381842E-02 -0.72118340843E-03  0.27298139067E-03  0.17130000001E+03  0.17130000000E+03 0.  1.
      622    1    1    2    0    0  0.17657961840E-02 -0.17233356378E-02  0.39856268771E+01  0.39856778208E+01  0.20000000000E-01 0. -1.
</event>
<event>
 5   0  0.3603037E+08  0.9118800E+02  0.7818608E-02  0.1180000E+00
       11   -1    0    0    0    0  0.00000000000E+00  0.00000000000E+00  0.39999999673E+01  0.40000000000E+01  0.51109989000E-03 0. -1.
     -623   -1    0    0    0    0  0.00000000000E+00  0.00000000000E+00  0.12525980253E-10  0.17130000000E+03  0.17130000000E+03 0.  1.
       11    1    1    2    0    0  0.69792276229E-03  0.40638868634E-02  0.34491739286E-01  0.34741093430E-01  0.51109989000E-03 0. -1.
     -623    1    1    2    0    0 -0.48098817072E-03  0.10612211843E-02  0.30308221039E-03  0.17130000000E+03  0.17130000000E+03 0.  1.
      622    1    1    2    0    0 -0.21693459157E-03 -0.51251080477E-02  0.39652051459E+01  0.39652589023E+01  0.20000000000E-01 0. -1.
</event>
<event>
 5   0  0.3603037E+08  0.9118800E+02  0.7818608E-02  0.1180000E+00
       11   -1    0    0    0    0  0.00000000000E+00  0.00000000000E+00  0.39999999673E+01  0.40000000000E+01  0.51109989000E-03 0.  1.
     -623   -1    0    0    0    0  0.00000000000E+00  0.00000000000E+00  0.12525980253E-10  0.17130000000E+03  0.17130000000E+03 0.  1.
       11    1    1    2    0    0  0.17903096626E-02  0.77724050349E-03  0.80535484278E-01  0.80560751991E-01  0.51109989000E-03 0.  1.
     -623    1    1    2    0    0 -0.33618456267E-03 -0.11368378955E-02  0.76553474183E-04  0.17130000000E+03  0.17130000000E+03 0.  1.
      622    1    1    2    0    0 -0.14541250999E-02  0.35959739206E-03  0.39193879296E+01  0.39194392439E+01  0.20000000000E-01 0.  1.
</event>
<event>
 5   0  0.3603037E+08  0.9118800E+02  0.7818608E-02  0.1180000E+00
       11   -1    0    0    0    0  0.00000000000E+00  0.00000000000E+00  0.39999999673E+01  0.40000000000E+01  0.51109989000E-03 0. -1.
     -623   -1    0    0    0    0  0.00000000000E+00  0.00000000000E+00  0.12525980253E-10  0.17130000000E+03  0.17130000000E+03 0. -1.
       11    1    1    2    0    0 -0.59021779451E-02  0.10006992656E-01  0.81950109829E+00  0.81958360582E+00  0.51109989000E-03 0. -1.
     -623    1    1    2    0    0 -0.17129422906E-02  0.18972623397E-02  0.17677576824E-03  0.17130000002E+03  0.17130000000E+03 0. -1.
      622    1    1    2    0    0  0.76151202357E-02 -0.11904254995E-01  0.31803220933E+01  0.31804163750E+01  0.20000000000E-01 0. -1.
</event>
<event>
 5   0  0.3603037E+08  0.9118800E+02  0.7818608E-02  0.1180000E+00
       11   -1    0    0    0    0  0.00000000000E+00  0.00000000000E+00  0.39999999673E+01  0.40000000000E+01  0.51109989000E-03 0. -1.
     -623   -1    0    0    0    0  0.00000000000E+00  0.00000000000E+00  0.12525980253E-10  0.17130000000E+03  0.17130000000E+03 0. -1.
       11    1    1    2    0    0 -0.87845660460E-02 -0.82441708950E-02  0.35789844770E+00  0.35810151500E+00  0.51109989000E-03 0. -1.
     -623    1    1    2    0    0  0.18590165167E-02  0.65490820882E-03  0.27245574700E-03  0.17130000001E+03  0.17130000000E+03 0. -1.
      622    1    1    2    0    0  0.69255495293E-02  0.75892626862E-02  0.36418290639E+01  0.36418984734E+01  0.20000000000E-01 0. -1.
</event>
<event>
 5   0  0.3603037E+08  0.9118800E+02  0.7818608E-02  0.1180000E+00
       11   -1    0    0    0    0  0.00000000000E+00  0.00000000000E+00  0.39999999673E+01  0.40000000000E+01  0.51109989000E-03 0. -1.
     -623   -1    0    0    0    0  0.00000000000E+00  0.00000000000E+00  0.12525980253E-10  0.17130000000E+03  0.17130000000E+03 0.  1.
       11    1    1    2    0    0 -0.56842574490E-02 -0.29715889017E-02  0.75589721270E+00  0.75592459843E+00  0.51109989000E-03 0. -1.
     -623    1    1    2    0    0 -0.79435875949E-04 -0.29230873185E-02  0.99505343803E-04  0.17130000002E+03  0.17130000000E+03 0.  1.
      622    1    1    2    0    0  0.57636933249E-02  0.58946762202E-02  0.32440032493E+01  0.32440753766E+01  0.20000000000E-01 0. -1.
</event>
<event>
 5   0  0.3603037E+08  0.9118800E+02  0.7818608E-02  0.1180000E+00
       11   -1    0    0    0    0  0.00000000000E+00  0.00000000000E+00  0.39999999673E+01  0.40000000000E+01  0.51109989000E-03 0. -1.
     -623   -1    0    0    0    0  0.00000000000E+00  0.00000000000E+00  0.12525980253E-10  0.17130000000E+03  0.17130000000E+03 0.  1.
       11    1    1    2    0    0 -0.31908305926E-02  0.24228469464E-02  0.12152573360E+00  0.12159283176E+00  0.51109989000E-03 0. -1.
     -623    1    1    2    0    0  0.77422389447E-04  0.11544309733E-02  0.12153683253E-03  0.17130000000E+03  0.17130000000E+03 0.  1.
      622    1    1    2    0    0  0.31134082031E-02 -0.35772779197E-02  0.38783526969E+01  0.38784071643E+01  0.20000000000E-01 0. -1.
</event>
<event>
 5   0  0.3603037E+08  0.9118800E+02  0.7818608E-02  0.1180000E+00
       11   -1    0    0    0    0  0.00000000000E+00  0.00000000000E+00  0.39999999673E+01  0.40000000000E+01  0.51109989000E-03 0. -1.
     -623   -1    0    0    0    0  0.00000000000E+00  0.00000000000E+00  0.12525980253E-10  0.17130000000E+03  0.17130000000E+03 0.  1.
       11    1    1    2    0    0 -0.10393308367E-02 -0.75169432426E-02  0.91220340473E+00  0.91223511085E+00  0.51109989000E-03 0. -1.
     -623    1    1    2    0    0  0.15467584557E-03 -0.14394697462E-04  0.10575777808E-03  0.17130000000E+03  0.17130000000E+03 0.  1.
      622    1    1    2    0    0  0.88465499117E-03  0.75313379401E-02  0.30876908048E+01  0.30877648890E+01  0.20000000000E-01 0. -1.
</event>
<event>
 5   0  0.3603037E+08  0.9118800E+02  0.7818608E-02  0.1180000E+00
       11   -1    0    0    0    0  0.00000000000E+00  0.00000000000E+00  0.39999999673E+01  0.40000000000E+01  0.51109989000E-03 0. -1.
     -623   -1    0    0    0    0  0.00000000000E+00  0.00000000000E+00  0.12525980253E-10  0.17130000000E+03  0.17130000000E+03 0.  1.
       11    1    1    2    0    0 -0.11561858651E-02 -0.22002631018E-02  0.61237047029E-01  0.61289600046E-01  0.51109989000E-03 0.  1.
     -623    1    1    2    0    0 -0.13353985004E-05 -0.39507406933E-03  0.10432440795E-03  0.17130000000E+03  0.17130000000E+03 0.  1.
      622    1    1    2    0    0  0.11575212636E-02  0.25953371711E-02  0.39386585959E+01  0.39387103995E+01  0.20000000000E-01 0. -1.
</event>
<event>
 5   0  0.3603037E+08  0.9118800E+02  0.7818608E-02  0.1180000E+00
       11   -1    0    0    0    0  0.00000000000E+00  0.00000000000E+00  0.39999999673E+01  0.40000000000E+01  0.51109989000E-03 0. -1.
     -623   -1    0    0    0    0  0.00000000000E+00  0.00000000000E+00  0.12525980253E-10  0.17130000000E+03  0.17130000000E+03 0.  1.
       11    1    1    2    0    0  0.28371280955E-03 -0.11352041648E-02  0.16319010475E-01  0.16368888319E-01  0.51109989000E-03 0. -1.
     -623    1    1    2    0    0  0.18195020050E-03  0.58528294182E-04  0.10022382603E-03  0.17130000000E+03  0.17130000000E+03 0.  1.
      622    1    1    2    0    0 -0.46566301005E-03  0.10766758706E-02  0.39835807331E+01  0.39836311115E+01  0.20000000000E-01 0. -1.
</event>
<event>
 5   0  0.3603037E+08  0.9118800E+02  0.7818608E-02  0.1180000E+00
       11   -1    0    0    0    0  0.00000000000E+00  0.00000000000E+00  0.39999999673E+01  0.40000000000E+01  0.51109989000E-03 0.  1.
     -623   -1    0    0    0    0  0.00000000000E+00  0.00000000000E+00  0.12525980253E-10  0.17130000000E+03  0.17130000000E+03 0.  1.
       11    1    1    2    0    0  0.86820933067E-03 -0.17354490359E-02  0.50825179287E-01  0.50864778011E-01  0.51109989000E-03 0.  1.
     -623    1    1    2    0    0 -0.71878576429E-03 -0.51006359208E-04  0.90618845248E-04  0.17130000000E+03  0.17130000000E+03 0.  1.
      622    1    1    2    0    0 -0.14942356638E-03  0.17864553951E-02  0.39490841692E+01  0.39491352204E+01  0.20000000000E-01 0.  1.
</event>
<event>
 5   0  0.3603037E+08  0.9118800E+02  0.7818608E-02  0.1180000E+00
       11   -1    0    0    0    0  0.00000000000E+00  0.00000000000E+00  0.39999999673E+01  0.40000000000E+01  0.51109989000E-03 0.  1.
     -623   -1    0    0    0    0  0.00000000000E+00  0.00000000000E+00  0.12525980253E-10  0.17130000000E+03  0.17130000000E+03 0.  1.
       11    1    1    2    0    0  0.27755932335E-03 -0.49522846350E-02  0.24907941637E+00  0.24912932193E+00  0.51109989000E-03 0.  1.
     -623    1    1    2    0    0 -0.10727116093E-02 -0.13631116368E-02  0.10860408879E-03  0.17130000001E+03  0.17130000000E+03 0.  1.
      622    1    1    2    0    0  0.79515228594E-03  0.63153962718E-02  0.37508119469E+01  0.37508706693E+01  0.20000000000E-01 0.  1.
</event>
<event>
 5   0  0.3603037E+08  0.9118800E+02  0.7818608E-02  0.1180000E+00
       11   -1    0    0    0    0  0.00000000000E+00  0.00000000000E+00  0.39999999673E+01  0.40000000000E+01  0.51109989000E-03 0.  1.
     -623   -1    0    0    0    0  0.00000000000E+00  0.00000000000E+00  0.12525980253E-10  0.17130000000E+03  0.17130000000E+03 0.  1.
       11    1    1    2    0    0  0.83194641926E-03 -0.67421123382E-03  0.25235050993E-01  0.25262931623E-01  0.51109989000E-03 0.  1.
     -623    1    1    2    0    0  0.66393023634E-04  0.35185116176E-03  0.78281086032E-04  0.17130000000E+03  0.17130000000E+03 0.  1.
      622    1    1    2    0    0 -0.89833944290E-03  0.32236007207E-03  0.39746866353E+01  0.39747370680E+01  0.20000000000E-01 0.  1.
</event>
<event>
 5   0  0.3603037E+08  0.9118800E+02  0.7818608E-02  0.1180000E+00
       11   -1    0    0    0    0  0.00000000000E+00  0.00000000000E+00  0.39999999673E+01  0.40000000000E+01  0.51109989000E-03 0.  1.
     -623   -1    0    0    0    0  0.00000000000E+00  0.00000000000E+00  0.12525980253E-10  0.17130000000E+03  0.17130000000E+03 0. -1.
       11    1    1    2    0    0 -0.18614214889E-01  0.73351947728E-02  0.52030799127E+00  0.52069277034E+00  0.51109989000E-03 0.  1.
     -623    1    1    2    0    0  0.30250748288E-02 -0.49538462490E-02  0.47806813103E-03  0.17130000010E+03  0.17130000000E+03 0. -1.
      622    1    1    2    0    0  0.15589140060E-01 -0.23813485239E-02  0.34792139080E+01  0.34793071307E+01  0.20000000000E-01 0.  1.
</event>
<event>
 5   0  0.3603037E+08  0.9118800E+02  0.7818608E-02  0.1180000E+00
       11   -1    0    0    0    0  0.00000000000E+00  0.00000000000E+00  0.39999999673E+01  0.40000000000E+01  0.51109989000E-03 0. -1.
     -623   -1    0    0    0    0  0.00000000000E+00  0.00000000000E+00  0.12525980253E-10  0.17130000000E+03  0.17130000000E+03 0. -1.
       11    1    1    2    0    0  0.16388066899E-01 -0.83818856843E-02  0.30091328435E+01  0.30091891858E+01  0.51109989000E-03 0. -1.
     -623    1    1    2    0    0  0.65360220166E-03  0.90908204004E-03  0.43297664773E-03  0.17130000000E+03  0.17130000000E+03 0. -1.
      622    1    1    2    0    0 -0.17041669100E-01  0.74728036442E-02  0.99043414721E+00  0.99081081002E+00  0.20000000000E-01 0.  1.
</event>
<event>
 5   0  0.3603037E+08  0.9118800E+02  0.7818608E-02  0.1180000E+00
       11   -1    0    0    0    0  0.00000000000E+00  0.00000000000E+00  0.39999999673E+01  0.40000000000E+01  0.51109989000E-03 0. -1.
     -623   -1    0    0    0    0  0.00000000000E+00  0.00000000000E+00  0.12525980253E-10  0.17130000000E+03  0.17130000000E+03 0.  1.
       11    1    1    2    0    0 -0.33005889528E-02 -0.15380667817E-01  0.23796633111E+01  0.23797153600E+01  0.51109989000E-03 0. -1.
     -623    1    1    2    0    0 -0.37727865524E-02 -0.21857219725E-02  0.28618680452E-03  0.17130000006E+03  0.17130000000E+03 0.  1.
      622    1    1    2    0    0  0.70733755052E-02  0.17566389790E-01  0.16200504694E+01  0.16202845843E+01  0.20000000000E-01 0.  0.
</event>
<event>
 5   0  0.3603037E+08  0.9118800E+02  0.7818608E-02  0.1180000E+00
       11   -1    0    0    0    0  0.00000000000E+00  0.00000000000E+00  0.39999999673E+01  0.40000000000E+01  0.51109989000E-03 0.  1.
     -623   -1    0    0    0    0  0.00000000000E+00  0.00000000000E+00  0.12525980253E-10  0.17130000000E+03  0.17130000000E+03 0.  1.
       11    1    1    2    0    0  0.25377827729E-03  0.22295941164E-01  0.45345933187E+00  0.45400748923E+00  0.51109989000E-03 0.  1.
     -623    1    1    2    0    0  0.52385509745E-03  0.11854267354E-05  0.67471800803E-03  0.17130000000E+03  0.17130000000E+03 0.  1.
      622    1    1    2    0    0 -0.77763337474E-03 -0.22297126591E-01  0.35458659175E+01  0.35459925086E+01  0.20000000000E-01 0.  1.
</event>
<event>
 5   0  0.3603037E+08  0.9118800E+02  0.7818608E-02  0.1180000E+00
       11   -1    0    0    0    0  0.00000000000E+00  0.00000000000E+00  0.39999999673E+01  0.40000000000E+01  0.51109989000E-03 0. -1.
     -623   -1    0    0    0    0  0.00000000000E+00  0.00000000000E+00  0.12525980253E-10  0.17130000000E+03  0.17130000000E+03 0.  1.
       11    1    1    2    0    0  0.56259240237E-02  0.49065113974E-02  0.92626069713E-01  0.92927793936E-01  0.51109989000E-03 0. -1.
     -623    1    1    2    0    0  0.22161000804E-03 -0.81111164673E-03  0.35940594436E-03  0.17130000000E+03  0.17130000000E+03 0.  1.
      622    1    1    2    0    0 -0.58475340317E-02 -0.40953997507E-02  0.39070144917E+01  0.39070722036E+01  0.20000000000E-01 0. -1.
</event>
<event>
 5   0  0.3603037E+08  0.9118800E+02  0.7818608E-02  0.1180000E+00
       11   -1    0    0    0    0  0.00000000000E+00  0.00000000000E+00  0.39999999673E+01  0.40000000000E+01  0.51109989000E-03 0.  1.
     -623   -1    0    0    0    0  0.00000000000E+00  0.00000000000E+00  0.12525980253E-10  0.17130000000E+03  0.17130000000E+03 0.  1.
       11    1    1    2    0    0  0.39195860044E-03 -0.57236859314E-03  0.18194434511E-01  0.18214826558E-01  0.51109989000E-03 0.  1.
     -623    1    1    2    0    0  0.29235370139E-03  0.23106520637E-03  0.70662302423E-04  0.17130000000E+03  0.17130000000E+03 0.  1.
      622    1    1    2    0    0 -0.68431230182E-03  0.34130338677E-03  0.39817348705E+01  0.39817851730E+01  0.20000000000E-01 0.  1.
</event>
<event>
 5   0  0.3603037E+08  0.9118800E+02  0.7818608E-02  0.1180000E+00
       11   -1    0    0    0    0  0.00000000000E+00  0.00000000000E+00  0.39999999673E+01  0.40000000000E+01  0.51109989000E-03 0.  1.
     -623   -1    0    0    0    0  0.00000000000E+00  0.00000000000E+00  0.12525980253E-10  0.17130000000E+03  0.17130000000E+03 0.  1.
       11    1    1    2    0    0 -0.14870144615E-02  0.27796874833E-02  0.15800277564E+00  0.15803504740E+00  0.51109989000E-03 0.  1.
     -623    1    1    2    0    0  0.45866258402E-02 -0.48554615233E-02  0.86237539486E-04  0.17130000013E+03  0.17130000000E+03 0.  1.
      622    1    1    2    0    0 -0.30996113787E-02  0.20757740401E-02  0.38419109542E+01  0.38419648224E+01  0.20000000000E-01 0.  1.
</event>
<event>
 5   0  0.3603037E+08  0.9118800E+02  0.7818608E-02  0.1180000E+00
       11   -1    0    0    0    0  0.00000000000E+00  0.00000000000E+00  0.39999999673E+01  0.40000000000E+01  0.51109989000E-03 0.  1.
     -623   -1    0    0    0    0  0.00000000000E+00  0.00000000000E+00  0.12525980253E-10  0.17130000000E+03  0.17130000000E+03 0.  1.
       11    1    1    2    0    0 -0.22177513910E-03  0.15293682009E-03  0.21016355071E-01  0.21024294893E-01  0.51109989000E-03 0.  1.
     -623    1    1    2    0    0  0.12219935856E-03 -0.53270537211E-04  0.58174248402E-04  0.17130000000E+03  0.17130000000E+03 0.  1.
      622    1    1    2    0    0  0.99575780546E-04 -0.99666282876E-04  0.39789254380E+01  0.39789757050E+01  0.20000000000E-01 0.  1.
</event>
<event>
 5   0  0.3603037E+08  0.9118800E+02  0.7818608E-02  0.1180000E+00
       11   -1    0    0    0    0  0.00000000000E+00  0.00000000000E+00  0.39999999673E+01  0.40000000000E+01  0.51109989000E-03 0. -1.
     -623   -1    0    0    0    0  0.00000000000E+00  0.00000000000E+00  0.12525980253E-10  0.17130000000E+03  0.17130000000E+03 0.  1.
       11    1    1    2    0    0  0.14146069590E-02 -0.70240103797E-03  0.12328213995E-01  0.12439475916E-01  0.51109989000E-03 0. -1.
     -623    1    1    2    0    0 -0.74452952440E-03  0.15143013528E-02  0.16153291935E-03  0.17130000001E+03  0.17130000000E+03 0.  1.
      622    1    1    2    0    0 -0.67007743464E-03 -0.81190031488E-03  0.39875102204E+01  0.39875605157E+01  0.20000000000E-01 0. -1.
</event>
<event>
 5   0  0.3603037E+08  0.9118800E+02  0.7818608E-02  0.1180000E+00
       11   -1    0    0    0    0  0.00000000000E+00  0.00000000000E+00  0.39999999673E+01  0.40000000000E+01  0.51109989000E-03 0. -1.
     -623   -1    0    0    0    0  0.00000000000E+00  0.00000000000E+00  0.12525980253E-10  0.17130000000E+03  0.17130000000E+03 0.  1.
       11    1    1    2    0    0 -0.18519882987E-01  0.12108752077E-01  0.13318836820E+01  0.13320675702E+01  0.51109989000E-03 0. -1.
     -623    1    1    2    0    0  0.18877854296E-01 -0.17190229254E-01  0.26558738975E-03  0.17130000190E+03  0.17130000000E+03 0.  1.
      622    1    1    2    0    0 -0.35797130951E-03  0.50814771765E-02  0.26678506979E+01  0.26679305268E+01  0.20000000000E-01 0. -1.
</event>
<event>
 5   0  0.3603037E+08  0.9118800E+02  0.7818608E-02  0.1180000E+00
       11   -1    0    0    0    0  0.00000000000E+00  0.00000000000E+00  0.39999999673E+01  0.40000000000E+01  0.51109989000E-03 0.  1.
     -623   -1    0    0    0    0  0.00000000000E+00  0.00000000000E+00  0.12525980253E-10  0.17130000000E+03  0.17130000000E+03 0.  1.
       11    1    1    2    0    0 -0.66690714339E-02  0.12581073972E-01  0.11692290813E+01  0.11693158965E+01  0.51109989000E-03 0.  1.
     -623    1    1    2    0    0  0.62393346709E-02 -0.61831119369E-02  0.16492621010E-03  0.17130000023E+03  0.17130000000E+03 0.  1.
      622    1    1    2    0    0  0.42973676300E-03 -0.63979620348E-02  0.28306059598E+01  0.28306838782E+01  0.20000000000E-01 0.  0.
</event>
<event>
 5   0  0.3603037E+08  0.9118800E+02  0.7818608E-02  0.1180000E+00
       11   -1    0    0    0    0  0.00000000000E+00  0.00000000000E+00  0.39999999673E+01  0.40000000000E+01  0.51109989000E-03 0.  1.
     -623   -1    0    0    0    0  0.00000000000E+00  0.00000000000E+00  0.12525980253E-10  0.17130000000E+03  0.17130000000E+03 0. -1.
       11    1    1    2    0    0  0.20673916212E-02  0.55347853622E-03  0.62168147345E-01  0.62207075264E-01  0.51109989000E-03 0.  1.
     -623    1    1    2    0    0  0.54167002524E-04  0.83524687378E-04  0.90308577422E-04  0.17130000000E+03  0.17130000000E+03 0. -1.
      622    1    1    2    0    0 -0.21215586237E-02 -0.63700322360E-03  0.39377415114E+01  0.39377929247E+01  0.20000000000E-01 0.  1.
</event>
<event>
 5   0  0.3603037E+08  0.9118800E+02  0.7818608E-02  0.1180000E+00
       11   -1    0    0    0    0  0.00000000000E+00  0.00000000000E+00  0.39999999673E+01  0.40000000000E+01  0.51109989000E-03 0. -1.
     -623   -1    0    0    0    0  0.00000000000E+00  0.00000000000E+00  0.12525980253E-10  0.17130000000E+03  0.17130000000E+03 0.  1.
       11    1    1    2    0    0 -0.13151467386E-01 -0.81181347419E-03  0.51715323986E+00  0.51732132650E+00  0.51109989000E-03 0. -1.
     -623    1    1    2    0    0 -0.26045927374E-02  0.36076668999E-02  0.26230373166E-03  0.17130000006E+03  0.17130000000E+03 0.  1.
      622    1    1    2    0    0  0.15756060124E-01 -0.27958534257E-02  0.34825844238E+01  0.34826786155E+01  0.20000000000E-01 0. -1.
</event>
<event>
 5   0  0.3603037E+08  0.9118800E+02  0.7818608E-02  0.1180000E+00
       11   -1    0    0    0    0  0.00000000000E+00  0.00000000000E+00  0.39999999673E+01  0.40000000000E+01  0.51109989000E-03 0. -1.
     -623   -1    0    0    0    0  0.00000000000E+00  0.00000000000E+00  0.12525980253E-10  0.17130000000E+03  0.17130000000E+03 0.  1.
       11    1    1    2    0    0  0.10558059640E-01 -0.16940551228E-02  0.21033175354E+01  0.21033447788E+01  0.51109989000E-03 0. -1.
     -623    1    1    2    0    0 -0.31857433982E-02  0.76615118729E-03  0.14724983215E-03  0.17130000003E+03  0.17130000000E+03 0.  1.
      622    1    1    2    0    0 -0.73723162415E-02  0.92790393547E-03  0.18965351821E+01  0.18966551898E+01  0.20000000000E-01 0.  0.
</event>
<event>
 5   0  0.3603037E+08  0.9118800E+02  0.7818608E-02  0.1180000E+00
       11   -1    0    0    0    0  0.00000000000E+00  0.00000000000E+00  0.39999999673E+01  0.40000000000E+01  0.51109989000E-03 0.  1.
     -623   -1    0    0    0    0  0.00000000000E+00  0.00000000000E+00  0.12525980253E-10  0.17130000000E+03  0.17130000000E+03 0. -1.
       11    1    1    2    0    0  0.96480263688E-03 -0.87476156515E-03  0.22581016405E-01  0.22624313796E-01  0.51109989000E-03 0.  1.
     -623    1    1    2    0    0 -0.16976431433E-02  0.27245629379E-03  0.93671255124E-04  0.17130000001E+03  0.17130000000E+03 0. -1.
      622    1    1    2    0    0  0.73284050639E-03  0.60230527135E-03  0.39773252797E+01  0.39773756775E+01  0.20000000000E-01 0.  1.
</event>
<event>
 5   0  0.3603037E+08  0.9118800E+02  0.7818608E-02  0.1180000E+00
       11   -1    0    0    0    0  0.00000000000E+00  0.00000000000E+00  0.39999999673E+01  0.40000000000E+01  0.51109989000E-03 0. -1.
     -623   -1    0    0    0    0  0.00000000000E+00  0.00000000000E+00  0.12525980253E-10  0.17130000000E+03  0.17130000000E+03 0. -1.
       11    1    1    2    0    0  0.28944463269E-02 -0.22115400036E-03  0.93206288005E+00  0.93206754064E+00  0.51109989000E-03 0. -1.
     -623    1    1    2    0    0  0.69745396395E-03 -0.57707473367E-04  0.71935969808E-04  0.17130000000E+03  0.17130000000E+03 0. -1.
      622    1    1    2    0    0 -0.35919002909E-02  0.27886147373E-03  0.30678651513E+01  0.30679324579E+01  0.20000000000E-01 0. -1.
</event>
<event>
 5   0  0.3603037E+08  0.9118800E+02  0.7818608E-02  0.1180000E+00
       11   -1    0    0    0    0  0.00000000000E+00  0.00000000000E+00  0.39999999673E+01  0.40000000000E+01  0.51109989000E-03 0. -1.
     -623   -1    0    0    0    0  0.00000000000E+00  0.00000000000E+00  0.12525980253E-10  0.17130000000E+03  0.17130000000E+03 0.  1.
       11    1    1    2    0    0  0.89091403237E-04  0.31379334421E-03  0.30726831595E-01  0.30732813165E-01  0.51109989000E-03 0. -1.
     -623    1    1    2    0    0  0.97501460096E-03  0.11510713347E-02  0.56755982319E-04  0.17130000001E+03  0.17130000000E+03 0.  1.
      622    1    1    2    0    0 -0.10641060042E-02 -0.14648646789E-02  0.39692163798E+01  0.39692671802E+01  0.20000000000E-01 0. -1.
</event>
<event>
 5   0  0.3603037E+08  0.9118800E+02  0.7818608E-02  0.1180000E+00
       11   -1    0    0    0    0  0.00000000000E+00  0.00000000000E+00  0.39999999673E+01  0.40000000000E+01  0.51109989000E-03 0. -1.
     -623   -1    0    0    0    0  0.00000000000E+00  0.00000000000E+00  0.12525980253E-10  0.17130000000E+03  0.17130000000E+03 0.  1.
       11    1    1    2    0    0  0.46445908773E-02 -0.37054602558E-02  0.91006699841E-02  0.10880536594E-01  0.51109989000E-03 0. -1.
     -623    1    1    2    0    0 -0.32003544855E-02 -0.15383514048E-02  0.18337253386E-02  0.17130000005E+03  0.17130000000E+03 0.  1.
      622    1    1    2    0    0 -0.14442363918E-02  0.52438116605E-02  0.39890655720E+01  0.39891194168E+01  0.20000000000E-01 0. -1.
</event>
<event>
 5   0  0.3603037E+08  0.9118800E+02  0.7818608E-02  0.1180000E+00
       11   -1    0    0    0    0  0.00000000000E+00  0.00000000000E+00  0.39999999673E+01  0.40000000000E+01  0.51109989000E-03 0. -1.
     -623   -1    0    0    0    0  0.00000000000E+00  0.00000000000E+00  0.12525980253E-10  0.17130000000E+03  0.17130000000E+03 0.  1.
       11    1    1    2    0    0  0.13604737226E-01 -0.26725260632E-01  0.16551921589E+01  0.16554638844E+01  0.51109989000E-03 0. -1.
     -623    1    1    2    0    0  0.11708234622E-01  0.23798384146E-01  0.49753612600E-03  0.17130000205E+03  0.17130000000E+03 0.  1.
      622    1    1    2    0    0 -0.25312971848E-01  0.29268764852E-02  0.23443102723E+01  0.23445340616E+01  0.20000000000E-01 0. -1.
</event>
<event>
 5   0  0.3603037E+08  0.9118800E+02  0.7818608E-02  0.1180000E+00
       11   -1    0    0    0    0  0.00000000000E+00  0.00000000000E+00  0.39999999673E+01  0.40000000000E+01  0.51109989000E-03 0.  1.
     -623   -1    0    0    0    0  0.00000000000E+00  0.00000000000E+00  0.12525980253E-10  0.17130000000E+03  0.17130000000E+03 0.  1.
       11    1    1    2    0    0 -0.30555851608E-03 -0.10872670840E-02  0.40797735705E-01  0.40816564963E-01  0.51109989000E-03 0.  1.
     -623    1    1    2    0    0  0.17496342886E-03  0.67703989097E-04  0.69445957624E-04  0.17130000000E+03  0.17130000000E+03 0.  1.
      622    1    1    2    0    0  0.13059508721E-03  0.10195630949E-02  0.39591327857E+01  0.39591834349E+01  0.20000000000E-01 0.  1.
</event>
<event>
 5   0  0.3603037E+08  0.9118800E+02  0.7818608E-02  0.1180000E+00
       11   -1    0    0    0    0  0.00000000000E+00  0.00000000000E+00  0.39999999673E+01  0.40000000000E+01  0.51109989000E-03 0. -1.
     -623   -1    0    0    0    0  0.00000000000E+00  0.00000000000E+00  0.12525980253E-10  0.17130000000E+03  0.17130000000E+03 0.  1.
       11    1    1    2    0    0  0.28640186611E-02 -0.38024712702E-02  0.24632983926E+00  0.24637636316E+00  0.51109989000E-03 0. -1.
     -623    1    1    2    0    0 -0.10648426670E-03 -0.16873476021E-03  0.10288726230E-03  0.17130000000E+03  0.17130000000E+03 0.  1.
      622    1    1    2    0    0 -0.27575343944E-02  0.39712060304E-02  0.37535672408E+01  0.37536236367E+01  0.20000000000E-01 0. -1.
</event>
<event>
 5   0  0.3603037E+08  0.9118800E+02  0.7818608E-02  0.1180000E+00
       11   -1    0    0    0    0  0.00000000000E+00  0.00000000000E+00  0.39999999673E+01  0.40000000000E+01  0.51109989000E-03 0.  1.
     -623   -1    0    0    0    0  0.00000000000E+00  0.00000000000E+00  0.12525980253E-10  0.17130000000E+03  0.17130000000E+03 0.  1.
       11    1    1    2    0    0  0.13996605373E-02 -0.10655501381E-02  0.16523579199E+00  0.16524594586E+00  0.51109989000E-03 0.  1.
     -623    1    1    2    0    0  0.81352717696E-04 -0.41264416441E-04  0.62721925544E-04  0.17130000000E+03  0.17130000000E+03 0.  1.
      622    1    1    2    0    0 -0.14810132550E-02  0.11068145545E-02  0.38347014534E+01  0.38347540541E+01  0.20000000000E-01 0.  1.
</event>
<event>
 5   0  0.3603037E+08  0.9118800E+02  0.7818608E-02  0.1180000E+00
       11   -1    0    0    0    0  0.00000000000E+00  0.00000000000E+00  0.39999999673E+01  0.40000000000E+01  0.51109989000E-03 0.  1.
     -623   -1    0    0    0    0  0.00000000000E+00  0.00000000000E+00  0.12525980253E-10  0.17130000000E+03  0.17130000000E+03 0. -1.
       11    1    1    2    0    0  0.10868962970E-01 -0.81032835103E-02  0.20335063450E+00  0.20380269706E+00  0.51109989000E-03 0.  1.
     -623    1    1    2    0    0  0.76239078086E-03  0.14514628785E-02  0.52837035826E-03  0.17130000001E+03  0.17130000000E+03 0. -1.
      622    1    1    2    0    0 -0.11631353751E-01  0.66518206318E-02  0.37961209625E+01  0.37961972943E+01  0.20000000000E-01 0.  1.
</event>
<event>
 5   0  0.3603037E+08  0.9118800E+02  0.7818608E-02  0.1180000E+00
       11   -1    0    0    0    0  0.00000000000E+00  0.00000000000E+00  0.39999999673E+01  0.40000000000E+01  0.51109989000E-03 0.  1.
     -623   -1    0    0    0    0  0.00000000000E+00  0.00000000000E+00  0.12525980253E-10  0.17130000000E+03  0.17130000000E+03 0.  1.
       11    1    1    2    0    0 -0.21231340554E-02  0.71722521971E-02  0.57558943270E-01  0.58045172685E-01  0.51109989000E-03 0.  1.
     -623    1    1    2    0    0  0.32029759753E-03  0.21388593375E-03  0.54426680288E-03  0.17130000000E+03  0.17130000000E+03 0.  1.
      622    1    1    2    0    0  0.18028364578E-02 -0.73861381309E-02  0.39418967573E+01  0.39419548260E+01  0.20000000000E-01 0.  1.
</event>
<event>
 5   0  0.3603037E+08  0.9118800E+02  0.7818608E-02  0.1180000E+00
       11   -1    0    0    0    0  0.00000000000E+00  0.00000000000E+00  0.39999999673E+01  0.40000000000E+01  0.51109989000E-03 0. -1.
     -623   -1    0    0    0    0  0.00000000000E+00  0.00000000000E+00  0.12525980253E-10  0.17130000000E+03  0.17130000000E+03 0.  1.
       11    1    1    2    0    0  0.52452968937E-02 -0.15732887901E-01  0.97684311634E-01  0.99083413661E-01  0.51109989000E-03 0. -1.
     -623    1    1    2    0    0 -0.39096208871E-02  0.17436644636E-01  0.14518786853E-02  0.17130000094E+03  0.17130000000E+03 0.  1.
      622    1    1    2    0    0 -0.13356760067E-02 -0.17037567356E-02  0.39008637770E+01  0.39009156481E+01  0.20000000000E-01 0. -1.
</event>
<event>
 5   0  0.3603037E+08  0.9118800E+02  0.7818608E-02  0.1180000E+00
       11   -1    0    0    0    0  0.00000000000E+00  0.00000000000E+00  0.39999999673E+01  0.40000000000E+01  0.51109989000E-03 0. -1.
     -623   -1    0    0    0    0  0.00000000000E+00  0.00000000000E+00  0.12525980253E-10  0.17130000000E+03  0.17130000000E+03 0. -1.
       11    1    1    2    0    0  0.42203454138E-03  0.29391850973E-02  0.52202405779E+00  0.52203275286E+00  0.51109989000E-03 0. -1.
     -623    1    1    2    0    0  0.73376976329E-04  0.27448485846E-04  0.67468331624E-04  0.17130000000E+03  0.17130000000E+03 0. -1.
      622    1    1    2    0    0 -0.49541151771E-03 -0.29666335831E-02  0.34779084412E+01  0.34779672471E+01  0.20000000000E-01 0. -1.
</event>
<event>
 5   0  0.3603037E+08  0.9118800E+02  0.7818608E-02  0.1180000E+00
       11   -1    0    0    0    0  0.00000000000E+00  0.00000000000E+00  0.39999999673E+01  0.40000000000E+01  0.51109989000E-03 0.  1.
     -623   -1    0    0    0    0  0.00000000000E+00  0.00000000000E+00  0.12525980253E-10  0.17130000000E+03  0.17130000000E+03 0. -1.
       11    1    1    2    0    0 -0.37897845527E-02  0.47320332533E-02  0.33158463797E-01  0.33712008973E-01  0.51109989000E-03 0.  1.
     -623    1    1    2    0    0  0.75973455947E-03  0.12410306788E-02  0.60960017648E-03  0.17130000001E+03  0.17130000000E+03 0. -1.
      622    1    1    2    0    0  0.30300499932E-02 -0.59730639321E-02  0.39662319034E+01  0.39662879838E+01  0.20000000000E-01 0.  1.
</event>
<event>
 5   0  0.3603037E+08  0.9118800E+02  0.7818608E-02  0.1180000E+00
       11   -1    0    0    0    0  0.00000000000E+00  0.00000000000E+00  0.39999999673E+01  0.40000000000E+01  0.51109989000E-03 0.  1.
     -623   -1    0    0    0    0  0.00000000000E+00  0.00000000000E+00  0.12525980253E-10  0.17130000000E+03  0.17130000000E+03 0.  1.
       11    1    1    2    0    0  0.88763065195E-02  0.27892889435E-02  0.79669228206E+00  0.79674677437E+00  0.51109989000E-03 0.  1.
     -623    1    1    2    0    0 -0.31957786414E-03  0.20067061509E-02  0.13192821006E-03  0.17130000001E+03  0.17130000000E+03 0.  1.
      622    1    1    2    0    0 -0.85567286553E-02 -0.47959950944E-02  0.32031757571E+01  0.32032532135E+01  0.20000000000E-01 0.  1.
</event>
<event>
 5   0  0.3603037E+08  0.9118800E+02  0.7818608E-02  0.1180000E+00
       11   -1    0    0    0    0  0.00000000000E+00  0.00000000000E+00  0.39999999673E+01  0.40000000000E+01  0.51109989000E-03 0. -1.
     -623   -1    0    0    0    0  0.00000000000E+00  0.00000000000E+00  0.12525980253E-10  0.17130000000E+03  0.17130000000E+03 0.  1.
       11    1    1    2    0    0 -0.14820700011E-02  0.44604712588E-02  0.12979001550E+00  0.12987610126E+00  0.51109989000E-03 0. -1.
     -623    1    1    2    0    0  0.16795030094E-02  0.58281918052E-03  0.14103181032E-03  0.17130000001E+03  0.17130000000E+03 0.  1.
      622    1    1    2    0    0 -0.19743300825E-03 -0.50432904393E-02  0.38700689201E+01  0.38701238895E+01  0.20000000000E-01 0. -1.
</event>
<event>
 5   0  0.3603037E+08  0.9118800E+02  0.7818608E-02  0.1180000E+00
       11   -1    0    0    0    0  0.00000000000E+00  0.00000000000E+00  0.39999999673E+01  0.40000000000E+01  0.51109989000E-03 0.  1.
     -623   -1    0    0    0    0  0.00000000000E+00  0.00000000000E+00  0.12525980253E-10  0.17130000000E+03  0.17130000000E+03 0. -1.
       11    1    1    2    0    0  0.18418699665E-03 -0.13517582486E-02  0.58064249830E+00  0.58064432592E+00  0.51109989000E-03 0.  1.
     -623    1    1    2    0    0 -0.37836256835E-02  0.70653079989E-03  0.62284706281E-04  0.17130000004E+03  0.17130000000E+03 0. -1.
      622    1    1    2    0    0  0.35994386869E-02  0.64522744870E-03  0.34192951844E+01  0.34193556308E+01  0.20000000000E-01 0.  1.
</event>
<event>
 5   0  0.3603037E+08  0.9118800E+02  0.7818608E-02  0.1180000E+00
       11   -1    0    0    0    0  0.00000000000E+00  0.00000000000E+00  0.39999999673E+01  0.40000000000E+01  0.51109989000E-03 0.  1.
     -623   -1    0    0    0    0  0.00000000000E+00  0.00000000000E+00  0.12525980253E-10  0.17130000000E+03  0.17130000000E+03 0. -1.
       11    1    1    2    0    0  0.13704646452E-01 -0.31249170096E-02  0.11965962729E+01  0.11966789394E+01  0.51109989000E-03 0.  1.
     -623    1    1    2    0    0 -0.11480444757E-01  0.92815064717E-02  0.16225800482E-03  0.17130000064E+03  0.17130000000E+03 0. -1.
      622    1    1    2    0    0 -0.22242016944E-02 -0.61565894622E-02  0.28032414365E+01  0.28033204244E+01  0.20000000000E-01 0.  1.
</event>
<event>
 5   0  0.3603037E+08  0.9118800E+02  0.7818608E-02  0.1180000E+00
       11   -1    0    0    0    0  0.00000000000E+00  0.00000000000E+00  0.39999999673E+01  0.40000000000E+01  0.51109989000E-03 0.  1.
     -623   -1    0    0    0    0  0.00000000000E+00  0.00000000000E+00  0.12525980253E-10  0.17130000000E+03  0.17130000000E+03 0.  1.
       11    1    1    2    0    0  0.25235162204E-02  0.26564353573E-02  0.80706476661E+00  0.80707324545E+00  0.51109989000E-03 0.  1.
     -623    1    1    2    0    0 -0.75882567029E-05  0.42490820895E-03  0.73563921335E-04  0.17130000000E+03  0.17130000000E+03 0.  1.
      622    1    1    2    0    0 -0.25159279637E-02 -0.30813435663E-02  0.31928616368E+01  0.31929267540E+01  0.20000000000E-01 0.  1.
</event>
<event>
 5   0  0.3603037E+08  0.9118800E+02  0.7818608E-02  0.1180000E+00
       11   -1    0    0    0    0  0.00000000000E+00  0.00000000000E+00  0.39999999673E+01  0.40000000000E+01  0.51109989000E-03 0.  1.
     -623   -1    0    0    0    0  0.00000000000E+00  0.00000000000E+00  0.12525980253E-10  0.17130000000E+03  0.17130000000E+03 0.  1.
       11    1    1    2    0    0 -0.29609514966E-02  0.42007976032E-01  0.20557562978E+01  0.20561876506E+01  0.51109989000E-03 0.  1.
     -623    1    1    2    0    0 -0.20043229680E-02 -0.22738041382E-01  0.63760135708E-03  0.17130000152E+03  0.17130000000E+03 0.  1.
      622    1    1    2    0    0  0.49652744645E-02 -0.19269934650E-01  0.19436060682E+01  0.19438108274E+01  0.20000000000E-01 0.  0.
</event>
<event>
 5   0  0.3603037E+08  0.9118800E+02  0.7818608E-02  0.1180000E+00
       11   -1    0    0    0    0  0.00000000000E+00  0.00000000000E+00  0.39999999673E+01  0.40000000000E+01  0.51109989000E-03 0. -1.
     -623   -1    0    0    0    0  0.00000000000E+00  0.00000000000E+00  0.12525980253E-10  0.17130000000E+03  0.17130000000E+03 0.  1.
       11    1    1    2    0    0 -0.19791684387E-02  0.46801810654E-03  0.10915959168E-01  0.11115553695E-01  0.51109989000E-03 0. -1.
     -623    1    1    2    0    0  0.20838491553E-02  0.52465603576E-04  0.24974972988E-03  0.17130000001E+03  0.17130000000E+03 0.  1.
      622    1    1    2    0    0 -0.10468071664E-03 -0.52048371011E-03  0.39888342585E+01  0.39888844334E+01  0.20000000000E-01 0. -1.
</event>
<event>
 5   0  0.3603037E+08  0.9118800E+02  0.7818608E-02  0.1180000E+00
       11   -1    0    0    0    0  0.00000000000E+00  0.00000000000E+00  0.39999999673E+01  0.40000000000E+01  0.51109989000E-03 0. -1.
     -623   -1    0    0    0    0  0.00000000000E+00  0.00000000000E+00  0.12525980253E-10  0.17130000000E+03  0.17130000000E+03 0. -1.
       11    1    1    2    0    0  0.20195522937E-02  0.37680892120E-02  0.17111217813E+00  0.17116633960E+00  0.51109989000E-03 0. -1.
     -623    1    1    2    0    0 -0.40376487200E-02 -0.11618368071E-02  0.10783486835E-03  0.17130000005E+03  0.17130000000E+03 0. -1.
      622    1    1    2    0    0  0.20180964264E-02 -0.26062524048E-02  0.38287799544E+01  0.38288336088E+01  0.20000000000E-01 0. -1.
</event>
<event>
 5   0  0.3603037E+08  0.9118800E+02  0.7818608E-02  0.1180000E+00
       11   -1    0    0    0    0  0.00000000000E+00  0.00000000000E+00  0.39999999673E+01  0.40000000000E+01  0.51109989000E-03 0. -1.
     -623   -1    0    0    0    0  0.00000000000E+00  0.00000000000E+00  0.12525980253E-10  0.17130000000E+03  0.17130000000E+03 0. -1.
       11    1    1    2    0    0  0.24313669188E-02 -0.85238961157E-02  0.56266128578E+00  0.56273133206E+00  0.51109989000E-03 0. -1.
     -623    1    1    2    0    0  0.12887049580E-02  0.57169399443E-03  0.13941781236E-03  0.17130000001E+03  0.17130000000E+03 0. -1.
      622    1    1    2    0    0 -0.37200718768E-02  0.79522021213E-02  0.34371992638E+01  0.34372686621E+01  0.20000000000E-01 0. -1.
</event>
<event>
 5   0  0.3603037E+08  0.9118800E+02  0.7818608E-02  0.1180000E+00
       11   -1    0    0    0    0  0.00000000000E+00  0.00000000000E+00  0.39999999673E+01  0.40000000000E+01  0.51109989000E-03 0. -1.
     -623   -1    0    0    0    0  0.00000000000E+00  0.00000000000E+00  0.12525980253E-10  0.17130000000E+03  0.17130000000E+03 0.  1.
       11    1    1    2    0    0  0.81372530606E-02 -0.56501000928E-02  0.33274808615E+00  0.33289591252E+00  0.51109989000E-03 0. -1.
     -623    1    1    2    0    0  0.70134302094E-02  0.23514313729E-01  0.27890289553E-03  0.17130000176E+03  0.17130000000E+03 0.  1.
      622    1    1    2    0    0 -0.15150683270E-01 -0.17864213636E-01  0.36669729783E+01  0.36671023298E+01  0.20000000000E-01 0. -1.
</event>
<event>
 5   0  0.3603037E+08  0.9118800E+02  0.7818608E-02  0.1180000E+00
       11   -1    0    0    0    0  0.00000000000E+00  0.00000000000E+00  0.39999999673E+01  0.40000000000E+01  0.51109989000E-03 0.  1.
     -623   -1    0    0    0    0  0.00000000000E+00  0.00000000000E+00  0.12525980253E-10  0.17130000000E+03  0.17130000000E+03 0.  1.
       11    1    1    2    0    0  0.22514481213E-02 -0.25092310653E-02  0.76817922038E-01  0.76893560368E-01  0.51109989000E-03 0.  1.
     -623    1    1    2    0    0 -0.12465530924E-02 -0.14912051395E-02  0.12876547936E-03  0.17130000001E+03  0.17130000000E+03 0.  1.
      622    1    1    2    0    0 -0.10048950290E-02  0.40004362049E-02  0.39230532798E+01  0.39231064286E+01  0.20000000000E-01 0.  1.
</event>
<event>
 5   0  0.3603037E+08  0.9118800E+02  0.7818608E-02  0.1180000E+00
       11   -1    0    0    0    0  0.00000000000E+00  0.00000000000E+00  0.39999999673E+01  0.40000000000E+01  0.51109989000E-03 0.  1.
     -623   -1    0    0    0    0  0.00000000000E+00  0.00000000000E+00  0.12525980253E-10  0.17130000000E+03  0.17130000000E+03 0. -1.
       11    1    1    2    0    0 -0.36218426167E-02  0.10336559224E-01  0.33058666406E+01  0.33058848238E+01  0.51109989000E-03 0.  1.
     -623    1    1    2    0    0  0.84918763165E-03 -0.16135359416E-04  0.38865081456E-03  0.17130000000E+03  0.17130000000E+03 0. -1.
      622    1    1    2    0    0  0.27726549851E-02 -0.10320423865E-01  0.69374467599E+00  0.69411517361E+00  0.20000000000E-01 0.  0.
</event>
<event>
 5   0  0.3603037E+08  0.9118800E+02  0.7818608E-02  0.1180000E+00
       11   -1    0    0    0    0  0.00000000000E+00  0.00000000000E+00  0.39999999673E+01  0.40000000000E+01  0.51109989000E-03 0. -1.
     -623   -1    0    0    0    0  0.00000000000E+00  0.00000000000E+00  0.12525980253E-10  0.17130000000E+03  0.17130000000E+03 0. -1.
       11    1    1    2    0    0  0.13490731102E-01  0.70750705341E-02  0.64695006600E+00  0.64712958946E+00  0.51109989000E-03 0. -1.
     -623    1    1    2    0    0 -0.21362966706E-01 -0.14529889762E-01  0.25861988086E-03  0.17130000195E+03  0.17130000000E+03 0. -1.
      622    1    1    2    0    0  0.78722356039E-02  0.74548192282E-02  0.33527912815E+01  0.33528684620E+01  0.20000000000E-01 0. -1.
</event>
<event>
 5   0  0.3603037E+08  0.9118800E+02  0.7818608E-02  0.1180000E+00
       11   -1    0    0    0    0  0.00000000000E+00  0.00000000000E+00  0.39999999673E+01  0.40000000000E+01  0.51109989000E-03 0.  1.
     -623   -1    0    0    0    0  0.00000000000E+00  0.00000000000E+00  0.12525980253E-10  0.17130000000E+03  0.17130000000E+03 0.  1.
       11    1    1    2    0    0 -0.67527284575E-02  0.86624355188E-03  0.10865496782E+00  0.10886924714E+00  0.51109989000E-03 0.  1.
     -623    1    1    2    0    0  0.85339143084E-02 -0.21207444915E-02  0.26648177640E-03  0.17130000023E+03  0.17130000000E+03 0.  1.
      622    1    1    2    0    0 -0.17811858509E-02  0.12545009396E-02  0.38910785178E+01  0.38911305270E+01  0.20000000000E-01 0.  1.
</event>
<event>
 5   0  0.3603037E+08  0.9118800E+02  0.7818608E-02  0.1180000E+00
       11   -1    0    0    0    0  0.00000000000E+00  0.00000000000E+00  0.39999999673E+01  0.40000000000E+01  0.51109989000E-03 0.  1.
     -623   -1    0    0    0    0  0.00000000000E+00  0.00000000000E+00  0.12525980253E-10  0.17130000000E+03  0.17130000000E+03 0.  1.
       11    1    1    2    0    0  0.65601531044E-03 -0.29972616027E-03  0.43747739251E-01  0.43756669254E-01  0.51109989000E-03 0.  1.
     -623    1    1    2    0    0  0.26915262875E-03  0.59068134137E-05  0.59570002722E-04  0.17130000000E+03  0.17130000000E+03 0.  1.
      622    1    1    2    0    0 -0.92516793918E-03  0.29381934685E-03  0.39561926581E+01  0.39562433305E+01  0.20000000000E-01 0.  1.
</event>
<event>
 5   0  0.3603037E+08  0.9118800E+02  0.7818608E-02  0.1180000E+00
       11   -1    0    0    0    0  0.00000000000E+00  0.00000000000E+00  0.39999999673E+01  0.40000000000E+01  0.51109989000E-03 0.  1.
     -623   -1    0    0    0    0  0.00000000000E+00  0.00000000000E+00  0.12525980253E-10  0.17130000000E+03  0.17130000000E+03 0.  1.
       11    1    1    2    0    0 -0.65935259376E-02  0.26572434756E-02  0.58791746972E+00  0.58796066871E+00  0.51109989000E-03 0.  1.
     -623    1    1    2    0    0  0.30530676742E-03 -0.20740864980E-02  0.10764006595E-03  0.17130000001E+03  0.17130000000E+03 0.  1.
      622    1    1    2    0    0  0.62882191702E-02 -0.58315697767E-03  0.34119748576E+01  0.34120393184E+01  0.20000000000E-01 0.  1.
</event>
<event>
 5   0  0.3603037E+08  0.9118800E+02  0.7818608E-02  0.1180000E+00
       11   -1    0    0    0    0  0.00000000000E+00  0.00000000000E+00  0.39999999673E+01  0.40000000000E+01  0.51109989000E-03 0. -1.
     -623   -1    0    0    0    0  0.00000000000E+00  0.00000000000E+00  0.12525980253E-10  0.17130000000E+03  0.17130000000E+03 0.  1.
       11    1    1    2    0    0 -0.16612449335E-01  0.67243587396E-02  0.25182055008E+01  0.25182693255E+01  0.51109989000E-03 0. -1.
     -623    1    1    2    0    0 -0.13701674860E-02 -0.37394478379E-02  0.31096364672E-03  0.17130000005E+03  0.17130000000E+03 0.  1.
      622    1    1    2    0    0  0.17982616821E-01 -0.29849109017E-02  0.14814835029E+01  0.14817306279E+01  0.20000000000E-01 0. -1.
</event>
<event>
 5   0  0.3603037E+08  0.9118800E+02  0.7818608E-02  0.1180000E+00
       11   -1    0    0    0    0  0.00000000000E+00  0.00000000000E+00  0.39999999673E+01  0.40000000000E+01  0.51109989000E-03 0.  1.
     -623   -1    0    0    0    0  0.00000000000E+00  0.00000000000E+00  0.12525980253E-10  0.17130000000E+03  0.17130000000E+03 0.  1.
       11    1    1    2    0    0 -0.71768994643E-03 -0.18480133432E-02  0.59102558902E-01  0.59138007431E-01  0.51109989000E-03 0.  1.
     -623    1    1    2    0    0  0.40591842865E-02  0.20763101195E-02  0.87650508108E-04  0.17130000006E+03  0.17130000000E+03 0.  1.
      622    1    1    2    0    0 -0.33414943401E-02 -0.22829677632E-03  0.39408097580E+01  0.39408619319E+01  0.20000000000E-01 0.  1.
</event>
<event>
 5   0  0.3603037E+08  0.9118800E+02  0.7818608E-02  0.1180000E+00
       11   -1    0    0    0    0  0.00000000000E+00  0.00000000000E+00  0.39999999673E+01  0.40000000000E+01  0.51109989000E-03 0.  1.
     -623   -1    0    0    0    0  0.00000000000E+00  0.00000000000E+00  0.12525980253E-10  0.17130000000E+03  0.17130000000E+03 0.  1.
       11    1    1    2    0    0 -0.20910230820E-03 -0.21084097825E-03  0.63176335590E-02  0.63452259891E-02  0.51109989000E-03 0.  1.
     -623    1    1    2    0    0  0.52939795995E-03  0.10248684703E-02  0.77739253847E-04  0.17130000000E+03  0.17130000000E+03 0.  1.
      622    1    1    2    0    0 -0.32029565175E-03 -0.81402749210E-03  0.39936045945E+01  0.39936547701E+01  0.20000000000E-01 0.  1.
</event>
<event>
 5   0  0.3603037E+08  0.9118800E+02  0.7818608E-02  0.1180000E+00
       11   -1    0    0    0    0  0.00000000000E+00  0.00000000000E+00  0.39999999673E+01  0.40000000000E+01  0.51109989000E-03 0.  1.
     -623   -1    0    0    0    0  0.00000000000E+00  0.00000000000E+00  0.12525980253E-10  0.17130000000E+03  0.17130000000E+03 0.  1.
       11    1    1    2    0    0  0.67636448578E-02 -0.32274154591E-02  0.78024074943E-01  0.78384823755E-01  0.51109989000E-03 0.  1.
     -623    1    1    2    0    0 -0.22666352647E-02 -0.10157578237E-03  0.41572285834E-03  0.17130000002E+03  0.17130000000E+03 0.  1.
      622    1    1    2    0    0 -0.44970095931E-02  0.33289912415E-02  0.39215601696E+01  0.39216151607E+01  0.20000000000E-01 0.  1.
</event>
<event>
 5   0  0.3603037E+08  0.9118800E+02  0.7818608E-02  0.1180000E+00
       11   -1    0    0    0    0  0.00000000000E+00  0.00000000000E+00  0.39999999673E+01  0.40000000000E+01  0.51109989000E-03 0.  1.
     -623   -1    0    0    0    0  0.00000000000E+00  0.00000000000E+00  0.12525980253E-10  0.17130000000E+03  0.17130000000E+03 0. -1.
       11    1    1    2    0    0 -0.17386768521E-02 -0.20361117463E-02  0.28426627743E-01  0.28557015520E-01  0.51109989000E-03 0.  1.
     -623    1    1    2    0    0  0.11823116144E-02  0.22924692469E-03  0.18116932144E-03  0.17130000000E+03  0.17130000000E+03 0. -1.
      622    1    1    2    0    0  0.55636523776E-03  0.18068648216E-02  0.39713921703E+01  0.39714429802E+01  0.20000000000E-01 0.  1.
</event>
<event>
 5   0  0.3603037E+08  0.9118800E+02  0.7818608E-02  0.1180000E+00
       11   -1    0    0    0    0  0.00000000000E+00  0.00000000000E+00  0.39999999673E+01  0.40000000000E+01  0.51109989000E-03 0. -1.
     -623   -1    0    0    0    0  0.00000000000E+00  0.00000000000E+00  0.12525980253E-10  0.17130000000E+03  0.17130000000E+03 0.  1.
       11    1    1    2    0    0  0.54962992911E-02  0.30166411166E-02  0.79454501477E-01  0.79703127013E-01  0.51109989000E-03 0. -1.
     -623    1    1    2    0    0  0.41801193510E-03 -0.99683911005E-03  0.30459511826E-03  0.17130000000E+03  0.17130000000E+03 0.  1.
      622    1    1    2    0    0 -0.59143112262E-02 -0.20198020066E-02  0.39202408708E+01  0.39202968693E+01  0.20000000000E-01 0. -1.
</event>
<event>
 5   0  0.3603037E+08  0.9118800E+02  0.7818608E-02  0.1180000E+00
       11   -1    0    0    0    0  0.00000000000E+00  0.00000000000E+00  0.39999999673E+01  0.40000000000E+01  0.51109989000E-03 0. -1.
     -623   -1    0    0    0    0  0.00000000000E+00  0.00000000000E+00  0.12525980253E-10  0.17130000000E+03  0.17130000000E+03 0.  1.
       11    1    1    2    0    0 -0.99097871229E-02 -0.18579837438E-02  0.65105135955E-01  0.65883199176E-01  0.51109989000E-03 0. -1.
     -623    1    1    2    0    0  0.14537724574E-01  0.12066578037E-01  0.84587960662E-03  0.17130000104E+03  0.17130000000E+03 0.  1.
      622    1    1    2    0    0 -0.46279374508E-02 -0.10208594293E-01  0.39340489518E+01  0.39341157569E+01  0.20000000000E-01 0. -1.
</event>
<event>
 5   0  0.3603037E+08  0.9118800E+02  0.7818608E-02  0.1180000E+00
       11   -1    0    0    0    0  0.00000000000E+00  0.00000000000E+00  0.39999999673E+01  0.40000000000E+01  0.51109989000E-03 0.  1.
     -623   -1    0    0    0    0  0.00000000000E+00  0.00000000000E+00  0.12525980253E-10  0.17130000000E+03  0.17130000000E+03 0.  1.
       11    1    1    2    0    0 -0.13288487584E-03 -0.15390617460E-02  0.64415781138E-01  0.64436328651E-01  0.51109989000E-03 0.  1.
     -623    1    1    2    0    0 -0.28371501274E-03 -0.12586399217E-03  0.71708363682E-04  0.17130000000E+03  0.17130000000E+03 0.  1.
      622    1    1    2    0    0  0.41659988858E-03  0.16649257382E-02  0.39355124779E+01  0.39355636711E+01  0.20000000000E-01 0.  1.
</event>
<event>
 5   0  0.3603037E+08  0.9118800E+02  0.7818608E-02  0.1180000E+00
       11   -1    0    0    0    0  0.00000000000E+00  0.00000000000E+00  0.39999999673E+01  0.40000000000E+01  0.51109989000E-03 0.  1.
     -623   -1    0    0    0    0  0.00000000000E+00  0.00000000000E+00  0.12525980253E-10  0.17130000000E+03  0.17130000000E+03 0. -1.
       11    1    1    2    0    0  0.14526337382E-02 -0.13111724360E-02  0.15925498986E+00  0.15926783208E+00  0.51109989000E-03 0.  1.
     -623    1    1    2    0    0  0.50800226843E-03  0.39221978993E-03  0.65494932640E-04  0.17130000000E+03  0.17130000000E+03 0. -1.
      622    1    1    2    0    0 -0.19606360067E-02  0.91895264612E-03  0.38406794826E+01  0.38407321667E+01  0.20000000000E-01 0.  1.
</event>
<event>
 5   0  0.3603037E+08  0.9118800E+02  0.7818608E-02  0.1180000E+00
       11   -1    0    0    0    0  0.00000000000E+00  0.00000000000E+00  0.39999999673E+01  0.40000000000E+01  0.51109989000E-03 0.  1.
     -623   -1    0    0    0    0  0.00000000000E+00  0.00000000000E+00  0.12525980253E-10  0.17130000000E+03  0.17130000000E+03 0.  1.
       11    1    1    2    0    0  0.68320235969E-02  0.13854388301E-01  0.91070552181E+00  0.91083666444E+00  0.51109989000E-03 0.  1.
     -623    1    1    2    0    0  0.83400955409E-03 -0.15344242922E-02  0.22994182119E-03  0.17130000001E+03  0.17130000000E+03 0.  1.
      622    1    1    2    0    0 -0.76660331510E-02 -0.12319964008E-01  0.30890645037E+01  0.30891633265E+01  0.20000000000E-01 0.  1.
</event>
<event>
 5   0  0.3603037E+08  0.9118800E+02  0.7818608E-02  0.1180000E+00
       11   -1    0    0    0    0  0.00000000000E+00  0.00000000000E+00  0.39999999673E+01  0.40000000000E+01  0.51109989000E-03 0. -1.
     -623   -1    0    0    0    0  0.00000000000E+00  0.00000000000E+00  0.12525980253E-10  0.17130000000E+03  0.17130000000E+03 0.  1.
       11    1    1    2    0    0  0.12344232774E-01  0.11961006040E-01  0.11017477885E+01  0.11018819794E+01  0.51109989000E-03 0. -1.
     -623    1    1    2    0    0  0.75359735411E-02 -0.53180848469E-02  0.27922005741E-03  0.17130000025E+03  0.17130000000E+03 0.  1.
      622    1    1    2    0    0 -0.19880206315E-01 -0.66429211931E-02  0.28979729588E+01  0.28981177721E+01  0.20000000000E-01 0.  0.
</event>
<event>
 5   0  0.3603037E+08  0.9118800E+02  0.7818608E-02  0.1180000E+00
       11   -1    0    0    0    0  0.00000000000E+00  0.00000000000E+00  0.39999999673E+01  0.40000000000E+01  0.51109989000E-03 0. -1.
     -623   -1    0    0    0    0  0.00000000000E+00  0.00000000000E+00  0.12525980253E-10  0.17130000000E+03  0.17130000000E+03 0. -1.
       11    1    1    2    0    0  0.24318855027E-02  0.35040351990E-04  0.48482659960E-01  0.48546316378E-01  0.51109989000E-03 0. -1.
     -623    1    1    2    0    0  0.18634851851E-02  0.63966825165E-03  0.11664200052E-03  0.17130000001E+03  0.17130000000E+03 0. -1.
      622    1    1    2    0    0 -0.42953706878E-02 -0.67470860364E-03  0.39514006654E+01  0.39514536723E+01  0.20000000000E-01 0. -1.
</event>
<event>
 5   0  0.3603037E+08  0.9118800E+02  0.7818608E-02  0.1180000E+00
       11   -1    0    0    0    0  0.00000000000E+00  0.00000000000E+00  0.39999999673E+01  0.40000000000E+01  0.51109989000E-03 0.  1.
     -623   -1    0    0    0    0  0.00000000000E+00  0.00000000000E+00  0.12525980253E-10  0.17130000000E+03  0.17130000000E+03 0.  1.
       11    1    1    2    0    0  0.37602033211E-03  0.53910553234E-02  0.18317718307E+00  0.18325759599E+00  0.51109989000E-03 0.  1.
     -623    1    1    2    0    0 -0.53608206948E-03 -0.81224228394E-04  0.13647917154E-03  0.17130000000E+03  0.17130000000E+03 0.  1.
      622    1    1    2    0    0  0.16006173737E-03 -0.53098310950E-02  0.38166863051E+01  0.38167424031E+01  0.20000000000E-01 0.  1.
</event>
<event>
 5   0  0.3603037E+08  0.9118800E+02  0.7818608E-02  0.1180000E+00
       11   -1    0    0    0    0  0.00000000000E+00  0.00000000000E+00  0.39999999673E+01  0.40000000000E+01  0.51109989000E-03 0. -1.
     -623   -1    0    0    0    0  0.00000000000E+00  0.00000000000E+00  0.12525980253E-10  0.17130000000E+03  0.17130000000E+03 0.  1.
       11    1    1    2    0    0  0.13101719901E-02  0.24605176321E-02  0.91942067843E-01  0.91985736706E-01  0.51109989000E-03 0. -1.
     -623    1    1    2    0    0  0.81512958475E-03 -0.34378633063E-04  0.96146422343E-04  0.17130000000E+03  0.17130000000E+03 0.  1.
      622    1    1    2    0    0 -0.21253015748E-02 -0.24261389990E-02  0.39079617531E+01  0.39080142613E+01  0.20000000000E-01 0. -1.
</event>
<event>
 5   0  0.3603037E+08  0.9118800E+02  0.7818608E-02  0.1180000E+00
       11   -1    0    0    0    0  0.00000000000E+00  0.00000000000E+00  0.39999999673E+01  0.40000000000E+01  0.51109989000E-03 0. -1.
     -623   -1    0    0    0    0  0.00000000000E+00  0.00000000000E+00  0.12525980253E-10  0.17130000000E+03  0.17130000000E+03 0. -1.
       11    1    1    2    0    0  0.22697302945E-02 -0.81905330127E-02  0.43041503893E+00  0.43049924909E+00  0.51109989000E-03 0. -1.
     -623    1    1    2    0    0 -0.56499370577E-03 -0.29207034827E-03  0.15069578640E-03  0.17130000000E+03  0.17130000000E+03 0. -1.
      622    1    1    2    0    0 -0.17047365888E-02  0.84826033610E-02  0.35694342326E+01  0.35695007497E+01  0.20000000000E-01 0. -1.
</event>
<event>
 5   0  0.3603037E+08  0.9118800E+02  0.7818608E-02  0.1180000E+00
       11   -1    0    0    0    0  0.00000000000E+00  0.00000000000E+00  0.39999999673E+01  0.40000000000E+01  0.51109989000E-03 0.  1.
     -623   -1    0    0    0    0  0.00000000000E+00  0.00000000000E+00  0.12525980253E-10  0.17130000000E+03  0.17130000000E+03 0.  1.
       11    1    1    2    0    0  0.29427416344E-02  0.15307268322E-01  0.31069904577E+01  0.31070296004E+01  0.51109989000E-03 0.  1.
     -623    1    1    2    0    0 -0.31862139878E-02 -0.70404875559E-03  0.38261950692E-03  0.17130000003E+03  0.17130000000E+03 0.  1.
      622    1    1    2    0    0  0.24347235344E-03 -0.14603219567E-01  0.89262689013E+00  0.89297036809E+00  0.20000000000E-01 0.  1.
</event>
<event>
 5   0  0.3603037E+08  0.9118800E+02  0.7818608E-02  0.1180000E+00
       11   -1    0    0    0    0  0.00000000000E+00  0.00000000000E+00  0.39999999673E+01  0.40000000000E+01  0.51109989000E-03 0. -1.
     -623   -1    0    0    0    0  0.00000000000E+00  0.00000000000E+00  0.12525980253E-10  0.17130000000E+03  0.17130000000E+03 0. -1.
       11    1    1    2    0    0 -0.86883423875E-02 -0.10058226127E-01  0.17021138801E+01  0.17021658490E+01  0.51109989000E-03 0. -1.
     -623    1    1    2    0    0  0.28579536087E-01 -0.11426936867E-01  0.32829592195E-03  0.17130000277E+03  0.17130000000E+03 0. -1.
      622    1    1    2    0    0 -0.19891193700E-01  0.21485162994E-01  0.22975577913E+01  0.22978313855E+01  0.20000000000E-01 0.  0.
</event>
<event>
 5   0  0.3603037E+08  0.9118800E+02  0.7818608E-02  0.1180000E+00
       11   -1    0    0    0    0  0.00000000000E+00  0.00000000000E+00  0.39999999673E+01  0.40000000000E+01  0.51109989000E-03 0. -1.
     -623   -1    0    0    0    0  0.00000000000E+00  0.00000000000E+00  0.12525980253E-10  0.17130000000E+03  0.17130000000E+03 0. -1.
       11    1    1    2    0    0 -0.18105932426E-02 -0.73384234858E-04  0.16550960056E-01  0.16657704898E-01  0.51109989000E-03 0.  1.
     -623    1    1    2    0    0  0.41447931485E-03 -0.20973852594E-03  0.15717703810E-03  0.17130000000E+03  0.17130000000E+03 0. -1.
      622    1    1    2    0    0  0.13961139278E-02  0.28312276080E-03  0.39832918303E+01  0.39833422944E+01  0.20000000000E-01 0. -1.
</event>
<event>
 5   0  0.3603037E+08  0.9118800E+02  0.7818608E-02  0.1180000E+00
       11   -1    0    0    0    0  0.00000000000E+00  0.00000000000E+00  0.39999999673E+01  0.40000000000E+01  0.51109989000E-03 0.  1.
     -623   -1    0    0    0    0  0.00000000000E+00  0.00000000000E+00  0.12525980253E-10  0.17130000000E+03  0.17130000000E+03 0. -1.
       11    1    1    2    0    0  0.60222754863E-02  0.32652295970E-02  0.11992637435E+00  0.12012296205E+00  0.51109989000E-03 0.  1.
     -623    1    1    2    0    0 -0.12419558490E-02 -0.22562970201E-02  0.25119907268E-03  0.17130000002E+03  0.17130000000E+03 0. -1.
      622    1    1    2    0    0 -0.47803196373E-02 -0.10089325769E-02  0.38798223939E+01  0.38798770184E+01  0.20000000000E-01 0.  1.
</event>
<event>
 5   0  0.3603037E+08  0.9118800E+02  0.7818608E-02  0.1180000E+00
       11   -1    0    0    0    0  0.00000000000E+00  0.00000000000E+00  0.39999999673E+01  0.40000000000E+01  0.51109989000E-03 0. -1.
     -623   -1    0    0    0    0  0.00000000000E+00  0.00000000000E+00  0.12525980253E-10  0.17130000000E+03  0.17130000000E+03 0.  1.
       11    1    1    2    0    0 -0.61568328866E-04 -0.37864047277E-02  0.61574378418E-01  0.61692835485E-01  0.51109989000E-03 0. -1.
     -623    1    1    2    0    0  0.39710831166E-02  0.86337257119E-03  0.17228153860E-03  0.17130000005E+03  0.17130000000E+03 0.  1.
      622    1    1    2    0    0 -0.39095147877E-02  0.29230321565E-02  0.39382533074E+01  0.39383071162E+01  0.20000000000E-01 0. -1.
</event>
<event>
 5   0  0.3603037E+08  0.9118800E+02  0.7818608E-02  0.1180000E+00
       11   -1    0    0    0    0  0.00000000000E+00  0.00000000000E+00  0.39999999673E+01  0.40000000000E+01  0.51109989000E-03 0.  1.
     -623   -1    0    0    0    0  0.00000000000E+00  0.00000000000E+00  0.12525980253E-10  0.17130000000E+03  0.17130000000E+03 0. -1.
       11    1    1    2    0    0  0.18548699192E-02  0.41951173682E-02  0.31861029775E-01  0.32193570651E-01  0.51109989000E-03 0. -1.
     -623    1    1    2    0    0 -0.38792387670E-03 -0.32710824753E-02  0.38332511569E-03  0.17130000003E+03  0.17130000000E+03 0. -1.
      622    1    1    2    0    0 -0.14669460425E-02 -0.92403489297E-03  0.39677556125E+01  0.39678063972E+01  0.20000000000E-01 0.  1.
</event>
<event>
 5   0  0.3603037E+08  0.9118800E+02  0.7818608E-02  0.1180000E+00
       11   -1    0    0    0    0  0.00000000000E+00  0.00000000000E+00  0.39999999673E+01  0.40000000000E+01  0.51109989000E-03 0. -1.
     -623   -1    0    0    0    0  0.00000000000E+00  0.00000000000E+00  0.12525980253E-10  0.17130000000E+03  0.17130000000E+03 0. -1.
       11    1    1    2    0    0 -0.38541764204E-02  0.97256358515E-03  0.97907120753E+00  0.97907941005E+00  0.51109989000E-03 0. -1.
     -623    1    1    2    0    0 -0.26262469573E-02 -0.18200543483E-02  0.81475298169E-04  0.17130000003E+03  0.17130000000E+03 0. -1.
      622    1    1    2    0    0  0.64804233777E-02  0.84749076319E-03  0.30208472845E+01  0.30209205601E+01  0.20000000000E-01 0. -1.
</event>
<event>
 5   0  0.3603037E+08  0.9118800E+02  0.7818608E-02  0.1180000E+00
       11   -1    0    0    0    0  0.00000000000E+00  0.00000000000E+00  0.39999999673E+01  0.40000000000E+01  0.51109989000E-03 0. -1.
     -623   -1    0    0    0    0  0.00000000000E+00  0.00000000000E+00  0.12525980253E-10  0.17130000000E+03  0.17130000000E+03 0.  1.
       11    1    1    2    0    0 -0.18001298456E-02 -0.35635517993E-02  0.15654716039E+00  0.15659889533E+00  0.51109989000E-03 0. -1.
     -623    1    1    2    0    0 -0.71523147668E-02  0.11345289346E-01  0.12256957897E-03  0.17130000053E+03  0.17130000000E+03 0.  1.
      622    1    1    2    0    0  0.89524446124E-02 -0.77817375471E-02  0.38433302374E+01  0.38434005796E+01  0.20000000000E-01 0. -1.
</event>
<event>
 5   0  0.3603037E+08  0.9118800E+02  0.7818608E-02  0.1180000E+00
       11   -1    0    0    0    0  0.00000000000E+00  0.00000000000E+00  0.39999999673E+01  0.40000000000E+01  0.51109989000E-03 0. -1.
     -623   -1    0    0    0    0  0.00000000000E+00  0.00000000000E+00  0.12525980253E-10  0.17130000000E+03  0.17130000000E+03 0. -1.
       11    1    1    2    0    0  0.46472494605E-02  0.96650547273E-02  0.85924955276E+00  0.85931662695E+00  0.51109989000E-03 0. -1.
     -623    1    1    2    0    0 -0.65645607253E-02 -0.15681881881E-02  0.14187820449E-03  0.17130000013E+03  0.17130000000E+03 0. -1.
      622    1    1    2    0    0  0.19173112647E-02 -0.80968665392E-02  0.31406085364E+01  0.31406832400E+01  0.20000000000E-01 0. -1.
</event>
<event>
 5   0  0.3603037E+08  0.9118800E+02  0.7818608E-02  0.1180000E+00
       11   -1    0    0    0    0  0.00000000000E+00  0.00000000000E+00  0.39999999673E+01  0.40000000000E+01  0.51109989000E-03 0. -1.
     -623   -1    0    0    0    0  0.00000000000E+00  0.00000000000E+00  0.12525980253E-10  0.17130000000E+03  0.17130000000E+03 0. -1.
       11    1    1    2    0    0  0.36271745756E-03 -0.18189597592E-02  0.54088716944E-01  0.54122922138E-01  0.51109989000E-03 0. -1.
     -623    1    1    2    0    0 -0.24999176370E-02  0.62687623343E-03  0.85636969315E-04  0.17130000002E+03  0.17130000000E+03 0. -1.
      622    1    1    2    0    0  0.21372001795E-02  0.11920835257E-02  0.39458256134E+01  0.39458770585E+01  0.20000000000E-01 0. -1.
</event>
<event>
 5   0  0.3603037E+08  0.9118800E+02  0.7818608E-02  0.1180000E+00
       11   -1    0    0    0    0  0.00000000000E+00  0.00000000000E+00  0.39999999673E+01  0.40000000000E+01  0.51109989000E-03 0. -1.
     -623   -1    0    0    0    0  0.00000000000E+00  0.00000000000E+00  0.12525980253E-10  0.17130000000E+03  0.17130000000E+03 0.  1.
       11    1    1    2    0    0  0.96233740005E-02 -0.84799923425E-02  0.25733229138E+00  0.25765226373E+00  0.51109989000E-03 0. -1.
     -623    1    1    2    0    0  0.15037463947E-02  0.10151228533E-02  0.39738019696E-03  0.17130000001E+03  0.17130000000E+03 0.  1.
      622    1    1    2    0    0 -0.11127120395E-01  0.74648694892E-02  0.37422702958E+01  0.37423477262E+01  0.20000000000E-01 0. -1.
</event>
<event>
 5   0  0.3603037E+08  0.9118800E+02  0.7818608E-02  0.1180000E+00
       11   -1    0    0    0    0  0.00000000000E+00  0.00000000000E+00  0.39999999673E+01  0.40000000000E+01  0.51109989000E-03 0. -1.
     -623   -1    0    0    0    0  0.00000000000E+00  0.00000000000E+00  0.12525980253E-10  0.17130000000E+03  0.17130000000E+03 0.  1.
       11    1    1    2    0    0 -0.67140922074E-03  0.16003434463E-02  0.81936664224E-01  0.81956635209E-01  0.51109989000E-03 0. -1.
     -623    1    1    2    0    0 -0.11541508542E-02 -0.37438235590E-03  0.71605985412E-04  0.17130000000E+03  0.17130000000E+03 0.  1.
      622    1    1    2    0    0  0.18255600750E-02 -0.12259610904E-02  0.39179916972E+01  0.39180433605E+01  0.20000000000E-01 0. -1.
</event>
<event>
 5   0  0.3603037E+08  0.9118800E+02  0.7818608E-02  0.1180000E+00
       11   -1    0    0    0    0  0.00000000000E+00  0.00000000000E+00  0.39999999673E+01  0.40000000000E+01  0.51109989000E-03 0. -1.
     -623   -1    0    0    0    0  0.00000000000E+00  0.00000000000E+00  0.12525980253E-10  0.17130000000E+03  0.17130000000E+03 0. -1.
       11    1    1    2    0    0 -0.99792449198E-03  0.12758587304E-02  0.33459107324E+00  0.33459538428E+00  0.51109989000E-03 0. -1.
     -623    1    1    2    0    0 -0.14847602640E-03 -0.10863403817E-03  0.59208279379E-04  0.17130000000E+03  0.17130000000E+03 0. -1.
      622    1    1    2    0    0  0.11464005184E-02 -0.11672246922E-02  0.36653496858E+01  0.36654046156E+01  0.20000000000E-01 0. -1.
</event>
<event>
 5   0  0.3603037E+08  0.9118800E+02  0.7818608E-02  0.1180000E+00
       11   -1    0    0    0    0  0.00000000000E+00  0.00000000000E+00  0.39999999673E+01  0.40000000000E+01  0.51109989000E-03 0.  1.
     -623   -1    0    0    0    0  0.00000000000E+00  0.00000000000E+00  0.12525980253E-10  0.17130000000E+03  0.17130000000E+03 0.  1.
       11    1    1    2    0    0 -0.54317671315E-02 -0.70732854444E-02  0.14401723531E+01  0.14402000567E+01  0.51109989000E-03 0.  1.
     -623    1    1    2    0    0 -0.17942290947E-02  0.65674181889E-04  0.12560432227E-03  0.17130000001E+03  0.17130000000E+03 0.  1.
      622    1    1    2    0    0  0.72259962262E-02  0.70076112625E-02  0.25597020099E+01  0.25597999338E+01  0.20000000000E-01 0. -1.
</event>
<event>
 5   0  0.3603037E+08  0.9118800E+02  0.7818608E-02  0.1180000E+00
       11   -1    0    0    0    0  0.00000000000E+00  0.00000000000E+00  0.39999999673E+01  0.40000000000E+01  0.51109989000E-03 0.  1.
     -623   -1    0    0    0    0  0.00000000000E+00  0.00000000000E+00  0.12525980253E-10  0.17130000000E+03  0.17130000000E+03 0.  1.
       11    1    1    2    0    0 -0.33000094675E-02  0.56395524183E-02  0.65211192684E-01  0.65539724484E-01  0.51109989000E-03 0.  1.
     -623    1    1    2    0    0  0.20629578412E-02 -0.91193303595E-03  0.38238250926E-03  0.17130000002E+03  0.17130000000E+03 0.  1.
      622    1    1    2    0    0  0.12370516263E-02 -0.47276193823E-02  0.39344063922E+01  0.39344602602E+01  0.20000000000E-01 0.  1.
</event>
<event>
 5   0  0.3603037E+08  0.9118800E+02  0.7818608E-02  0.1180000E+00
       11   -1    0    0    0    0  0.00000000000E+00  0.00000000000E+00  0.39999999673E+01  0.40000000000E+01  0.51109989000E-03 0. -1.
     -623   -1    0    0    0    0  0.00000000000E+00  0.00000000000E+00  0.12525980253E-10  0.17130000000E+03  0.17130000000E+03 0. -1.
       11    1    1    2    0    0 -0.86695417752E-03 -0.70337317948E-03  0.11760196356E-01  0.11824118691E-01  0.51109989000E-03 0. -1.
     -623    1    1    2    0    0  0.11940719469E-03 -0.47814737145E-04  0.11417914352E-03  0.17130000000E+03  0.17130000000E+03 0. -1.
      622    1    1    2    0    0  0.74754698283E-03  0.75118791662E-03  0.39881255919E+01  0.39881758812E+01  0.20000000000E-01 0. -1.
</event>
<event>
 5   0  0.3603037E+08  0.9118800E+02  0.7818608E-02  0.1180000E+00
       11   -1    0    0    0    0  0.00000000000E+00  0.00000000000E+00  0.39999999673E+01  0.40000000000E+01  0.51109989000E-03 0.  1.
     -623   -1    0    0    0    0  0.00000000000E+00  0.00000000000E+00  0.12525980253E-10  0.17130000000E+03  0.17130000000E+03 0. -1.
       11    1    1    2    0    0 -0.66385587274E-02 -0.61486339393E-02  0.74331353801E+00  0.74336878679E+00  0.51109989000E-03 0.  1.
     -623    1    1    2    0    0  0.16214085796E-02  0.22537526671E-03  0.12588932864E-03  0.17130000001E+03  0.17130000000E+03 0. -1.
      622    1    1    2    0    0  0.50171501478E-02  0.59232586726E-02  0.32565605400E+01  0.32566312053E+01  0.20000000000E-01 0.  0.
</event>
<event>
 5   0  0.3603037E+08  0.9118800E+02  0.7818608E-02  0.1180000E+00
       11   -1    0    0    0    0  0.00000000000E+00  0.00000000000E+00  0.39999999673E+01  0.40000000000E+01  0.51109989000E-03 0.  1.
     -623   -1    0    0    0    0  0.00000000000E+00  0.00000000000E+00  0.12525980253E-10  0.17130000000E+03  0.17130000000E+03 0. -1.
       11    1    1    2    0    0 -0.43771295066E-02 -0.39187467546E-02  0.28331014523E+00  0.28337151489E+00  0.51109989000E-03 0.  1.
     -623    1    1    2    0    0  0.42890897376E-03  0.67239082605E-03  0.11866648529E-03  0.17130000000E+03  0.17130000000E+03 0. -1.
      622    1    1    2    0    0  0.39482205329E-02  0.32463559286E-02  0.37165711556E+01  0.37166284832E+01  0.20000000000E-01 0.  1.
</event>
<event>
 5   0  0.3603037E+08  0.9118800E+02  0.7818608E-02  0.1180000E+00
       11   -1    0    0    0    0  0.00000000000E+00  0.00000000000E+00  0.39999999673E+01  0.40000000000E+01  0.51109989000E-03 0. -1.
     -623   -1    0    0    0    0  0.00000000000E+00  0.00000000000E+00  0.12525980253E-10  0.17130000000E+03  0.17130000000E+03 0.  1.
       11    1    1    2    0    0  0.11115770682E-02  0.10674534964E-02  0.71369400548E-01  0.71387867441E-01  0.51109989000E-03 0. -1.
     -623    1    1    2    0    0  0.76839870216E-03 -0.94682865653E-03  0.69799175261E-04  0.17130000000E+03  0.17130000000E+03 0.  1.
      622    1    1    2    0    0 -0.18799757704E-02 -0.12062483990E-03  0.39285607676E+01  0.39286121282E+01  0.20000000000E-01 0. -1.
</event>
<event>
 5   0  0.3603037E+08  0.9118800E+02  0.7818608E-02  0.1180000E+00
       11   -1    0    0    0    0  0.00000000000E+00  0.00000000000E+00  0.39999999673E+01  0.40000000000E+01  0.51109989000E-03 0.  1.
     -623   -1    0    0    0    0  0.00000000000E+00  0.00000000000E+00  0.12525980253E-10  0.17130000000E+03  0.17130000000E+03 0. -1.
       11    1    1    2    0    0  0.15905076070E-03 -0.63279445887E-03  0.18676548718E-01  0.18694930315E-01  0.51109989000E-03 0.  1.
     -623    1    1    2    0    0  0.38027055530E-03  0.17314203839E-02  0.68781356900E-04  0.17130000001E+03  0.17130000000E+03 0. -1.
      622    1    1    2    0    0 -0.53932131601E-03 -0.10986259251E-02  0.39812546373E+01  0.39813050605E+01  0.20000000000E-01 0.  1.
</event>
<event>
 5   0  0.3603037E+08  0.9118800E+02  0.7818608E-02  0.1180000E+00
       11   -1    0    0    0    0  0.00000000000E+00  0.00000000000E+00  0.39999999673E+01  0.40000000000E+01  0.51109989000E-03 0.  1.
     -623   -1    0    0    0    0  0.00000000000E+00  0.00000000000E+00  0.12525980253E-10  0.17130000000E+03  0.17130000000E+03 0.  1.
       11    1    1    2    0    0 -0.71896766662E-03 -0.87024276388E-03  0.21330033223E-01  0.21365995812E-01  0.51109989000E-03 0.  1.
     -623    1    1    2    0    0  0.20483921126E-03 -0.25277655263E-04  0.86332925759E-04  0.17130000000E+03  0.17130000000E+03 0.  1.
      622    1    1    2    0    0  0.51412845536E-03  0.89552041915E-03  0.39785836012E+01  0.39786340040E+01  0.20000000000E-01 0.  1.
</event>
<event>
 5   0  0.3603037E+08  0.9118800E+02  0.7818608E-02  0.1180000E+00
       11   -1    0    0    0    0  0.00000000000E+00  0.00000000000E+00  0.39999999673E+01  0.40000000000E+01  0.51109989000E-03 0. -1.
     -623   -1    0    0    0    0  0.00000000000E+00  0.00000000000E+00  0.12525980253E-10  0.17130000000E+03  0.17130000000E+03 0. -1.
       11    1    1    2    0    0  0.51217050895E-02  0.25534960007E-02  0.64478312065E+00  0.64480872055E+00  0.51109989000E-03 0. -1.
     -623    1    1    2    0    0  0.91618063055E-04 -0.29165575148E-03  0.89989939402E-04  0.17130000000E+03  0.17130000000E+03 0. -1.
      622    1    1    2    0    0 -0.52133231526E-02 -0.22618402492E-02  0.33551268568E+01  0.33551912792E+01  0.20000000000E-01 0. -1.
</event>
<event>
 5   0  0.3603037E+08  0.9118800E+02  0.7818608E-02  0.1180000E+00
       11   -1    0    0    0    0  0.00000000000E+00  0.00000000000E+00  0.39999999673E+01  0.40000000000E+01  0.51109989000E-03 0.  1.
     -623   -1    0    0    0    0  0.00000000000E+00  0.00000000000E+00  0.12525980253E-10  0.17130000000E+03  0.17130000000E+03 0.  1.
       11    1    1    2    0    0  0.36188937835E-02  0.28109746870E-02  0.25710197288E-01  0.26120364426E-01  0.51109989000E-03 0.  1.
     -623    1    1    2    0    0 -0.23655488673E-03 -0.60279764828E-03  0.46251828134E-03  0.17130000000E+03  0.17130000000E+03 0.  1.
      622    1    1    2    0    0 -0.33823388968E-02 -0.22081770387E-02  0.39738272518E+01  0.39738796337E+01  0.20000000000E-01 0.  1.
</event>
<event>
 5   0  0.3603037E+08  0.9118800E+02  0.7818608E-02  0.1180000E+00
       11   -1    0    0    0    0  0.00000000000E+00  0.00000000000E+00  0.39999999673E+01  0.40000000000E+01  0.51109989000E-03 0. -1.
     -623   -1    0    0    0    0  0.00000000000E+00  0.00000000000E+00  0.12525980253E-10  0.17130000000E+03  0.17130000000E+03 0. -1.
       11    1    1    2    0    0  0.16743814215E-02  0.37259300149E-02  0.38830803555E+00  0.38832985695E+00  0.51109989000E-03 0. -1.
     -623    1    1    2    0    0 -0.44303586058E-03  0.40739170171E-02  0.85846684784E-04  0.17130000005E+03  0.17130000000E+03 0. -1.
      622    1    1    2    0    0 -0.12313455609E-02 -0.77998470320E-02  0.36116060851E+01  0.36116700940E+01  0.20000000000E-01 0. -1.
</event>
<event>
 5   0  0.3603037E+08  0.9118800E+02  0.7818608E-02  0.1180000E+00
       11   -1    0    0    0    0  0.00000000000E+00  0.00000000000E+00  0.39999999673E+01  0.40000000000E+01  0.51109989000E-03 0.  1.
     -623   -1    0    0    0    0  0.00000000000E+00  0.00000000000E+00  0.12525980253E-10  0.17130000000E+03  0.17130000000E+03 0. -1.
       11    1    1    2    0    0 -0.23829893917E-02  0.28081442138E-02  0.12172316319E+00  0.12177994084E+00  0.51109989000E-03 0.  1.
     -623    1    1    2    0    0  0.42524717497E-03  0.82361127954E-03  0.11051258536E-03  0.17130000000E+03  0.17130000000E+03 0. -1.
      622    1    1    2    0    0  0.19577422168E-02 -0.36317554933E-02  0.38781662916E+01  0.38782200566E+01  0.20000000000E-01 0.  1.
</event>
<event>
 5   0  0.3603037E+08  0.9118800E+02  0.7818608E-02  0.1180000E+00
       11   -1    0    0    0    0  0.00000000000E+00  0.00000000000E+00  0.39999999673E+01  0.40000000000E+01  0.51109989000E-03 0. -1.
     -623   -1    0    0    0    0  0.00000000000E+00  0.00000000000E+00  0.12525980253E-10  0.17130000000E+03  0.17130000000E+03 0. -1.
       11    1    1    2    0    0 -0.74317573687E-03  0.96440315524E-03  0.18642185473E+00  0.18642653118E+00  0.51109989000E-03 0. -1.
     -623    1    1    2    0    0 -0.28078449762E-04 -0.36775234765E-04  0.57279243171E-04  0.17130000000E+03  0.17130000000E+03 0. -1.
      622    1    1    2    0    0  0.77125418663E-03 -0.92762792048E-03  0.38135208334E+01  0.38135734688E+01  0.20000000000E-01 0. -1.
</event>
<event>
 5   0  0.3603037E+08  0.9118800E+02  0.7818608E-02  0.1180000E+00
       11   -1    0    0    0    0  0.00000000000E+00  0.00000000000E+00  0.39999999673E+01  0.40000000000E+01  0.51109989000E-03 0. -1.
     -623   -1    0    0    0    0  0.00000000000E+00  0.00000000000E+00  0.12525980253E-10  0.17130000000E+03  0.17130000000E+03 0. -1.
       11    1    1    2    0    0  0.17731427590E-01  0.48288610959E-02  0.19479635700E+01  0.19480503209E+01  0.51109989000E-03 0. -1.
     -623    1    1    2    0    0  0.14589805326E-02 -0.17819407920E-02  0.27621018099E-03  0.17130000002E+03  0.17130000000E+03 0. -1.
      622    1    1    2    0    0 -0.19190408123E-01 -0.30469203039E-02  0.20517601872E+01  0.20519496634E+01  0.20000000000E-01 0.  1.
</event>
<event>
 5   0  0.3603037E+08  0.9118800E+02  0.7818608E-02  0.1180000E+00
       11   -1    0    0    0    0  0.00000000000E+00  0.00000000000E+00  0.39999999673E+01  0.40000000000E+01  0.51109989000E-03 0. -1.
     -623   -1    0    0    0    0  0.00000000000E+00  0.00000000000E+00  0.12525980253E-10  0.17130000000E+03  0.17130000000E+03 0. -1.
       11    1    1    2    0    0  0.15984114626E-02 -0.22587069265E-02  0.15559778383E+00  0.15562322522E+00  0.51109989000E-03 0. -1.
     -623    1    1    2    0    0 -0.32252158165E-04 -0.12986785673E-03  0.78494279971E-04  0.17130000000E+03  0.17130000000E+03 0. -1.
      622    1    1    2    0    0 -0.15661593044E-02  0.23885747833E-02  0.38443236893E+01  0.38443767747E+01  0.20000000000E-01 0. -1.
</event>
<event>
 5   0  0.3603037E+08  0.9118800E+02  0.7818608E-02  0.1180000E+00
       11   -1    0    0    0    0  0.00000000000E+00  0.00000000000E+00  0.39999999673E+01  0.40000000000E+01  0.51109989000E-03 0.  1.
     -623   -1    0    0    0    0  0.00000000000E+00  0.00000000000E+00  0.12525980253E-10  0.17130000000E+03  0.17130000000E+03 0.  1.
       11    1    1    2    0    0 -0.18072611149E-02  0.18459197309E-03  0.89149279017E-01  0.89169251636E-01  0.51109989000E-03 0.  1.
     -623    1    1    2    0    0 -0.17867761217E-02  0.15626713288E-02  0.73138602120E-04  0.17130000002E+03  0.17130000000E+03 0.  1.
      622    1    1    2    0    0  0.35940372366E-02 -0.17472633019E-02  0.39107775497E+01  0.39108307319E+01  0.20000000000E-01 0.  1.
</event>
<event>
 5   0  0.3603037E+08  0.9118800E+02  0.7818608E-02  0.1180000E+00
       11   -1    0    0    0    0  0.00000000000E+00  0.00000000000E+00  0.39999999673E+01  0.40000000000E+01  0.51109989000E-03 0. -1.
     -623   -1    0    0    0    0  0.00000000000E+00  0.00000000000E+00  0.12525980253E-10  0.17130000000E+03  0.17130000000E+03 0. -1.
       11    1    1    2    0    0  0.71702045309E-03  0.13655029950E-03  0.11810147322E+00  0.11810483462E+00  0.51109989000E-03 0. -1.
     -623    1    1    2    0    0  0.92566522458E-04 -0.22486132573E-03  0.54935939598E-04  0.17130000000E+03  0.17130000000E+03 0. -1.
      622    1    1    2    0    0 -0.80958697555E-03  0.88311026228E-04  0.38818435582E+01  0.38818951652E+01  0.20000000000E-01 0. -1.
</event>
<event>
 5   0  0.3603037E+08  0.9118800E+02  0.7818608E-02  0.1180000E+00
       11   -1    0    0    0    0  0.00000000000E+00  0.00000000000E+00  0.39999999673E+01  0.40000000000E+01  0.51109989000E-03 0.  1.
     -623   -1    0    0    0    0  0.00000000000E+00  0.00000000000E+00  0.12525980253E-10  0.17130000000E+03  0.17130000000E+03 0. -1.
       11    1    1    2    0    0 -0.36379193113E-03 -0.11901488847E-02  0.99551477382E-02  0.10045645195E-01  0.51109989000E-03 0.  1.
     -623    1    1    2    0    0  0.10449279143E-02  0.24042535808E-02  0.14085399835E-03  0.17130000002E+03  0.17130000000E+03 0. -1.
      622    1    1    2    0    0 -0.68113598320E-03 -0.12141046961E-02  0.39899039656E+01  0.39899543347E+01  0.20000000000E-01 0.  1.
</event>
<event>
 5   0  0.3603037E+08  0.9118800E+02  0.7818608E-02  0.1180000E+00
       11   -1    0    0    0    0  0.00000000000E+00  0.00000000000E+00  0.39999999673E+01  0.40000000000E+01  0.51109989000E-03 0. -1.
     -623   -1    0    0    0    0  0.00000000000E+00  0.00000000000E+00  0.12525980253E-10  0.17130000000E+03  0.17130000000E+03 0.  1.
       11    1    1    2    0    0  0.17517763908E-01  0.45839499065E-02  0.94927079473E+00  0.94944362002E+00  0.51109989000E-03 0. -1.
     -623    1    1    2    0    0 -0.36668064651E-02  0.25222870798E-02  0.27813619322E-03  0.17130000006E+03  0.17130000000E+03 0.  1.
      622    1    1    2    0    0 -0.13850957443E-01 -0.71062369862E-02  0.30504510364E+01  0.30505563219E+01  0.20000000000E-01 0. -1.
</event>
<event>
 5   0  0.3603037E+08  0.9118800E+02  0.7818608E-02  0.1180000E+00
       11   -1    0    0    0    0  0.00000000000E+00  0.00000000000E+00  0.39999999673E+01  0.40000000000E+01  0.51109989000E-03 0.  1.
     -623   -1    0    0    0    0  0.00000000000E+00  0.00000000000E+00  0.12525980253E-10  0.17130000000E+03  0.17130000000E+03 0. -1.
       11    1    1    2    0    0 -0.67432938874E-02 -0.40067718582E-02  0.31868931272E+00  0.31878623793E+00  0.51109989000E-03 0.  1.
     -623    1    1    2    0    0 -0.16844759130E-03  0.13894749058E-03  0.15974382202E-03  0.17130000000E+03  0.17130000000E+03 0. -1.
      622    1    1    2    0    0  0.69117414787E-02  0.38678243676E-02  0.36811509108E+01  0.36812137619E+01  0.20000000000E-01 0.  1.
</event>
<event>
 5   0  0.3603037E+08  0.9118800E+02  0.7818608E-02  0.1180000E+00
       11   -1    0    0    0    0  0.00000000000E+00  0.00000000000E+00  0.39999999673E+01  0.40000000000E+01  0.51109989000E-03 0.  1.
     -623   -1    0    0    0    0  0.00000000000E+00  0.00000000000E+00  0.12525980253E-10  0.17130000000E+03  0.17130000000E+03 0. -1.
       11    1    1    2    0    0  0.86497636769E-02  0.66381481441E-02  0.35984487336E+00  0.36001038531E+00  0.51109989000E-03 0.  1.
     -623    1    1    2    0    0  0.11304865201E-02 -0.30726235304E-02  0.23534215570E-03  0.17130000003E+03  0.17130000000E+03 0. -1.
      622    1    1    2    0    0 -0.97802501970E-02 -0.35655246138E-02  0.36399197518E+01  0.36399895832E+01  0.20000000000E-01 0.  1.
</event>
<event>
 5   0  0.3603037E+08  0.9118800E+02  0.7818608E-02  0.1180000E+00
       11   -1    0    0    0    0  0.00000000000E+00  0.00000000000E+00  0.39999999673E+01  0.40000000000E+01  0.51109989000E-03 0. -1.
     -623   -1    0    0    0    0  0.00000000000E+00  0.00000000000E+00  0.12525980253E-10  0.17130000000E+03  0.17130000000E+03 0. -1.
       11    1    1    2    0    0  0.15643324341E-01 -0.57616557835E-02  0.15216513466E+01  0.15217427484E+01  0.51109989000E-03 0. -1.
     -623    1    1    2    0    0  0.55570012833E-03  0.24260719597E-03  0.23116368640E-03  0.17130000000E+03  0.17130000000E+03 0. -1.
      622    1    1    2    0    0 -0.16199024470E-01  0.55190485875E-02  0.24781174570E+01  0.24782572504E+01  0.20000000000E-01 0.  1.
</event>
<event>
 5   0  0.3603037E+08  0.9118800E+02  0.7818608E-02  0.1180000E+00
       11   -1    0    0    0    0  0.00000000000E+00  0.00000000000E+00  0.39999999673E+01  0.40000000000E+01  0.51109989000E-03 0. -1.
     -623   -1    0    0    0    0  0.00000000000E+00  0.00000000000E+00  0.12525980253E-10  0.17130000000E+03  0.17130000000E+03 0. -1.
       11    1    1    2    0    0 -0.11285198138E-02 -0.75407725871E-03  0.17408744854E+00  0.17409348968E+00  0.51109989000E-03 0. -1.
     -623    1    1    2    0    0 -0.81699270392E-03  0.32847339134E-03  0.58804664255E-04  0.17130000000E+03  0.17130000000E+03 0. -1.
      622    1    1    2    0    0  0.19455125177E-02  0.42560386736E-03  0.38258537142E+01  0.38259065080E+01  0.20000000000E-01 0. -1.
</event>
<event>
 5   0  0.3603037E+08  0.9118800E+02  0.7818608E-02  0.1180000E+00
       11   -1    0    0    0    0  0.00000000000E+00  0.00000000000E+00  0.39999999673E+01  0.40000000000E+01  0.51109989000E-03 0.  1.
     -623   -1    0    0    0    0  0.00000000000E+00  0.00000000000E+00  0.12525980253E-10  0.17130000000E+03  0.17130000000E+03 0. -1.
       11    1    1    2    0    0 -0.40625177271E-02  0.21625676447E-02  0.24359180980E+01  0.24359224992E+01  0.51109989000E-03 0.  1.
     -623    1    1    2    0    0 -0.93430087736E-03  0.16701847288E-03  0.14196485125E-03  0.17130000000E+03  0.17130000000E+03 0. -1.
      622    1    1    2    0    0  0.49968186045E-02 -0.23295861176E-02  0.15639399045E+01  0.15640774981E+01  0.20000000000E-01 0.  0.
</event>
<event>
 5   0  0.3603037E+08  0.9118800E+02  0.7818608E-02  0.1180000E+00
       11   -1    0    0    0    0  0.00000000000E+00  0.00000000000E+00  0.39999999673E+01  0.40000000000E+01  0.51109989000E-03 0.  1.
     -623   -1    0    0    0    0  0.00000000000E+00  0.00000000000E+00  0.12525980253E-10  0.17130000000E+03  0.17130000000E+03 0.  1.
       11    1    1    2    0    0  0.12002066473E-02  0.64115122621E-03  0.80841256300E-01  0.80854322788E-01  0.51109989000E-03 0.  1.
     -623    1    1    2    0    0 -0.91870483263E-05 -0.18704573878E-03  0.64273110189E-04  0.17130000000E+03  0.17130000000E+03 0.  1.
      622    1    1    2    0    0 -0.11910195990E-02 -0.45410548743E-03  0.39190944379E+01  0.39191456771E+01  0.20000000000E-01 0.  1.
</event>
<event>
 5   0  0.3603037E+08  0.9118800E+02  0.7818608E-02  0.1180000E+00
       11   -1    0    0    0    0  0.00000000000E+00  0.00000000000E+00  0.39999999673E+01  0.40000000000E+01  0.51109989000E-03 0.  1.
     -623   -1    0    0    0    0  0.00000000000E+00  0.00000000000E+00  0.12525980253E-10  0.17130000000E+03  0.17130000000E+03 0.  1.
       11    1    1    2    0    0 -0.19040018907E-02  0.47813956572E-02  0.13546944477E+00  0.13556813289E+00  0.51109989000E-03 0.  1.
     -623    1    1    2    0    0 -0.31412138228E-03 -0.27317749947E-03  0.15367670573E-03  0.17130000000E+03  0.17130000000E+03 0.  1.
      622    1    1    2    0    0  0.22181232730E-02 -0.45082181577E-02  0.38643768459E+01  0.38644318665E+01  0.20000000000E-01 0.  1.
</event>
<event>
 5   0  0.3603037E+08  0.9118800E+02  0.7818608E-02  0.1180000E+00
       11   -1    0    0    0    0  0.00000000000E+00  0.00000000000E+00  0.39999999673E+01  0.40000000000E+01  0.51109989000E-03 0.  1.
     -623   -1    0    0    0    0  0.00000000000E+00  0.00000000000E+00  0.12525980253E-10  0.17130000000E+03  0.17130000000E+03 0. -1.
       11    1    1    2    0    0  0.44191181690E-04 -0.25074323173E-03  0.10446629274E-01  0.10462222992E-01  0.51109989000E-03 0.  1.
     -623    1    1    2    0    0  0.63851952297E-03 -0.36172006360E-03  0.65799526093E-04  0.17130000000E+03  0.17130000000E+03 0. -1.
      622    1    1    2    0    0 -0.68271070466E-03  0.61246329533E-03  0.39894875386E+01  0.39895377754E+01  0.20000000000E-01 0.  1.
</event>
<event>
 5   0  0.3603037E+08  0.9118800E+02  0.7818608E-02  0.1180000E+00
       11   -1    0    0    0    0  0.00000000000E+00  0.00000000000E+00  0.39999999673E+01  0.40000000000E+01  0.51109989000E-03 0.  1.
     -623   -1    0    0    0    0  0.00000000000E+00  0.00000000000E+00  0.12525980253E-10  0.17130000000E+03  0.17130000000E+03 0.  1.
       11    1    1    2    0    0  0.10046682351E-04 -0.63928062708E-03  0.19863713669E-01  0.19880571482E-01  0.51109989000E-03 0.  1.
     -623    1    1    2    0    0 -0.46704997932E-04  0.12201846310E-02  0.67122164936E-04  0.17130000000E+03  0.17130000000E+03 0.  1.
      622    1    1    2    0    0  0.36658315581E-04 -0.58090400391E-03  0.39800691315E+01  0.39801194242E+01  0.20000000000E-01 0.  1.
</event>
<event>
 5   0  0.3603037E+08  0.9118800E+02  0.7818608E-02  0.1180000E+00
       11   -1    0    0    0    0  0.00000000000E+00  0.00000000000E+00  0.39999999673E+01  0.40000000000E+01  0.51109989000E-03 0. -1.
     -623   -1    0    0    0    0  0.00000000000E+00  0.00000000000E+00  0.12525980253E-10  0.17130000000E+03  0.17130000000E+03 0. -1.
       11    1    1    2    0    0 -0.11640374451E-02  0.11997930039E-03  0.56345754829E-02  0.57774597697E-02  0.51109989000E-03 0. -1.
     -623    1    1    2    0    0  0.50132255264E-04  0.64112826126E-03  0.19315344024E-03  0.17130000000E+03  0.17130000000E+03 0. -1.
      622    1    1    2    0    0  0.11139051899E-02 -0.76110756165E-03  0.39941722384E+01  0.39942225389E+01  0.20000000000E-01 0. -1.
</event>
<event>
 5   0  0.3603037E+08  0.9118800E+02  0.7818608E-02  0.1180000E+00
       11   -1    0    0    0    0  0.00000000000E+00  0.00000000000E+00  0.39999999673E+01  0.40000000000E+01  0.51109989000E-03 0. -1.
     -623   -1    0    0    0    0  0.00000000000E+00  0.00000000000E+00  0.12525980253E-10  0.17130000000E+03  0.17130000000E+03 0.  1.
       11    1    1    2    0    0 -0.47295849171E-02 -0.14953113377E-02  0.20364730192E+00  0.20370834477E+00  0.51109989000E-03 0. -1.
     -623    1    1    2    0    0  0.31127283696E-03 -0.29903880374E-03  0.11668937855E-03  0.17130000000E+03  0.17130000000E+03 0.  1.
      622    1    1    2    0    0  0.44183120801E-02  0.17943501414E-02  0.37962359761E+01  0.37962916546E+01  0.20000000000E-01 0. -1.
</event>
<event>
 5   0  0.3603037E+08  0.9118800E+02  0.7818608E-02  0.1180000E+00
       11   -1    0    0    0    0  0.00000000000E+00  0.00000000000E+00  0.39999999673E+01  0.40000000000E+01  0.51109989000E-03 0.  1.
     -623   -1    0    0    0    0  0.00000000000E+00  0.00000000000E+00  0.12525980253E-10  0.17130000000E+03  0.17130000000E+03 0.  1.
       11    1    1    2    0    0  0.36494568526E-02  0.42656086053E-03  0.30893346057E+01  0.30893368330E+01  0.51109989000E-03 0.  1.
     -623    1    1    2    0    0 -0.12453925764E-02  0.10967113511E-02  0.22629782929E-03  0.17130000001E+03  0.17130000000E+03 0.  1.
      622    1    1    2    0    0 -0.24040642762E-02 -0.15232722116E-02  0.91043906385E+00  0.91066315884E+00  0.20000000000E-01 0.  1.
</event>
<event>
 5   0  0.3603037E+08  0.9118800E+02  0.7818608E-02  0.1180000E+00
       11   -1    0    0    0    0  0.00000000000E+00  0.00000000000E+00  0.39999999673E+01  0.40000000000E+01  0.51109989000E-03 0.  1.
     -623   -1    0    0    0    0  0.00000000000E+00  0.00000000000E+00  0.12525980253E-10  0.17130000000E+03  0.17130000000E+03 0. -1.
       11    1    1    2    0    0 -0.57574286229E-02 -0.42662852854E-01  0.10798689246E+01  0.10807268029E+01  0.51109989000E-03 0.  1.
     -623    1    1    2    0    0 -0.23420151495E-04  0.25570730794E-01  0.98403021862E-03  0.17130000191E+03  0.17130000000E+03 0. -1.
      622    1    1    2    0    0  0.57808487744E-02  0.17092122061E-01  0.29191470125E+01  0.29192712857E+01  0.20000000000E-01 0.  1.
</event>
<event>
 5   0  0.3603037E+08  0.9118800E+02  0.7818608E-02  0.1180000E+00
       11   -1    0    0    0    0  0.00000000000E+00  0.00000000000E+00  0.39999999673E+01  0.40000000000E+01  0.51109989000E-03 0. -1.
     -623   -1    0    0    0    0  0.00000000000E+00  0.00000000000E+00  0.12525980253E-10  0.17130000000E+03  0.17130000000E+03 0. -1.
       11    1    1    2    0    0 -0.31545419685E-03 -0.35583867652E-03  0.93197250455E-01  0.93199865059E-01  0.51109989000E-03 0. -1.
     -623    1    1    2    0    0 -0.37223834667E-03  0.16252622087E-02  0.54049976280E-04  0.17130000001E+03  0.17130000000E+03 0. -1.
      622    1    1    2    0    0  0.68769254352E-03 -0.12694235322E-02  0.39067486669E+01  0.39068001268E+01  0.20000000000E-01 0. -1.
</event>
<event>
 5   0  0.3603037E+08  0.9118800E+02  0.7818608E-02  0.1180000E+00
       11   -1    0    0    0    0  0.00000000000E+00  0.00000000000E+00  0.39999999673E+01  0.40000000000E+01  0.51109989000E-03 0.  1.
     -623   -1    0    0    0    0  0.00000000000E+00  0.00000000000E+00  0.12525980253E-10  0.17130000000E+03  0.17130000000E+03 0.  1.
       11    1    1    2    0    0 -0.32522956749E-02  0.68802682497E-03  0.38645829868E+00  0.38647293392E+00  0.51109989000E-03 0.  1.
     -623    1    1    2    0    0  0.18605030086E-02 -0.10419686551E-02  0.70249262788E-04  0.17130000001E+03  0.17130000000E+03 0.  1.
      622    1    1    2    0    0  0.13917926663E-02  0.35394183017E-03  0.36134714194E+01  0.36135270528E+01  0.20000000000E-01 0.  1.
</event>
<event>
 5   0  0.3603037E+08  0.9118800E+02  0.7818608E-02  0.1180000E+00
       11   -1    0    0    0    0  0.00000000000E+00  0.00000000000E+00  0.39999999673E+01  0.40000000000E+01  0.51109989000E-03 0.  1.
     -623   -1    0    0    0    0  0.00000000000E+00  0.00000000000E+00  0.12525980253E-10  0.17130000000E+03  0.17130000000E+03 0. -1.
       11    1    1    2    0    0  0.26646008290E-02 -0.92265395025E-02  0.29954216470E+00  0.29969651113E+00  0.51109989000E-03 0.  1.
     -623    1    1    2    0    0  0.37679979434E-02 -0.47249254701E-04  0.22561799395E-03  0.17130000004E+03  0.17130000000E+03 0. -1.
      622    1    1    2    0    0 -0.64325987724E-02  0.92737887572E-02  0.37002321847E+01  0.37003034473E+01  0.20000000000E-01 0.  1.
</event>
<event>
 5   0  0.3603037E+08  0.9118800E+02  0.7818608E-02  0.1180000E+00
       11   -1    0    0    0    0  0.00000000000E+00  0.00000000000E+00  0.39999999673E+01  0.40000000000E+01  0.51109989000E-03 0.  1.
     -623   -1    0    0    0    0  0.00000000000E+00  0.00000000000E+00  0.12525980253E-10  0.17130000000E+03  0.17130000000E+03 0. -1.
       11    1    1    2    0    0 -0.13527113108E-02 -0.22338428117E-01  0.30978148206E+01  0.30978956985E+01  0.51109989000E-03 0.  1.
     -623    1    1    2    0    0 -0.63229403200E-03 -0.15154580952E-02  0.62028147438E-03  0.17130000001E+03  0.17130000000E+03 0. -1.
      622    1    1    2    0    0  0.19850053428E-02  0.23853886212E-01  0.90156486532E+00  0.90210429248E+00  0.20000000000E-01 0. -1.
</event>
<event>
 5   0  0.3603037E+08  0.9118800E+02  0.7818608E-02  0.1180000E+00
       11   -1    0    0    0    0  0.00000000000E+00  0.00000000000E+00  0.39999999673E+01  0.40000000000E+01  0.51109989000E-03 0.  1.
     -623   -1    0    0    0    0  0.00000000000E+00  0.00000000000E+00  0.12525980253E-10  0.17130000000E+03  0.17130000000E+03 0.  1.
       11    1    1    2    0    0  0.66366811291E-02 -0.16161486048E-01  0.84529367722E-01  0.86317520804E-01  0.51109989000E-03 0.  1.
     -623    1    1    2    0    0 -0.24579072612E-02  0.15688959532E-02  0.18686949869E-02  0.17130000004E+03  0.17130000000E+03 0.  1.
      622    1    1    2    0    0 -0.41787738679E-02  0.14592590095E-01  0.39136019047E+01  0.39136824442E+01  0.20000000000E-01 0.  1.
</event>
<event>
 5   0  0.3603037E+08  0.9118800E+02  0.7818608E-02  0.1180000E+00
       11   -1    0    0    0    0  0.00000000000E+00  0.00000000000E+00  0.39999999673E+01  0.40000000000E+01  0.51109989000E-03 0. -1.
     -623   -1    0    0    0    0  0.00000000000E+00  0.00000000000E+00  0.12525980253E-10  0.17130000000E+03  0.17130000000E+03 0. -1.
       11    1    1    2    0    0  0.49389815140E-03  0.28365153639E-02  0.20953465326E+00  0.20955505695E+00  0.51109989000E-03 0. -1.
     -623    1    1    2    0    0  0.18733939443E-02  0.85269165628E-03  0.75682664374E-04  0.17130000001E+03  0.17130000000E+03 0. -1.
      622    1    1    2    0    0 -0.23672920957E-02 -0.36892070202E-02  0.37903896314E+01  0.37904449307E+01  0.20000000000E-01 0. -1.
</event>
<event>
 5   0  0.3603037E+08  0.9118800E+02  0.7818608E-02  0.1180000E+00
       11   -1    0    0    0    0  0.00000000000E+00  0.00000000000E+00  0.39999999673E+01  0.40000000000E+01  0.51109989000E-03 0.  1.
     -623   -1    0    0    0    0  0.00000000000E+00  0.00000000000E+00  0.12525980253E-10  0.17130000000E+03  0.17130000000E+03 0. -1.
       11    1    1    2    0    0 -0.64746408695E-02  0.22911848062E-02  0.10593246817E+01  0.10593470692E+01  0.51109989000E-03 0.  1.
     -623    1    1    2    0    0  0.40199784567E-03  0.95579901142E-03  0.98433916484E-04  0.17130000000E+03  0.17130000000E+03 0. -1.
      622    1    1    2    0    0  0.60726430239E-02 -0.32469838176E-02  0.29405768517E+01  0.29406529277E+01  0.20000000000E-01 0.  1.
</event>
<event>
 5   0  0.3603037E+08  0.9118800E+02  0.7818608E-02  0.1180000E+00
       11   -1    0    0    0    0  0.00000000000E+00  0.00000000000E+00  0.39999999673E+01  0.40000000000E+01  0.51109989000E-03 0. -1.
     -623   -1    0    0    0    0  0.00000000000E+00  0.00000000000E+00  0.12525980253E-10  0.17130000000E+03  0.17130000000E+03 0.  1.
       11    1    1    2    0    0 -0.50471046826E-03  0.21191806152E-02  0.23415770467E+00  0.23416839568E+00  0.51109989000E-03 0. -1.
     -623    1    1    2    0    0 -0.22410126406E-02 -0.42861498903E-03  0.65163530970E-04  0.17130000002E+03  0.17130000000E+03 0.  1.
      622    1    1    2    0    0  0.27457231088E-02 -0.16905656262E-02  0.37657770992E+01  0.37658315891E+01  0.20000000000E-01 0. -1.
</event>
<event>
 5   0  0.3603037E+08  0.9118800E+02  0.7818608E-02  0.1180000E+00
       11   -1    0    0    0    0  0.00000000000E+00  0.00000000000E+00  0.39999999673E+01  0.40000000000E+01  0.51109989000E-03 0. -1.
     -623   -1    0    0    0    0  0.00000000000E+00  0.00000000000E+00  0.12525980253E-10  0.17130000000E+03  0.17130000000E+03 0.  1.
       11    1    1    2    0    0 -0.65982783378E-03 -0.12468532291E-02  0.82068928997E-02  0.83429208213E-02  0.51109989000E-03 0. -1.
     -623    1    1    2    0    0  0.37766522340E-02  0.77510999347E-03  0.18738834312E-03  0.17130000004E+03  0.17130000000E+03 0.  1.
      622    1    1    2    0    0 -0.31168244003E-02  0.47174323565E-03  0.39916056861E+01  0.39916570357E+01  0.20000000000E-01 0. -1.
</event>
<event>
 5   0  0.3603037E+08  0.9118800E+02  0.7818608E-02  0.1180000E+00
       11   -1    0    0    0    0  0.00000000000E+00  0.00000000000E+00  0.39999999673E+01  0.40000000000E+01  0.51109989000E-03 0.  1.
     -623   -1    0    0    0    0  0.00000000000E+00  0.00000000000E+00  0.12525980253E-10  0.17130000000E+03  0.17130000000E+03 0. -1.
       11    1    1    2    0    0  0.21860280590E-02 -0.37757720610E-02  0.93290414335E+00  0.93291448540E+00  0.51109989000E-03 0.  1.
     -623    1    1    2    0    0 -0.39792470498E-02 -0.45894626989E-02  0.87558569015E-04  0.17130000011E+03  0.17130000000E+03 0. -1.
      622    1    1    2    0    0  0.17932189909E-02  0.83652347599E-02  0.30670082654E+01  0.30670854069E+01  0.20000000000E-01 0.  1.
</event>
<event>
 5   0  0.3603037E+08  0.9118800E+02  0.7818608E-02  0.1180000E+00
       11   -1    0    0    0    0  0.00000000000E+00  0.00000000000E+00  0.39999999673E+01  0.40000000000E+01  0.51109989000E-03 0.  1.
     -623   -1    0    0    0    0  0.00000000000E+00  0.00000000000E+00  0.12525980253E-10  0.17130000000E+03  0.17130000000E+03 0. -1.
       11    1    1    2    0    0 -0.11107994940E-01  0.57600142283E-02  0.37683663698E+00  0.37704466249E+00  0.51109989000E-03 0.  1.
     -623    1    1    2    0    0 -0.17155766783E-02  0.66998953875E-03  0.29160822759E-03  0.17130000001E+03  0.17130000000E+03 0. -1.
      622    1    1    2    0    0  0.12823571619E-01 -0.64300037670E-02  0.36228717221E+01  0.36229553274E+01  0.20000000000E-01 0.  1.
</event>
<event>
 5   0  0.3603037E+08  0.9118800E+02  0.7818608E-02  0.1180000E+00
       11   -1    0    0    0    0  0.00000000000E+00  0.00000000000E+00  0.39999999673E+01  0.40000000000E+01  0.51109989000E-03 0.  1.
     -623   -1    0    0    0    0  0.00000000000E+00  0.00000000000E+00  0.12525980253E-10  0.17130000000E+03  0.17130000000E+03 0.  1.
       11    1    1    2    0    0  0.31416539811E-02  0.37093197662E-02  0.10428874592E+00  0.10440322212E+00  0.51109989000E-03 0.  1.
     -623    1    1    2    0    0  0.16182063969E-02  0.84421840649E-04  0.17054693926E-03  0.17130000001E+03  0.17130000000E+03 0.  1.
      622    1    1    2    0    0 -0.47598603780E-02 -0.37937416069E-02  0.38955406745E+01  0.38955967701E+01  0.20000000000E-01 0.  1.
</event>
<event>
 5   0  0.3603037E+08  0.9118800E+02  0.7818608E-02  0.1180000E+00
       11   -1    0    0    0    0  0.00000000000E+00  0.00000000000E+00  0.39999999673E+01  0.40000000000E+01  0.51109989000E-03 0.  1.
     -623   -1    0    0    0    0  0.00000000000E+00  0.00000000000E+00  0.12525980253E-10  0.17130000000E+03  0.17130000000E+03 0. -1.
       11    1    1    2    0    0  0.19718873207E-03  0.21041285447E-02  0.80928859431E-01  0.80958061681E-01  0.51109989000E-03 0.  1.
     -623    1    1    2    0    0 -0.19739542382E-02 -0.14681961970E-02  0.80674872874E-04  0.17130000002E+03  0.17130000000E+03 0. -1.
      622    1    1    2    0    0  0.17767655062E-02 -0.63593234777E-03  0.39189904331E+01  0.39190419206E+01  0.20000000000E-01 0.  1.
</event>
<event>
 5   0  0.3603037E+08  0.9118800E+02  0.7818608E-02  0.1180000E+00
       11   -1    0    0    0    0  0.00000000000E+00  0.00000000000E+00  0.39999999673E+01  0.40000000000E+01  0.51109989000E-03 0.  1.
     -623   -1    0    0    0    0  0.00000000000E+00  0.00000000000E+00  0.12525980253E-10  0.17130000000E+03  0.17130000000E+03 0. -1.
       11    1    1    2    0    0 -0.29958067580E-01 -0.17075130482E-01  0.12875231326E+01  0.12879849084E+01  0.51109989000E-03 0.  1.
     -623    1    1    2    0    0  0.53227827497E-02  0.10385553124E-01  0.65603560532E-03  0.17130000040E+03  0.17130000000E+03 0. -1.
      622    1    1    2    0    0  0.24635284831E-01  0.66895773585E-02  0.27118207991E+01  0.27120146928E+01  0.20000000000E-01 0.  1.
</event>
<event>
 5   0  0.3603037E+08  0.9118800E+02  0.7818608E-02  0.1180000E+00
       11   -1    0    0    0    0  0.00000000000E+00  0.00000000000E+00  0.39999999673E+01  0.40000000000E+01  0.51109989000E-03 0. -1.
     -623   -1    0    0    0    0  0.00000000000E+00  0.00000000000E+00  0.12525980253E-10  0.17130000000E+03  0.17130000000E+03 0. -1.
       11    1    1    2    0    0 -0.20353414467E-01  0.20315524690E-02  0.36360759564E+00  0.36418282979E+00  0.51109989000E-03 0. -1.
     -623    1    1    2    0    0 -0.46416297271E-03 -0.30403556880E-02  0.68997808134E-03  0.17130000003E+03  0.17130000000E+03 0. -1.
      622    1    1    2    0    0  0.20817577439E-01  0.10088032190E-02  0.36357023936E+01  0.36358171412E+01  0.20000000000E-01 0. -1.
</event>
<event>
 5   0  0.3603037E+08  0.9118800E+02  0.7818608E-02  0.1180000E+00
       11   -1    0    0    0    0  0.00000000000E+00  0.00000000000E+00  0.39999999673E+01  0.40000000000E+01  0.51109989000E-03 0. -1.
     -623   -1    0    0    0    0  0.00000000000E+00  0.00000000000E+00  0.12525980253E-10  0.17130000000E+03  0.17130000000E+03 0.  1.
       11    1    1    2    0    0 -0.23821354267E-01  0.38225812116E-01  0.89591790673E+00  0.89704951171E+00  0.51109989000E-03 0. -1.
     -623    1    1    2    0    0  0.27532350227E-01 -0.53676023095E-01  0.12473398835E-02  0.17130001063E+03  0.17130000000E+03 0.  1.
      622    1    1    2    0    0 -0.37109959602E-02  0.15450210979E-01  0.31028347207E+01  0.31029398616E+01  0.20000000000E-01 0. -1.
</event>
<event>
 5   0  0.3603037E+08  0.9118800E+02  0.7818608E-02  0.1180000E+00
       11   -1    0    0    0    0  0.00000000000E+00  0.00000000000E+00  0.39999999673E+01  0.40000000000E+01  0.51109989000E-03 0. -1.
     -623   -1    0    0    0    0  0.00000000000E+00  0.00000000000E+00  0.12525980253E-10  0.17130000000E+03  0.17130000000E+03 0.  1.
       11    1    1    2    0    0  0.13348881261E-02  0.27213702021E-03  0.25996516364E-01  0.26037205471E-01  0.51109989000E-03 0. -1.
     -623    1    1    2    0    0 -0.87685272561E-04  0.12703349687E-03  0.91200240736E-04  0.17130000000E+03  0.17130000000E+03 0.  1.
      622    1    1    2    0    0 -0.12472028535E-02 -0.39917051708E-03  0.39739122508E+01  0.39739627944E+01  0.20000000000E-01 0. -1.
</event>
<event>
 5   0  0.3603037E+08  0.9118800E+02  0.7818608E-02  0.1180000E+00
       11   -1    0    0    0    0  0.00000000000E+00  0.00000000000E+00  0.39999999673E+01  0.40000000000E+01  0.51109989000E-03 0.  1.
     -623   -1    0    0    0    0  0.00000000000E+00  0.00000000000E+00  0.12525980253E-10  0.17130000000E+03  0.17130000000E+03 0. -1.
       11    1    1    2    0    0 -0.12416915116E-02  0.21223470627E-02  0.68001527699E+00  0.68001991465E+00  0.51109989000E-03 0.  1.
     -623    1    1    2    0    0  0.90776488817E-04  0.15484523732E-03  0.65827472953E-04  0.17130000000E+03  0.17130000000E+03 0. -1.
      622    1    1    2    0    0  0.11509150228E-02 -0.22771923001E-02  0.33199188629E+01  0.33199800852E+01  0.20000000000E-01 0.  1.
</event>
<event>
 5   0  0.3603037E+08  0.9118800E+02  0.7818608E-02  0.1180000E+00
       11   -1    0    0    0    0  0.00000000000E+00  0.00000000000E+00  0.39999999673E+01  0.40000000000E+01  0.51109989000E-03 0. -1.
     -623   -1    0    0    0    0  0.00000000000E+00  0.00000000000E+00  0.12525980253E-10  0.17130000000E+03  0.17130000000E+03 0.  1.
       11    1    1    2    0    0  0.24718734577E-02  0.62513421999E-03  0.48555036910E+00  0.48555733246E+00  0.51109989000E-03 0. -1.
     -623    1    1    2    0    0  0.11356712960E-03 -0.23842590982E-03  0.64811721092E-04  0.17130000000E+03  0.17130000000E+03 0.  1.
      622    1    1    2    0    0 -0.25854405873E-02 -0.38670831017E-03  0.35143847865E+01  0.35144426673E+01  0.20000000000E-01 0. -1.
</event>
<event>
 5   0  0.3603037E+08  0.9118800E+02  0.7818608E-02  0.1180000E+00
       11   -1    0    0    0    0  0.00000000000E+00  0.00000000000E+00  0.39999999673E+01  0.40000000000E+01  0.51109989000E-03 0.  1.
     -623   -1    0    0    0    0  0.00000000000E+00  0.00000000000E+00  0.12525980253E-10  0.17130000000E+03  0.17130000000E+03 0. -1.
       11    1    1    2    0    0  0.18623397797E-02 -0.83686534037E-04  0.20988126827E-01  0.21076954285E-01  0.51109989000E-03 0.  1.
     -623    1    1    2    0    0  0.18432036987E-03  0.12950873977E-03  0.13958684439E-03  0.17130000000E+03  0.17130000000E+03 0. -1.
      622    1    1    2    0    0 -0.20466601496E-02 -0.45822205731E-04  0.39788722537E+01  0.39789230455E+01  0.20000000000E-01 0.  1.
</event>
<event>
 5   0  0.3603037E+08  0.9118800E+02  0.7818608E-02  0.1180000E+00
       11   -1    0    0    0    0  0.00000000000E+00  0.00000000000E+00  0.39999999673E+01  0.40000000000E+01  0.51109989000E-03 0.  1.
     -623   -1    0    0    0    0  0.00000000000E+00  0.00000000000E+00  0.12525980253E-10  0.17130000000E+03  0.17130000000E+03 0.  1.
       11    1    1    2    0    0 -0.15354171271E-02  0.25166126054E-02  0.12082233411E+00  0.12085937485E+00  0.51109989000E-03 0.  1.
     -623    1    1    2    0    0 -0.87887063053E-03 -0.35703027636E-03  0.89921352346E-04  0.17130000000E+03  0.17130000000E+03 0.  1.
      622    1    1    2    0    0  0.24142877577E-02 -0.21595823290E-02  0.38790877119E+01  0.38791406225E+01  0.20000000000E-01 0.  1.
</event>
<event>
 5   0  0.3603037E+08  0.9118800E+02  0.7818608E-02  0.1180000E+00
       11   -1    0    0    0    0  0.00000000000E+00  0.00000000000E+00  0.39999999673E+01  0.40000000000E+01  0.51109989000E-03 0.  1.
     -623   -1    0    0    0    0  0.00000000000E+00  0.00000000000E+00  0.12525980253E-10  0.17130000000E+03  0.17130000000E+03 0.  1.
       11    1    1    2    0    0  0.16895943046E-02  0.15096115895E-02  0.21933931586E+00  0.21935161353E+00  0.51109989000E-03 0.  1.
     -623    1    1    2    0    0 -0.25280099726E-02  0.33015636547E-03  0.65725980406E-04  0.17130000002E+03  0.17130000000E+03 0.  1.
      622    1    1    2    0    0  0.83841566797E-03 -0.18397679550E-02  0.37805949255E+01  0.37806483675E+01  0.20000000000E-01 0.  1.
</event>
<event>
 5   0  0.3603037E+08  0.9118800E+02  0.7818608E-02  0.1180000E+00
       11   -1    0    0    0    0  0.00000000000E+00  0.00000000000E+00  0.39999999673E+01  0.40000000000E+01  0.51109989000E-03 0.  1.
     -623   -1    0    0    0    0  0.00000000000E+00  0.00000000000E+00  0.12525980253E-10  0.17130000000E+03  0.17130000000E+03 0. -1.
       11    1    1    2    0    0 -0.18621584280E-01  0.78946681948E-02  0.16314827019E+01  0.16316081506E+01  0.51109989000E-03 0.  1.
     -623    1    1    2    0    0  0.10787932266E-01 -0.42173122602E-02  0.22606551852E-03  0.17130000039E+03  0.17130000000E+03 0. -1.
      622    1    1    2    0    0  0.78336520143E-02 -0.36773559346E-02  0.23682911999E+01  0.23683914576E+01  0.20000000000E-01 0.  0.
</event>
<event>
 5   0  0.3603037E+08  0.9118800E+02  0.7818608E-02  0.1180000E+00
       11   -1    0    0    0    0  0.00000000000E+00  0.00000000000E+00  0.39999999673E+01  0.40000000000E+01  0.51109989000E-03 0.  1.
     -623   -1    0    0    0    0  0.00000000000E+00  0.00000000000E+00  0.12525980253E-10  0.17130000000E+03  0.17130000000E+03 0.  1.
       11    1    1    2    0    0 -0.11211472544E-01  0.58118974111E-02  0.55979566711E+00  0.55993832286E+00  0.51109989000E-03 0.  1.
     -623    1    1    2    0    0  0.16394188851E-01 -0.61768097815E-02  0.20558159549E-03  0.17130000090E+03  0.17130000000E+03 0.  1.
      622    1    1    2    0    0 -0.51827163070E-02  0.36491237044E-03  0.34399987187E+01  0.34400607812E+01  0.20000000000E-01 0.  1.
</event>
<event>
 5   0  0.3603037E+08  0.9118800E+02  0.7818608E-02  0.1180000E+00
       11   -1    0    0    0    0  0.00000000000E+00  0.00000000000E+00  0.39999999673E+01  0.40000000000E+01  0.51109989000E-03 0. -1.
     -623   -1    0    0    0    0  0.00000000000E+00  0.00000000000E+00  0.12525980253E-10  0.17130000000E+03  0.17130000000E+03 0.  1.
       11    1    1    2    0    0 -0.52098724850E-03  0.17608938745E-03  0.10095917984E-01  0.10123794549E-01  0.51109989000E-03 0. -1.
     -623    1    1    2    0    0 -0.11203056230E-03 -0.44350141742E-04  0.78023560191E-04  0.17130000000E+03  0.17130000000E+03 0.  1.
      622    1    1    2    0    0  0.63301781079E-03 -0.13173924571E-03  0.39898260258E+01  0.39898762054E+01  0.20000000000E-01 0. -1.
</event>
<event>
 5   0  0.3603037E+08  0.9118800E+02  0.7818608E-02  0.1180000E+00
       11   -1    0    0    0    0  0.00000000000E+00  0.00000000000E+00  0.39999999673E+01  0.40000000000E+01  0.51109989000E-03 0. -1.
     -623   -1    0    0    0    0  0.00000000000E+00  0.00000000000E+00  0.12525980253E-10  0.17130000000E+03  0.17130000000E+03 0. -1.
       11    1    1    2    0    0  0.48714321214E-02 -0.61980775798E-03  0.10845936605E+00  0.10857168285E+00  0.51109989000E-03 0. -1.
     -623    1    1    2    0    0  0.66323960341E-03 -0.38262314678E-03  0.16774638569E-03  0.17130000000E+03  0.17130000000E+03 0. -1.
      622    1    1    2    0    0 -0.55346717248E-02  0.10024309048E-02  0.38913728549E+01  0.38914283154E+01  0.20000000000E-01 0. -1.
</event>
<event>
 5   0  0.3603037E+08  0.9118800E+02  0.7818608E-02  0.1180000E+00
       11   -1    0    0    0    0  0.00000000000E+00  0.00000000000E+00  0.39999999673E+01  0.40000000000E+01  0.51109989000E-03 0. -1.
     -623   -1    0    0    0    0  0.00000000000E+00  0.00000000000E+00  0.12525980253E-10  0.17130000000E+03  0.17130000000E+03 0. -1.
       11    1    1    2    0    0 -0.78918980824E-02  0.79477371556E-02  0.26680814680E+01  0.26681050260E+01  0.51109989000E-03 0. -1.
     -623    1    1    2    0    0  0.21039149002E-01 -0.42137920047E-02  0.24517265293E-03  0.17130000134E+03  0.17130000000E+03 0. -1.
      622    1    1    2    0    0 -0.13147250920E-01 -0.37339451509E-02  0.13316733267E+01  0.13318936300E+01  0.20000000000E-01 0. -1.
</event>
<event>
 5   0  0.3603037E+08  0.9118800E+02  0.7818608E-02  0.1180000E+00
       11   -1    0    0    0    0  0.00000000000E+00  0.00000000000E+00  0.39999999673E+01  0.40000000000E+01  0.51109989000E-03 0. -1.
     -623   -1    0    0    0    0  0.00000000000E+00  0.00000000000E+00  0.12525980253E-10  0.17130000000E+03  0.17130000000E+03 0. -1.
       11    1    1    2    0    0 -0.62942083723E-02 -0.18924427546E-02  0.60914452708E+00  0.60918019870E+00  0.51109989000E-03 0. -1.
     -623    1    1    2    0    0 -0.14787990938E-03 -0.46103590352E-02  0.10703962590E-03  0.17130000006E+03  0.17130000000E+03 0. -1.
      622    1    1    2    0    0  0.64420882816E-02  0.65028017898E-02  0.33907484007E+01  0.33908197392E+01  0.20000000000E-01 0.  0.
</event>
<event>
 5   0  0.3603037E+08  0.9118800E+02  0.7818608E-02  0.1180000E+00
       11   -1    0    0    0    0  0.00000000000E+00  0.00000000000E+00  0.39999999673E+01  0.40000000000E+01  0.51109989000E-03 0. -1.
     -623   -1    0    0    0    0  0.00000000000E+00  0.00000000000E+00  0.12525980253E-10  0.17130000000E+03  0.17130000000E+03 0. -1.
       11    1    1    2    0    0  0.19616830342E-02  0.16148233410E-01  0.75961289486E+00  0.75978722344E+00  0.51109989000E-03 0. -1.
     -623    1    1    2    0    0 -0.22494809545E-02  0.12888192111E-02  0.28297307597E-03  0.17130000002E+03  0.17130000000E+03 0. -1.
      622    1    1    2    0    0  0.28779792035E-03 -0.17437052621E-01  0.32401040994E+01  0.32402127567E+01  0.20000000000E-01 0. -1.
</event>
<event>
 5   0  0.3603037E+08  0.9118800E+02  0.7818608E-02  0.1180000E+00
       11   -1    0    0    0    0  0.00000000000E+00  0.00000000000E+00  0.39999999673E+01  0.40000000000E+01  0.51109989000E-03 0.  1.
     -623   -1    0    0    0    0  0.00000000000E+00  0.00000000000E+00  0.12525980253E-10  0.17130000000E+03  0.17130000000E+03 0. -1.
       11    1    1    2    0    0 -0.73484851364E-03  0.19103118159E-02  0.85677519556E-01  0.85703488092E-01  0.51109989000E-03 0.  1.
     -623    1    1    2    0    0  0.46088376146E-03  0.69764619773E-04  0.77542043805E-04  0.17130000000E+03  0.17130000000E+03 0. -1.
      622    1    1    2    0    0  0.27396475218E-03 -0.19800764357E-02  0.39142449058E+01  0.39142965113E+01  0.20000000000E-01 0.  1.
</event>
<event>
 5   0  0.3603037E+08  0.9118800E+02  0.7818608E-02  0.1180000E+00
       11   -1    0    0    0    0  0.00000000000E+00  0.00000000000E+00  0.39999999673E+01  0.40000000000E+01  0.51109989000E-03 0.  1.
     -623   -1    0    0    0    0  0.00000000000E+00  0.00000000000E+00  0.12525980253E-10  0.17130000000E+03  0.17130000000E+03 0.  1.
       11    1    1    2    0    0  0.48282297559E-04  0.78063158331E-03  0.38347128347E-01  0.38358508723E-01  0.51109989000E-03 0.  1.
     -623    1    1    2    0    0  0.28473559074E-03  0.48082906267E-04  0.61933110244E-04  0.17130000000E+03  0.17130000000E+03 0.  1.
      622    1    1    2    0    0 -0.33301788830E-03 -0.82871448957E-03  0.39615909059E+01  0.39616414910E+01  0.20000000000E-01 0.  1.
</event>
<event>
 5   0  0.3603037E+08  0.9118800E+02  0.7818608E-02  0.1180000E+00
       11   -1    0    0    0    0  0.00000000000E+00  0.00000000000E+00  0.39999999673E+01  0.40000000000E+01  0.51109989000E-03 0.  1.
     -623   -1    0    0    0    0  0.00000000000E+00  0.00000000000E+00  0.12525980253E-10  0.17130000000E+03  0.17130000000E+03 0.  1.
       11    1    1    2    0    0 -0.43827429664E-02  0.97493678959E-03  0.59175663210E+00  0.59177388570E+00  0.51109989000E-03 0.  1.
     -623    1    1    2    0    0  0.84486177677E-03  0.47288436534E-03  0.78049560081E-04  0.17130000000E+03  0.17130000000E+03 0.  1.
      622    1    1    2    0    0  0.35378811896E-02 -0.14478211549E-02  0.34081652857E+01  0.34082261116E+01  0.20000000000E-01 0.  1.
</event>
<event>
 5   0  0.3603037E+08  0.9118800E+02  0.7818608E-02  0.1180000E+00
       11   -1    0    0    0    0  0.00000000000E+00  0.00000000000E+00  0.39999999673E+01  0.40000000000E+01  0.51109989000E-03 0.  1.
     -623   -1    0    0    0    0  0.00000000000E+00  0.00000000000E+00  0.12525980253E-10  0.17130000000E+03  0.17130000000E+03 0.  1.
       11    1    1    2    0    0 -0.34037898811E-03 -0.34829518611E-02  0.10480935548E+00  0.10486900890E+00  0.51109989000E-03 0.  1.
     -623    1    1    2    0    0 -0.35635652557E-03  0.68940274004E-05  0.11258105316E-03  0.17130000000E+03  0.17130000000E+03 0.  1.
      622    1    1    2    0    0  0.69673551368E-03  0.34760578337E-02  0.38950780308E+01  0.38951309907E+01  0.20000000000E-01 0.  1.
</event>
<event>
 5   0  0.3603037E+08  0.9118800E+02  0.7818608E-02  0.1180000E+00
       11   -1    0    0    0    0  0.00000000000E+00  0.00000000000E+00  0.39999999673E+01  0.40000000000E+01  0.51109989000E-03 0. -1.
     -623   -1    0    0    0    0  0.00000000000E+00  0.00000000000E+00  0.12525980253E-10  0.17130000000E+03  0.17130000000E+03 0. -1.
       11    1    1    2    0    0  0.25229933165E-01  0.39046081399E-01  0.16522910312E+01  0.16529449655E+01  0.51109989000E-03 0. -1.
     -623    1    1    2    0    0 -0.33248642414E-01 -0.26962298044E-01  0.78927373425E-03  0.17130000535E+03  0.17130000000E+03 0. -1.
      622    1    1    2    0    0  0.80187092499E-02 -0.12083783354E-01  0.23469196624E+01  0.23470496840E+01  0.20000000000E-01 0. -1.
</event>
<event>
 5   0  0.3603037E+08  0.9118800E+02  0.7818608E-02  0.1180000E+00
       11   -1    0    0    0    0  0.00000000000E+00  0.00000000000E+00  0.39999999673E+01  0.40000000000E+01  0.51109989000E-03 0. -1.
     -623   -1    0    0    0    0  0.00000000000E+00  0.00000000000E+00  0.12525980253E-10  0.17130000000E+03  0.17130000000E+03 0. -1.
       11    1    1    2    0    0 -0.61897417672E-03  0.41713616750E-02  0.15746025965E+00  0.15751754816E+00  0.51109989000E-03 0. -1.
     -623    1    1    2    0    0  0.23062793793E-03 -0.75232931543E-03  0.11084851854E-03  0.17130000000E+03  0.17130000000E+03 0. -1.
      622    1    1    2    0    0  0.38834623879E-03 -0.34190323596E-02  0.38424288592E+01  0.38424824500E+01  0.20000000000E-01 0.  0.
</event>
<event>
 5   0  0.3603037E+08  0.9118800E+02  0.7818608E-02  0.1180000E+00
       11   -1    0    0    0    0  0.00000000000E+00  0.00000000000E+00  0.39999999673E+01  0.40000000000E+01  0.51109989000E-03 0. -1.
     -623   -1    0    0    0    0  0.00000000000E+00  0.00000000000E+00  0.12525980253E-10  0.17130000000E+03  0.17130000000E+03 0.  1.
       11    1    1    2    0    0  0.15018739309E-02  0.39723099170E-02  0.14559746599E+00  0.14566028353E+00  0.51109989000E-03 0. -1.
     -623    1    1    2    0    0 -0.10574065150E-03  0.97861172000E-05  0.11698480969E-03  0.17130000000E+03  0.17130000000E+03 0.  1.
      622    1    1    2    0    0 -0.13961332794E-02 -0.39820960342E-02  0.38542855166E+01  0.38543397164E+01  0.20000000000E-01 0. -1.
</event>
<event>
 5   0  0.3603037E+08  0.9118800E+02  0.7818608E-02  0.1180000E+00
       11   -1    0    0    0    0  0.00000000000E+00  0.00000000000E+00  0.39999999673E+01  0.40000000000E+01  0.51109989000E-03 0.  1.
     -623   -1    0    0    0    0  0.00000000000E+00  0.00000000000E+00  0.12525980253E-10  0.17130000000E+03  0.17130000000E+03 0. -1.
       11    1    1    2    0    0  0.51124654016E-03 -0.29719281315E-02  0.24459463690E+00  0.24461375953E+00  0.51109989000E-03 0.  1.
     -623    1    1    2    0    0 -0.30988072011E-03  0.27973505554E-03  0.73318142191E-04  0.17130000000E+03  0.17130000000E+03 0. -1.
      622    1    1    2    0    0 -0.20136582004E-03  0.26921930759E-02  0.37553320123E+01  0.37553862399E+01  0.20000000000E-01 0.  1.
</event>
<event>
 5   0  0.3603037E+08  0.9118800E+02  0.7818608E-02  0.1180000E+00
       11   -1    0    0    0    0  0.00000000000E+00  0.00000000000E+00  0.39999999673E+01  0.40000000000E+01  0.51109989000E-03 0. -1.
     -623   -1    0    0    0    0  0.00000000000E+00  0.00000000000E+00  0.12525980253E-10  0.17130000000E+03  0.17130000000E+03 0.  1.
       11    1    1    2    0    0 -0.77100275581E-02  0.46229289041E-02  0.21087850382E+00  0.21107065308E+00  0.51109989000E-03 0. -1.
     -623    1    1    2    0    0 -0.67324593553E-02 -0.68908797370E-02  0.27337837515E-03  0.17130000027E+03  0.17130000000E+03 0.  1.
      622    1    1    2    0    0  0.14442486913E-01  0.22679508329E-02  0.37888480852E+01  0.37889290758E+01  0.20000000000E-01 0. -1.
</event>
<event>
 5   0  0.3603037E+08  0.9118800E+02  0.7818608E-02  0.1180000E+00
       11   -1    0    0    0    0  0.00000000000E+00  0.00000000000E+00  0.39999999673E+01  0.40000000000E+01  0.51109989000E-03 0. -1.
     -623   -1    0    0    0    0  0.00000000000E+00  0.00000000000E+00  0.12525980253E-10  0.17130000000E+03  0.17130000000E+03 0. -1.
       11    1    1    2    0    0 -0.45271925587E-03 -0.80261411827E-03  0.39313738846E-01  0.39327858156E-01  0.51109989000E-03 0. -1.
     -623    1    1    2    0    0  0.37056690278E-03  0.12590678000E-03  0.64642592810E-04  0.17130000000E+03  0.17130000000E+03 0. -1.
      622    1    1    2    0    0  0.82152353084E-04  0.67670733827E-03  0.39606215859E+01  0.39606721414E+01  0.20000000000E-01 0. -1.
</event>
<event>
 5   0  0.3603037E+08  0.9118800E+02  0.7818608E-02  0.1180000E+00
       11   -1    0    0    0    0  0.00000000000E+00  0.00000000000E+00  0.39999999673E+01  0.40000000000E+01  0.51109989000E-03 0. -1.
     -623   -1    0    0    0    0  0.00000000000E+00  0.00000000000E+00  0.12525980253E-10  0.17130000000E+03  0.17130000000E+03 0. -1.
       11    1    1    2    0    0 -0.21606930900E-02  0.60450325137E-03  0.13794895085E+01  0.13794914278E+01  0.51109989000E-03 0. -1.
     -623    1    1    2    0    0  0.21034758999E-02 -0.11753451245E-01  0.10234300089E-03  0.17130000042E+03  0.17130000000E+03 0. -1.
      622    1    1    2    0    0  0.57217190037E-04  0.11148947994E-01  0.26204081158E+01  0.26205081560E+01  0.20000000000E-01 0. -1.
</event>
<event>
 5   0  0.3603037E+08  0.9118800E+02  0.7818608E-02  0.1180000E+00
       11   -1    0    0    0    0  0.00000000000E+00  0.00000000000E+00  0.39999999673E+01  0.40000000000E+01  0.51109989000E-03 0.  1.
     -623   -1    0    0    0    0  0.00000000000E+00  0.00000000000E+00  0.12525980253E-10  0.17130000000E+03  0.17130000000E+03 0. -1.
       11    1    1    2    0    0  0.62049469664E-03  0.99271826316E-02  0.42079066245E+00  0.42090851357E+00  0.51109989000E-03 0.  1.
     -623    1    1    2    0    0 -0.78012473461E-03  0.15899394172E-02  0.19224259368E-03  0.17130000001E+03  0.17130000000E+03 0. -1.
      622    1    1    2    0    0  0.15963003797E-03 -0.11517122049E-01  0.35790170623E+01  0.35790914772E+01  0.20000000000E-01 0.  0.
</event>
<event>
 5   0  0.3603037E+08  0.9118800E+02  0.7818608E-02  0.1180000E+00
       11   -1    0    0    0    0  0.00000000000E+00  0.00000000000E+00  0.39999999673E+01  0.40000000000E+01  0.51109989000E-03 0.  1.
     -623   -1    0    0    0    0  0.00000000000E+00  0.00000000000E+00  0.12525980253E-10  0.17130000000E+03  0.17130000000E+03 0. -1.
       11    1    1    2    0    0 -0.40593877754E-02 -0.13317556962E-02  0.36685930421E+00  0.36688453566E+00  0.51109989000E-03 0.  1.
     -623    1    1    2    0    0  0.21345536584E-02 -0.21990487504E-02  0.82501449080E-04  0.17130000003E+03  0.17130000000E+03 0. -1.
      622    1    1    2    0    0  0.19248341171E-02  0.35308044466E-02  0.36330581617E+01  0.36331154369E+01  0.20000000000E-01 0.  1.
</event>
<event>
 5   0  0.3603037E+08  0.9118800E+02  0.7818608E-02  0.1180000E+00
       11   -1    0    0    0    0  0.00000000000E+00  0.00000000000E+00  0.39999999673E+01  0.40000000000E+01  0.51109989000E-03 0. -1.
     -623   -1    0    0    0    0  0.00000000000E+00  0.00000000000E+00  0.12525980253E-10  0.17130000000E+03  0.17130000000E+03 0.  1.
       11    1    1    2    0    0  0.14180639517E-01 -0.22704423663E-01  0.99667168604E+00  0.99703123941E+00  0.51109989000E-03 0. -1.
     -623    1    1    2    0    0  0.83716220585E-02  0.11789174268E-01  0.53125856483E-03  0.17130000061E+03  0.17130000000E+03 0.  1.
      622    1    1    2    0    0 -0.22552261575E-01  0.10915249395E-01  0.30027970228E+01  0.30029681495E+01  0.20000000000E-01 0. -1.
</event>
<event>
 5   0  0.3603037E+08  0.9118800E+02  0.7818608E-02  0.1180000E+00
       11   -1    0    0    0    0  0.00000000000E+00  0.00000000000E+00  0.39999999673E+01  0.40000000000E+01  0.51109989000E-03 0.  1.
     -623   -1    0    0    0    0  0.00000000000E+00  0.00000000000E+00  0.12525980253E-10  0.17130000000E+03  0.17130000000E+03 0. -1.
       11    1    1    2    0    0 -0.14526994743E-03  0.45343150565E-04  0.96278247954E+00  0.96278262722E+00  0.51109989000E-03 0.  1.
     -623    1    1    2    0    0 -0.86095036190E-03 -0.12459258230E-02  0.66376192951E-04  0.17130000001E+03  0.17130000000E+03 0. -1.
      622    1    1    2    0    0  0.10062203093E-02  0.12005826725E-02  0.30371511116E+01  0.30372173661E+01  0.20000000000E-01 0.  1.
</event>
<event>
 5   0  0.3603037E+08  0.9118800E+02  0.7818608E-02  0.1180000E+00
       11   -1    0    0    0    0  0.00000000000E+00  0.00000000000E+00  0.39999999673E+01  0.40000000000E+01  0.51109989000E-03 0.  1.
     -623   -1    0    0    0    0  0.00000000000E+00  0.00000000000E+00  0.12525980253E-10  0.17130000000E+03  0.17130000000E+03 0.  1.
       11    1    1    2    0    0  0.56015866855E-01  0.59290966705E-02  0.10069689519E+01  0.10085433371E+01  0.51109989000E-03 0.  1.
     -623    1    1    2    0    0 -0.43075231958E-02 -0.59365239223E-02  0.20883216874E-02  0.17130000017E+03  0.17130000000E+03 0.  1.
      622    1    1    2    0    0 -0.51708343659E-01  0.74272517525E-05  0.29909426938E+01  0.29914564931E+01  0.20000000000E-01 0.  1.
</event>
<event>
 5   0  0.3603037E+08  0.9118800E+02  0.7818608E-02  0.1180000E+00
       11   -1    0    0    0    0  0.00000000000E+00  0.00000000000E+00  0.39999999673E+01  0.40000000000E+01  0.51109989000E-03 0.  1.
     -623   -1    0    0    0    0  0.00000000000E+00  0.00000000000E+00  0.12525980253E-10  0.17130000000E+03  0.17130000000E+03 0.  1.
       11    1    1    2    0    0 -0.57747811798E-03  0.94281977153E-03  0.47077518087E-02  0.48627706354E-02  0.51109989000E-03 0.  1.
     -623    1    1    2    0    0 -0.22407170707E-03  0.77295750921E-06  0.20523947036E-03  0.17130000000E+03  0.17130000000E+03 0.  1.
      622    1    1    2    0    0  0.80154982505E-03 -0.94359272904E-03  0.39950869761E+01  0.39951372291E+01  0.20000000000E-01 0.  1.
</event>
<event>
 5   0  0.3603037E+08  0.9118800E+02  0.7818608E-02  0.1180000E+00
       11   -1    0    0    0    0  0.00000000000E+00  0.00000000000E+00  0.39999999673E+01  0.40000000000E+01  0.51109989000E-03 0. -1.
     -623   -1    0    0    0    0  0.00000000000E+00  0.00000000000E+00  0.12525980253E-10  0.17130000000E+03  0.17130000000E+03 0. -1.
       11    1    1    2    0    0 -0.15100583141E-01  0.20979038081E-01  0.15456341899E+01  0.15458503996E+01  0.51109989000E-03 0. -1.
     -623    1    1    2    0    0 -0.91260630205E-02  0.36215769432E-03  0.51030383187E-03  0.17130000024E+03  0.17130000000E+03 0. -1.
      622    1    1    2    0    0  0.24226646161E-01 -0.21341195775E-01  0.24538554736E+01  0.24541493562E+01  0.20000000000E-01 0.  0.
</event>
<event>
 5   0  0.3603037E+08  0.9118800E+02  0.7818608E-02  0.1180000E+00
       11   -1    0    0    0    0  0.00000000000E+00  0.00000000000E+00  0.39999999673E+01  0.40000000000E+01  0.51109989000E-03 0.  1.
     -623   -1    0    0    0    0  0.00000000000E+00  0.00000000000E+00  0.12525980253E-10  0.17130000000E+03  0.17130000000E+03 0.  1.
       11    1    1    2    0    0 -0.33562499336E-02 -0.97815063381E-03  0.13668444541E+01  0.13668490202E+01  0.51109989000E-03 0.  1.
     -623    1    1    2    0    0 -0.51098811097E-02 -0.56129895952E-03  0.94627026562E-04  0.17130000008E+03  0.17130000000E+03 0.  1.
      622    1    1    2    0    0  0.84661310434E-02  0.15394495933E-02  0.26330608863E+01  0.26331509026E+01  0.20000000000E-01 0.  1.
</event>
<event>
 5   0  0.3603037E+08  0.9118800E+02  0.7818608E-02  0.1180000E+00
       11   -1    0    0    0    0  0.00000000000E+00  0.00000000000E+00  0.39999999673E+01  0.40000000000E+01  0.51109989000E-03 0. -1.
     -623   -1    0    0    0    0  0.00000000000E+00  0.00000000000E+00  0.12525980253E-10  0.17130000000E+03  0.17130000000E+03 0. -1.
       11    1    1    2    0    0 -0.17847084750E-02  0.52624023870E-02  0.71438143841E-01  0.71655758175E-01  0.51109989000E-03 0. -1.
     -623    1    1    2    0    0 -0.99948366679E-03 -0.58235474883E-02  0.26962290962E-03  0.17130000010E+03  0.17130000000E+03 0. -1.
      622    1    1    2    0    0  0.27841921418E-02  0.56114510125E-03  0.39282922006E+01  0.39283441397E+01  0.20000000000E-01 0. -1.
</event>
<event>
 5   0  0.3603037E+08  0.9118800E+02  0.7818608E-02  0.1180000E+00
       11   -1    0    0    0    0  0.00000000000E+00  0.00000000000E+00  0.39999999673E+01  0.40000000000E+01  0.51109989000E-03 0. -1.
     -623   -1    0    0    0    0  0.00000000000E+00  0.00000000000E+00  0.12525980253E-10  0.17130000000E+03  0.17130000000E+03 0.  1.
       11    1    1    2    0    0  0.79304417682E-03  0.11202134622E-02  0.56704193970E-01  0.56723104925E-01  0.51109989000E-03 0. -1.
     -623    1    1    2    0    0 -0.26028662446E-03  0.85899493600E-03  0.70132942698E-04  0.17130000000E+03  0.17130000000E+03 0.  1.
      622    1    1    2    0    0 -0.53275755235E-03 -0.19792083982E-02  0.39432256404E+01  0.39432768927E+01  0.20000000000E-01 0. -1.
</event>
<event>
 5   0  0.3603037E+08  0.9118800E+02  0.7818608E-02  0.1180000E+00
       11   -1    0    0    0    0  0.00000000000E+00  0.00000000000E+00  0.39999999673E+01  0.40000000000E+01  0.51109989000E-03 0. -1.
     -623   -1    0    0    0    0  0.00000000000E+00  0.00000000000E+00  0.12525980253E-10  0.17130000000E+03  0.17130000000E+03 0.  1.
       11    1    1    2    0    0  0.10248496679E-02 -0.71429324041E-03  0.41888723336E-01  0.41910462844E-01  0.51109989000E-03 0. -1.
     -623    1    1    2    0    0 -0.91650404472E-03  0.11777398921E-02  0.72271749841E-04  0.17130000001E+03  0.17130000000E+03 0.  1.
      622    1    1    2    0    0 -0.10834562320E-03 -0.46344665172E-03  0.39580389723E+01  0.39580895306E+01  0.20000000000E-01 0. -1.
</event>
<event>
 5   0  0.3603037E+08  0.9118800E+02  0.7818608E-02  0.1180000E+00
       11   -1    0    0    0    0  0.00000000000E+00  0.00000000000E+00  0.39999999673E+01  0.40000000000E+01  0.51109989000E-03 0.  1.
     -623   -1    0    0    0    0  0.00000000000E+00  0.00000000000E+00  0.12525980253E-10  0.17130000000E+03  0.17130000000E+03 0. -1.
       11    1    1    2    0    0 -0.91469835939E-03 -0.19977549813E-02  0.33359956988E-01  0.33436142860E-01  0.51109989000E-03 0.  1.
     -623    1    1    2    0    0 -0.42952265680E-03  0.45018462758E-03  0.12710587688E-03  0.17130000000E+03  0.17130000000E+03 0. -1.
      622    1    1    2    0    0  0.13442210162E-02  0.15475703538E-02  0.39665129045E+01  0.39665638560E+01  0.20000000000E-01 0.  1.
</event>
<event>
 5   0  0.3603037E+08  0.9118800E+02  0.7818608E-02  0.1180000E+00
       11   -1    0    0    0    0  0.00000000000E+00  0.00000000000E+00  0.39999999673E+01  0.40000000000E+01  0.51109989000E-03 0.  1.
     -623   -1    0    0    0    0  0.00000000000E+00  0.00000000000E+00  0.12525980253E-10  0.17130000000E+03  0.17130000000E+03 0.  1.
       11    1    1    2    0    0  0.14059539621E-03  0.21808903211E-02  0.69988675412E+00  0.69989035274E+00  0.51109989000E-03 0.  1.
     -623    1    1    2    0    0 -0.11270780855E-02 -0.24056305183E-03  0.64892347290E-04  0.17130000000E+03  0.17130000000E+03 0.  1.
      622    1    1    2    0    0  0.98648268928E-03 -0.19403272693E-02  0.33000483209E+01  0.33001096434E+01  0.20000000000E-01 0.  1.
</event>
<event>
 5   0  0.3603037E+08  0.9118800E+02  0.7818608E-02  0.1180000E+00
       11   -1    0    0    0    0  0.00000000000E+00  0.00000000000E+00  0.39999999673E+01  0.40000000000E+01  0.51109989000E-03 0. -1.
     -623   -1    0    0    0    0  0.00000000000E+00  0.00000000000E+00  0.12525980253E-10  0.17130000000E+03  0.17130000000E+03 0. -1.
       11    1    1    2    0    0 -0.42949626970E-03  0.97496750706E-03  0.31547012553E-01  0.31569134463E-01  0.51109989000E-03 0. -1.
     -623    1    1    2    0    0 -0.13692390234E-02 -0.80805378769E-03  0.72905900624E-04  0.17130000001E+03  0.17130000000E+03 0. -1.
      622    1    1    2    0    0  0.17987352931E-02 -0.16691371938E-03  0.39683800489E+01  0.39684308581E+01  0.20000000000E-01 0. -1.
</event>
<event>
 5   0  0.3603037E+08  0.9118800E+02  0.7818608E-02  0.1180000E+00
       11   -1    0    0    0    0  0.00000000000E+00  0.00000000000E+00  0.39999999673E+01  0.40000000000E+01  0.51109989000E-03 0.  1.
     -623   -1    0    0    0    0  0.00000000000E+00  0.00000000000E+00  0.12525980253E-10  0.17130000000E+03  0.17130000000E+03 0.  1.
       11    1    1    2    0    0 -0.21395227803E-02 -0.28646939799E-02  0.56151100536E+00  0.56152262144E+00  0.51109989000E-03 0.  1.
     -623    1    1    2    0    0 -0.48756320676E-03 -0.56349492186E-04  0.71994289801E-04  0.17130000000E+03  0.17130000000E+03 0.  1.
      622    1    1    2    0    0  0.26270859871E-02  0.29210434721E-02  0.34384169677E+01  0.34384773778E+01  0.20000000000E-01 0.  1.
</event>
<event>
 5   0  0.3603037E+08  0.9118800E+02  0.7818608E-02  0.1180000E+00
       11   -1    0    0    0    0  0.00000000000E+00  0.00000000000E+00  0.39999999673E+01  0.40000000000E+01  0.51109989000E-03 0.  1.
     -623   -1    0    0    0    0  0.00000000000E+00  0.00000000000E+00  0.12525980253E-10  0.17130000000E+03  0.17130000000E+03 0. -1.
       11    1    1    2    0    0 -0.72239739662E-03 -0.24215982444E-02  0.64810011347E-01  0.64861273407E-01  0.51109989000E-03 0.  1.
     -623    1    1    2    0    0  0.63899901808E-03 -0.58369751504E-03  0.10320457721E-03  0.17130000000E+03  0.17130000000E+03 0. -1.
      622    1    1    2    0    0  0.83398378530E-04  0.30052957595E-02  0.39350867514E+01  0.39351387244E+01  0.20000000000E-01 0.  1.
</event>
<event>
 5   0  0.3603037E+08  0.9118800E+02  0.7818608E-02  0.1180000E+00
       11   -1    0    0    0    0  0.00000000000E+00  0.00000000000E+00  0.39999999673E+01  0.40000000000E+01  0.51109989000E-03 0.  1.
     -623   -1    0    0    0    0  0.00000000000E+00  0.00000000000E+00  0.12525980253E-10  0.17130000000E+03  0.17130000000E+03 0.  1.
       11    1    1    2    0    0 -0.15375197162E-02 -0.12316813369E-03  0.27041607507E-01  0.27090383829E-01  0.51109989000E-03 0.  1.
     -623    1    1    2    0    0 -0.16230784142E-03  0.88191807737E-03  0.99523413843E-04  0.17130000000E+03  0.17130000000E+03 0.  1.
      622    1    1    2    0    0  0.16998275576E-02 -0.75874994367E-03  0.39728588364E+01  0.39729096138E+01  0.20000000000E-01 0.  1.
</event>
<event>
 5   0  0.3603037E+08  0.9118800E+02  0.7818608E-02  0.1180000E+00
       11   -1    0    0    0    0  0.00000000000E+00  0.00000000000E+00  0.39999999673E+01  0.40000000000E+01  0.51109989000E-03 0. -1.
     -623   -1    0    0    0    0  0.00000000000E+00  0.00000000000E+00  0.12525980253E-10  0.17130000000E+03  0.17130000000E+03 0. -1.
       11    1    1    2    0    0  0.98541127325E-02  0.19212239256E-02  0.14443236562E+01  0.14443586396E+01  0.51109989000E-03 0. -1.
     -623    1    1    2    0    0 -0.20611252026E-03  0.36188367024E-02  0.13746570439E-03  0.17130000004E+03  0.17130000000E+03 0. -1.
      622    1    1    2    0    0 -0.96480002123E-02 -0.55400606280E-02  0.25555388454E+01  0.25556413220E+01  0.20000000000E-01 0. -1.
</event>
<event>
 5   0  0.3603037E+08  0.9118800E+02  0.7818608E-02  0.1180000E+00
       11   -1    0    0    0    0  0.00000000000E+00  0.00000000000E+00  0.39999999673E+01  0.40000000000E+01  0.51109989000E-03 0. -1.
     -623   -1    0    0    0    0  0.00000000000E+00  0.00000000000E+00  0.12525980253E-10  0.17130000000E+03  0.17130000000E+03 0.  1.
       11    1    1    2    0    0  0.64655058156E-02 -0.45196150480E-02  0.87031760435E+00  0.87035350482E+00  0.51109989000E-03 0. -1.
     -623    1    1    2    0    0 -0.80999857298E-02 -0.25007807027E-02  0.10828429557E-03  0.17130000021E+03  0.17130000000E+03 0.  1.
      622    1    1    2    0    0  0.16344799142E-02  0.70203957507E-02  0.31295740787E+01  0.31296462854E+01  0.20000000000E-01 0. -1.
</event>
<event>
 5   0  0.3603037E+08  0.9118800E+02  0.7818608E-02  0.1180000E+00
       11   -1    0    0    0    0  0.00000000000E+00  0.00000000000E+00  0.39999999673E+01  0.40000000000E+01  0.51109989000E-03 0. -1.
     -623   -1    0    0    0    0  0.00000000000E+00  0.00000000000E+00  0.12525980253E-10  0.17130000000E+03  0.17130000000E+03 0.  1.
       11    1    1    2    0    0 -0.28225813527E-03  0.44080266456E-02  0.37506055728E+00  0.37508691421E+00  0.51109989000E-03 0. -1.
     -623    1    1    2    0    0  0.51676527206E-03 -0.87002297732E-03  0.83235666041E-04  0.17130000000E+03  0.17130000000E+03 0.  1.
      622    1    1    2    0    0 -0.23450713679E-03 -0.35380036683E-02  0.36248561744E+01  0.36249130828E+01  0.20000000000E-01 0. -1.
</event>
<event>
 5   0  0.3603037E+08  0.9118800E+02  0.7818608E-02  0.1180000E+00
       11   -1    0    0    0    0  0.00000000000E+00  0.00000000000E+00  0.39999999673E+01  0.40000000000E+01  0.51109989000E-03 0. -1.
     -623   -1    0    0    0    0  0.00000000000E+00  0.00000000000E+00  0.12525980253E-10  0.17130000000E+03  0.17130000000E+03 0.  1.
       11    1    1    2    0    0  0.17212013119E-02  0.18074813799E-02  0.70111247123E+00  0.70111710010E+00  0.51109989000E-03 0. -1.
     -623    1    1    2    0    0 -0.13987229162E-03  0.33784703849E-03  0.66300380642E-04  0.17130000000E+03  0.17130000000E+03 0.  1.
      622    1    1    2    0    0 -0.15813290203E-02 -0.21453284184E-02  0.32988211958E+01  0.32988828995E+01  0.20000000000E-01 0. -1.
</event>
<event>
 5   0  0.3603037E+08  0.9118800E+02  0.7818608E-02  0.1180000E+00
       11   -1    0    0    0    0  0.00000000000E+00  0.00000000000E+00  0.39999999673E+01  0.40000000000E+01  0.51109989000E-03 0.  1.
     -623   -1    0    0    0    0  0.00000000000E+00  0.00000000000E+00  0.12525980253E-10  0.17130000000E+03  0.17130000000E+03 0. -1.
       11    1    1    2    0    0 -0.34595370298E-02 -0.60778074485E-02  0.93993444420E+00  0.93996059957E+00  0.51109989000E-03 0.  1.
     -623    1    1    2    0    0 -0.21241525113E-02  0.19673184930E-02  0.99361823013E-04  0.17130000002E+03  0.17130000000E+03 0. -1.
      622    1    1    2    0    0  0.55836895412E-02  0.41104889555E-02  0.30599661613E+01  0.30600393759E+01  0.20000000000E-01 0.  1.
</event>
<event>
 5   0  0.3603037E+08  0.9118800E+02  0.7818608E-02  0.1180000E+00
       11   -1    0    0    0    0  0.00000000000E+00  0.00000000000E+00  0.39999999673E+01  0.40000000000E+01  0.51109989000E-03 0. -1.
     -623   -1    0    0    0    0  0.00000000000E+00  0.00000000000E+00  0.12525980253E-10  0.17130000000E+03  0.17130000000E+03 0. -1.
       11    1    1    2    0    0 -0.56394467742E-02  0.82045856192E-03  0.56473459957E+00  0.56476358389E+00  0.51109989000E-03 0. -1.
     -623    1    1    2    0    0  0.44520405265E-03 -0.91771268480E-03  0.91103805900E-04  0.17130000000E+03  0.17130000000E+03 0. -1.
      622    1    1    2    0    0  0.51942427216E-02  0.97254122887E-04  0.34351742640E+01  0.34352364130E+01  0.20000000000E-01 0. -1.
</event>
<event>
 5   0  0.3603037E+08  0.9118800E+02  0.7818608E-02  0.1180000E+00
       11   -1    0    0    0    0  0.00000000000E+00  0.00000000000E+00  0.39999999673E+01  0.40000000000E+01  0.51109989000E-03 0.  1.
     -623   -1    0    0    0    0  0.00000000000E+00  0.00000000000E+00  0.12525980253E-10  0.17130000000E+03  0.17130000000E+03 0. -1.
       11    1    1    2    0    0  0.11631478629E-02  0.49918313265E-02  0.39228075503E+00  0.39231457184E+00  0.51109989000E-03 0.  1.
     -623    1    1    2    0    0  0.29663269078E-03  0.20177098516E-04  0.92998973108E-04  0.17130000000E+03  0.17130000000E+03 0. -1.
      622    1    1    2    0    0 -0.14597805537E-02 -0.50120084250E-02  0.36076262134E+01  0.36076854279E+01  0.20000000000E-01 0.  1.
</event>
<event>
 5   0  0.3603037E+08  0.9118800E+02  0.7818608E-02  0.1180000E+00
       11   -1    0    0    0    0  0.00000000000E+00  0.00000000000E+00  0.39999999673E+01  0.40000000000E+01  0.51109989000E-03 0.  1.
     -623   -1    0    0    0    0  0.00000000000E+00  0.00000000000E+00  0.12525980253E-10  0.17130000000E+03  0.17130000000E+03 0. -1.
       11    1    1    2    0    0  0.88112842606E-02 -0.25407627491E-01  0.22562405935E+01  0.22564009092E+01  0.51109989000E-03 0.  1.
     -623    1    1    2    0    0 -0.11297789937E-01  0.29794173107E-01  0.28524750400E-03  0.17130000296E+03  0.17130000000E+03 0. -1.
      622    1    1    2    0    0  0.24865056767E-02 -0.43865456153E-02  0.17434741264E+01  0.17435961269E+01  0.20000000000E-01 0. -1.
</event>
<event>
 5   0  0.3603037E+08  0.9118800E+02  0.7818608E-02  0.1180000E+00
       11   -1    0    0    0    0  0.00000000000E+00  0.00000000000E+00  0.39999999673E+01  0.40000000000E+01  0.51109989000E-03 0. -1.
     -623   -1    0    0    0    0  0.00000000000E+00  0.00000000000E+00  0.12525980253E-10  0.17130000000E+03  0.17130000000E+03 0. -1.
       11    1    1    2    0    0  0.86605938742E-02 -0.26731897672E-01  0.32369350460E+00  0.32491129002E+00  0.51109989000E-03 0. -1.
     -623    1    1    2    0    0 -0.17914155040E-01  0.25551212759E-01  0.12868605386E-02  0.17130000285E+03  0.17130000000E+03 0. -1.
      622    1    1    2    0    0  0.92535611655E-02  0.11806849136E-02  0.36750196022E+01  0.36750858628E+01  0.20000000000E-01 0. -1.
</event>
<event>
 5   0  0.3603037E+08  0.9118800E+02  0.7818608E-02  0.1180000E+00
       11   -1    0    0    0    0  0.00000000000E+00  0.00000000000E+00  0.39999999673E+01  0.40000000000E+01  0.51109989000E-03 0. -1.
     -623   -1    0    0    0    0  0.00000000000E+00  0.00000000000E+00  0.12525980253E-10  0.17130000000E+03  0.17130000000E+03 0. -1.
       11    1    1    2    0    0  0.11375485984E-02 -0.52666218693E-03  0.95866101717E-01  0.95875659425E-01  0.51109989000E-03 0. -1.
     -623    1    1    2    0    0  0.64103184648E-03  0.27925959644E-03  0.61167691437E-04  0.17130000000E+03  0.17130000000E+03 0. -1.
      622    1    1    2    0    0 -0.17785804448E-02  0.24740259049E-03  0.39040726980E+01  0.39041243391E+01  0.20000000000E-01 0. -1.
</event>
<event>
 5   0  0.3603037E+08  0.9118800E+02  0.7818608E-02  0.1180000E+00
       11   -1    0    0    0    0  0.00000000000E+00  0.00000000000E+00  0.39999999673E+01  0.40000000000E+01  0.51109989000E-03 0. -1.
     -623   -1    0    0    0    0  0.00000000000E+00  0.00000000000E+00  0.12525980253E-10  0.17130000000E+03  0.17130000000E+03 0. -1.
       11    1    1    2    0    0 -0.81016630494E-03  0.27757439729E-02  0.27601520481E+00  0.27603082370E+00  0.51109989000E-03 0. -1.
     -623    1    1    2    0    0  0.27725121934E-03 -0.12937313034E-03  0.70271504971E-04  0.17130000000E+03  0.17130000000E+03 0. -1.
      622    1    1    2    0    0  0.53291508560E-03 -0.26463708426E-02  0.37239144910E+01  0.37239691760E+01  0.20000000000E-01 0. -1.
</event>
<event>
 5   0  0.3603037E+08  0.9118800E+02  0.7818608E-02  0.1180000E+00
       11   -1    0    0    0    0  0.00000000000E+00  0.00000000000E+00  0.39999999673E+01  0.40000000000E+01  0.51109989000E-03 0. -1.
     -623   -1    0    0    0    0  0.00000000000E+00  0.00000000000E+00  0.12525980253E-10  0.17130000000E+03  0.17130000000E+03 0.  1.
       11    1    1    2    0    0  0.37489899881E-03 -0.47968843511E-03  0.63728152738E+00  0.63728202314E+00  0.51109989000E-03 0. -1.
     -623    1    1    2    0    0  0.36194799508E-03  0.40619128878E-03  0.60021749079E-04  0.17130000000E+03  0.17130000000E+03 0.  1.
      622    1    1    2    0    0 -0.73684699389E-03  0.73497146330E-04  0.33626584182E+01  0.33627179760E+01  0.20000000000E-01 0. -1.
</event>
<event>
 5   0  0.3603037E+08  0.9118800E+02  0.7818608E-02  0.1180000E+00
       11   -1    0    0    0    0  0.00000000000E+00  0.00000000000E+00  0.39999999673E+01  0.40000000000E+01  0.51109989000E-03 0. -1.
     -623   -1    0    0    0    0  0.00000000000E+00  0.00000000000E+00  0.12525980253E-10  0.17130000000E+03  0.17130000000E+03 0.  1.
       11    1    1    2    0    0  0.25188133520E-02 -0.50792093335E-02  0.12801516051E+00  0.12814166118E+00  0.51109989000E-03 0. -1.
     -623    1    1    2    0    0 -0.30041651073E-02 -0.12636349076E-03  0.18167946257E-03  0.17130000003E+03  0.17130000000E+03 0.  1.
      622    1    1    2    0    0  0.48535175530E-03  0.52055728242E-02  0.38718031274E+01  0.38718583123E+01  0.20000000000E-01 0. -1.
</event>
<event>
 5   0  0.3603037E+08  0.9118800E+02  0.7818608E-02  0.1180000E+00
       11   -1    0    0    0    0  0.00000000000E+00  0.00000000000E+00  0.39999999673E+01  0.40000000000E+01  0.51109989000E-03 0. -1.
     -623   -1    0    0    0    0  0.00000000000E+00  0.00000000000E+00  0.12525980253E-10  0.17130000000E+03  0.17130000000E+03 0.  1.
       11    1    1    2    0    0 -0.11956817982E-01 -0.14016685644E-01  0.11038895792E+01  0.11040434309E+01  0.51109989000E-03 0. -1.
     -623    1    1    2    0    0  0.16010819218E-01 -0.99836127461E-03  0.26539715545E-03  0.17130000075E+03  0.17130000000E+03 0.  1.
      622    1    1    2    0    0 -0.40540012369E-02  0.15015046919E-01  0.28958449910E+01  0.28959558177E+01  0.20000000000E-01 0. -1.
</event>
<event>
 5   0  0.3603037E+08  0.9118800E+02  0.7818608E-02  0.1180000E+00
       11   -1    0    0    0    0  0.00000000000E+00  0.00000000000E+00  0.39999999673E+01  0.40000000000E+01  0.51109989000E-03 0.  1.
     -623   -1    0    0    0    0  0.00000000000E+00  0.00000000000E+00  0.12525980253E-10  0.17130000000E+03  0.17130000000E+03 0.  1.
       11    1    1    2    0    0  0.11935782676E-03  0.66888364144E-02  0.19960728631E-01  0.21058173926E-01  0.51109989000E-03 0.  1.
     -623    1    1    2    0    0 -0.20014706095E-02 -0.47164374783E-02  0.11486920839E-02  0.17130000008E+03  0.17130000000E+03 0.  1.
      622    1    1    2    0    0  0.18821127827E-02 -0.19723989360E-02  0.39788905466E+01  0.39789417456E+01  0.20000000000E-01 0.  1.
</event>
<event>
 5   0  0.3603037E+08  0.9118800E+02  0.7818608E-02  0.1180000E+00
       11   -1    0    0    0    0  0.00000000000E+00  0.00000000000E+00  0.39999999673E+01  0.40000000000E+01  0.51109989000E-03 0. -1.
     -623   -1    0    0    0    0  0.00000000000E+00  0.00000000000E+00  0.12525980253E-10  0.17130000000E+03  0.17130000000E+03 0. -1.
       11    1    1    2    0    0  0.81284364207E-04 -0.17265547738E-03  0.20785120273E-01  0.20792278964E-01  0.51109989000E-03 0. -1.
     -623    1    1    2    0    0  0.14154517417E-03  0.30623379513E-04  0.57396474786E-04  0.17130000000E+03  0.17130000000E+03 0. -1.
      622    1    1    2    0    0 -0.22282953837E-03  0.14203209787E-03  0.39791574506E+01  0.39792077210E+01  0.20000000000E-01 0. -1.
</event>
<event>
 5   0  0.3603037E+08  0.9118800E+02  0.7818608E-02  0.1180000E+00
       11   -1    0    0    0    0  0.00000000000E+00  0.00000000000E+00  0.39999999673E+01  0.40000000000E+01  0.51109989000E-03 0.  1.
     -623   -1    0    0    0    0  0.00000000000E+00  0.00000000000E+00  0.12525980253E-10  0.17130000000E+03  0.17130000000E+03 0. -1.
       11    1    1    2    0    0  0.26870885012E-02  0.20925398834E-03  0.20224327615E+00  0.20226188025E+00  0.51109989000E-03 0.  1.
     -623    1    1    2    0    0  0.20799922385E-02  0.65145619620E-02  0.80315515525E-04  0.17130000014E+03  0.17130000000E+03 0. -1.
      622    1    1    2    0    0 -0.47670807397E-02 -0.67238159503E-02  0.37976763757E+01  0.37977379832E+01  0.20000000000E-01 0.  1.
</event>
<event>
 5   0  0.3603037E+08  0.9118800E+02  0.7818608E-02  0.1180000E+00
       11   -1    0    0    0    0  0.00000000000E+00  0.00000000000E+00  0.39999999673E+01  0.40000000000E+01  0.51109989000E-03 0. -1.
     -623   -1    0    0    0    0  0.00000000000E+00  0.00000000000E+00  0.12525980253E-10  0.17130000000E+03  0.17130000000E+03 0.  1.
       11    1    1    2    0    0  0.12980203214E-02  0.11245361725E-02  0.11853176249E-01  0.11987845806E-01  0.51109989000E-03 0. -1.
     -623    1    1    2    0    0 -0.18433378839E-02 -0.31648922953E-02  0.18538602236E-03  0.17130000004E+03  0.17130000000E+03 0.  1.
      622    1    1    2    0    0  0.54531756247E-03  0.20403561228E-02  0.39879614051E+01  0.39880121149E+01  0.20000000000E-01 0. -1.
</event>
<event>
 5   0  0.3603037E+08  0.9118800E+02  0.7818608E-02  0.1180000E+00
       11   -1    0    0    0    0  0.00000000000E+00  0.00000000000E+00  0.39999999673E+01  0.40000000000E+01  0.51109989000E-03 0. -1.
     -623   -1    0    0    0    0  0.00000000000E+00  0.00000000000E+00  0.12525980253E-10  0.17130000000E+03  0.17130000000E+03 0.  1.
       11    1    1    2    0    0 -0.21368517556E-02 -0.79025211679E-03  0.10165233047E+00  0.10167914312E+00  0.51109989000E-03 0. -1.
     -623    1    1    2    0    0  0.52585973204E-03 -0.30103073113E-03  0.78571203400E-04  0.17130000000E+03  0.17130000000E+03 0.  1.
      622    1    1    2    0    0  0.16109920236E-02  0.10912828479E-02  0.38982690657E+01  0.38983208558E+01  0.20000000000E-01 0. -1.
</event>
<event>
 5   0  0.3603037E+08  0.9118800E+02  0.7818608E-02  0.1180000E+00
       11   -1    0    0    0    0  0.00000000000E+00  0.00000000000E+00  0.39999999673E+01  0.40000000000E+01  0.51109989000E-03 0.  1.
     -623   -1    0    0    0    0  0.00000000000E+00  0.00000000000E+00  0.12525980253E-10  0.17130000000E+03  0.17130000000E+03 0.  1.
       11    1    1    2    0    0  0.51151963081E-01 -0.16684613002E-01  0.92600207406E+00  0.92756401505E+00  0.51109989000E-03 0.  1.
     -623    1    1    2    0    0 -0.28827145203E-02 -0.18088672250E-02  0.20619127766E-02  0.17130000005E+03  0.17130000000E+03 0.  1.
      622    1    1    2    0    0 -0.48269248561E-01  0.18493480227E-01  0.30719359805E+01  0.30724359387E+01  0.20000000000E-01 0.  1.
</event>
<event>
 5   0  0.3603037E+08  0.9118800E+02  0.7818608E-02  0.1180000E+00
       11   -1    0    0    0    0  0.00000000000E+00  0.00000000000E+00  0.39999999673E+01  0.40000000000E+01  0.51109989000E-03 0.  1.
     -623   -1    0    0    0    0  0.00000000000E+00  0.00000000000E+00  0.12525980253E-10  0.17130000000E+03  0.17130000000E+03 0. -1.
       11    1    1    2    0    0 -0.39618500561E-02 -0.52817161190E-05  0.71638397503E+00  0.71639511248E+00  0.51109989000E-03 0.  1.
     -623    1    1    2    0    0  0.48574284576E-03  0.18670172217E-03  0.73859842835E-04  0.17130000000E+03  0.17130000000E+03 0. -1.
      622    1    1    2    0    0  0.34761072103E-02 -0.18142000605E-03  0.32835421325E+01  0.32836048867E+01  0.20000000000E-01 0.  1.
</event>
<event>
 5   0  0.3603037E+08  0.9118800E+02  0.7818608E-02  0.1180000E+00
       11   -1    0    0    0    0  0.00000000000E+00  0.00000000000E+00  0.39999999673E+01  0.40000000000E+01  0.51109989000E-03 0. -1.
     -623   -1    0    0    0    0  0.00000000000E+00  0.00000000000E+00  0.12525980253E-10  0.17130000000E+03  0.17130000000E+03 0. -1.
       11    1    1    2    0    0 -0.72269020962E-03 -0.15685469250E-02  0.40662341621E-01  0.40702209620E-01  0.51109989000E-03 0. -1.
     -623    1    1    2    0    0  0.26595133843E-04 -0.63539976874E-04  0.90747309996E-04  0.17130000000E+03  0.17130000000E+03 0. -1.
      622    1    1    2    0    0  0.69609507578E-03  0.16320869018E-02  0.39592468784E+01  0.39592977903E+01  0.20000000000E-01 0. -1.
</event>
<event>
 5   0  0.3603037E+08  0.9118800E+02  0.7818608E-02  0.1180000E+00
       11   -1    0    0    0    0  0.00000000000E+00  0.00000000000E+00  0.39999999673E+01  0.40000000000E+01  0.51109989000E-03 0. -1.
     -623   -1    0    0    0    0  0.00000000000E+00  0.00000000000E+00  0.12525980253E-10  0.17130000000E+03  0.17130000000E+03 0.  1.
       11    1    1    2    0    0 -0.12260064236E-03 -0.10457944950E-02  0.12676688288E+00  0.12677228614E+00  0.51109989000E-03 0. -1.
     -623    1    1    2    0    0  0.18134056333E-02  0.14727612190E-02  0.57416017060E-04  0.17130000002E+03  0.17130000000E+03 0.  1.
      622    1    1    2    0    0 -0.16908049910E-02 -0.42696672394E-03  0.38731756685E+01  0.38732276979E+01  0.20000000000E-01 0. -1.
</event>
<event>
 5   0  0.3603037E+08  0.9118800E+02  0.7818608E-02  0.1180000E+00
       11   -1    0    0    0    0  0.00000000000E+00  0.00000000000E+00  0.39999999673E+01  0.40000000000E+01  0.51109989000E-03 0.  1.
     -623   -1    0    0    0    0  0.00000000000E+00  0.00000000000E+00  0.12525980253E-10  0.17130000000E+03  0.17130000000E+03 0.  1.
       11    1    1    2    0    0  0.64457423707E-02  0.61126335989E-02  0.12173125991E+01  0.12173451183E+01  0.51109989000E-03 0.  1.
     -623    1    1    2    0    0  0.27297855256E-03 -0.26923175197E-03  0.11860872997E-03  0.17130000000E+03  0.17130000000E+03 0.  1.
      622    1    1    2    0    0 -0.67187209232E-02 -0.58434018470E-02  0.27825687595E+01  0.27826548812E+01  0.20000000000E-01 0.  1.
</event>
<event>
 5   0  0.3603037E+08  0.9118800E+02  0.7818608E-02  0.1180000E+00
       11   -1    0    0    0    0  0.00000000000E+00  0.00000000000E+00  0.39999999673E+01  0.40000000000E+01  0.51109989000E-03 0.  1.
     -623   -1    0    0    0    0  0.00000000000E+00  0.00000000000E+00  0.12525980253E-10  0.17130000000E+03  0.17130000000E+03 0. -1.
       11    1    1    2    0    0  0.25921510135E-02 -0.12952690187E-02  0.84763962817E+00  0.84764473539E+00  0.51109989000E-03 0.  1.
     -623    1    1    2    0    0  0.11566533057E-02  0.56248039282E-03  0.70838958360E-04  0.17130000000E+03  0.17130000000E+03 0. -1.
      622    1    1    2    0    0 -0.37488043191E-02  0.73278862587E-03  0.31522895002E+01  0.31523552598E+01  0.20000000000E-01 0.  1.
</event>
<event>
 5   0  0.3603037E+08  0.9118800E+02  0.7818608E-02  0.1180000E+00
       11   -1    0    0    0    0  0.00000000000E+00  0.00000000000E+00  0.39999999673E+01  0.40000000000E+01  0.51109989000E-03 0. -1.
     -623   -1    0    0    0    0  0.00000000000E+00  0.00000000000E+00  0.12525980253E-10  0.17130000000E+03  0.17130000000E+03 0.  1.
       11    1    1    2    0    0 -0.20919884459E-01  0.24417033570E-02  0.11799780349E-01  0.24147453655E-01  0.51109989000E-03 0. -1.
     -623    1    1    2    0    0  0.21116010549E-01 -0.68786267200E-02  0.12402313842E-01  0.17130000189E+03  0.17130000000E+03 0.  1.
      622    1    1    2    0    0 -0.19612609085E-03  0.44369233629E-02  0.39757978732E+01  0.39758506578E+01  0.20000000000E-01 0. -1.
</event>
<event>
 5   0  0.3603037E+08  0.9118800E+02  0.7818608E-02  0.1180000E+00
       11   -1    0    0    0    0  0.00000000000E+00  0.00000000000E+00  0.39999999673E+01  0.40000000000E+01  0.51109989000E-03 0. -1.
     -623   -1    0    0    0    0  0.00000000000E+00  0.00000000000E+00  0.12525980253E-10  0.17130000000E+03  0.17130000000E+03 0. -1.
       11    1    1    2    0    0  0.51583700699E-02  0.56212502266E-03  0.71305366962E+00  0.71307273243E+00  0.51109989000E-03 0. -1.
     -623    1    1    2    0    0 -0.45191541050E-03  0.19924452395E-03  0.83336337699E-04  0.17130000000E+03  0.17130000000E+03 0. -1.
      622    1    1    2    0    0 -0.47064546594E-02 -0.76136954661E-03  0.32868629614E+01  0.32869272668E+01  0.20000000000E-01 0. -1.
</event>
<event>
 5   0  0.3603037E+08  0.9118800E+02  0.7818608E-02  0.1180000E+00
       11   -1    0    0    0    0  0.00000000000E+00  0.00000000000E+00  0.39999999673E+01  0.40000000000E+01  0.51109989000E-03 0.  1.
     -623   -1    0    0    0    0  0.00000000000E+00  0.00000000000E+00  0.12525980253E-10  0.17130000000E+03  0.17130000000E+03 0.  1.
       11    1    1    2    0    0 -0.91383727899E-02  0.34617614424E-02  0.74302756720E+00  0.74309200002E+00  0.51109989000E-03 0.  1.
     -623    1    1    2    0    0  0.34182467111E-02  0.34255796932E-02  0.13818279309E-03  0.17130000007E+03  0.17130000000E+03 0.  1.
      622    1    1    2    0    0  0.57201260789E-02 -0.68873411355E-02  0.32568342174E+01  0.32569079316E+01  0.20000000000E-01 0.  1.
</event>
<event>
 5   0  0.3603037E+08  0.9118800E+02  0.7818608E-02  0.1180000E+00
       11   -1    0    0    0    0  0.00000000000E+00  0.00000000000E+00  0.39999999673E+01  0.40000000000E+01  0.51109989000E-03 0. -1.
     -623   -1    0    0    0    0  0.00000000000E+00  0.00000000000E+00  0.12525980253E-10  0.17130000000E+03  0.17130000000E+03 0. -1.
       11    1    1    2    0    0  0.62685971737E-02 -0.70930008039E-02  0.50506575737E+00  0.50515471537E+00  0.51109989000E-03 0. -1.
     -623    1    1    2    0    0  0.32660290734E-03  0.44458990982E-03  0.15870092664E-03  0.17130000000E+03  0.17130000000E+03 0. -1.
      622    1    1    2    0    0 -0.65952000810E-02  0.66484108940E-02  0.34947755091E+01  0.34948452837E+01  0.20000000000E-01 0. -1.
</event>
<event>
 5   0  0.3603037E+08  0.9118800E+02  0.7818608E-02  0.1180000E+00
       11   -1    0    0    0    0  0.00000000000E+00  0.00000000000E+00  0.39999999673E+01  0.40000000000E+01  0.51109989000E-03 0.  1.
     -623   -1    0    0    0    0  0.00000000000E+00  0.00000000000E+00  0.12525980253E-10  0.17130000000E+03  0.17130000000E+03 0. -1.
       11    1    1    2    0    0 -0.23684557813E-03 -0.49190960646E-03  0.17482866844E-01  0.17498854988E-01  0.51109989000E-03 0.  1.
     -623    1    1    2    0    0  0.20401106829E-03 -0.25163169231E-03  0.66245383578E-04  0.17130000000E+03  0.17130000000E+03 0. -1.
      622    1    1    2    0    0  0.32834509845E-04  0.74354129877E-03  0.39824508551E+01  0.39825011447E+01  0.20000000000E-01 0.  1.
</event>
<event>
 5   0  0.3603037E+08  0.9118800E+02  0.7818608E-02  0.1180000E+00
       11   -1    0    0    0    0  0.00000000000E+00  0.00000000000E+00  0.39999999673E+01  0.40000000000E+01  0.51109989000E-03 0. -1.
     -623   -1    0    0    0    0  0.00000000000E+00  0.00000000000E+00  0.12525980253E-10  0.17130000000E+03  0.17130000000E+03 0.  1.
       11    1    1    2    0    0  0.31369828697E-02  0.52874379883E-02  0.48296597380E+00  0.48300537340E+00  0.51109989000E-03 0. -1.
     -623    1    1    2    0    0  0.19095780723E-02 -0.14219635332E-01  0.11179863978E-03  0.17130000060E+03  0.17130000000E+03 0.  1.
      622    1    1    2    0    0 -0.50465609420E-02  0.89321973439E-02  0.35169221949E+01  0.35169940257E+01  0.20000000000E-01 0. -1.
</event>
<event>
 5   0  0.3603037E+08  0.9118800E+02  0.7818608E-02  0.1180000E+00
       11   -1    0    0    0    0  0.00000000000E+00  0.00000000000E+00  0.39999999673E+01  0.40000000000E+01  0.51109989000E-03 0. -1.
     -623   -1    0    0    0    0  0.00000000000E+00  0.00000000000E+00  0.12525980253E-10  0.17130000000E+03  0.17130000000E+03 0.  1.
       11    1    1    2    0    0  0.24127839326E-03 -0.26600381876E-03  0.44301525869E-01  0.44305929494E-01  0.51109989000E-03 0. -1.
     -623    1    1    2    0    0  0.14596099115E-03  0.55291937104E-04  0.54955981585E-04  0.17130000000E+03  0.17130000000E+03 0.  1.
      622    1    1    2    0    0 -0.38723938441E-03  0.21071188166E-03  0.39556434855E+01  0.39556940704E+01  0.20000000000E-01 0. -1.
</event>
<event>
 5   0  0.3603037E+08  0.9118800E+02  0.7818608E-02  0.1180000E+00
       11   -1    0    0    0    0  0.00000000000E+00  0.00000000000E+00  0.39999999673E+01  0.40000000000E+01  0.51109989000E-03 0.  1.
     -623   -1    0    0    0    0  0.00000000000E+00  0.00000000000E+00  0.12525980253E-10  0.17130000000E+03  0.17130000000E+03 0.  1.
       11    1    1    2    0    0 -0.23065793832E-03 -0.32772981511E-03  0.26176612637E-01  0.26184668831E-01  0.51109989000E-03 0.  1.
     -623    1    1    2    0    0 -0.49048351567E-03  0.48788871208E-03  0.58423407153E-04  0.17130000000E+03  0.17130000000E+03 0.  1.
      622    1    1    2    0    0  0.72114145399E-03 -0.16015889697E-03  0.39737649313E+01  0.39738153298E+01  0.20000000000E-01 0.  1.
</event>
<event>
 5   0  0.3603037E+08  0.9118800E+02  0.7818608E-02  0.1180000E+00
       11   -1    0    0    0    0  0.00000000000E+00  0.00000000000E+00  0.39999999673E+01  0.40000000000E+01  0.51109989000E-03 0.  1.
     -623   -1    0    0    0    0  0.00000000000E+00  0.00000000000E+00  0.12525980253E-10  0.17130000000E+03  0.17130000000E+03 0.  1.
       11    1    1    2    0    0 -0.24192061551E-02 -0.21090172612E-02  0.30250842844E-02  0.44399177609E-02  0.51109989000E-03 0.  1.
     -623    1    1    2    0    0 -0.55390316929E-02  0.26206229269E-02  0.14729309960E-02  0.17130000012E+03  0.17130000000E+03 0.  1.
      622    1    1    2    0    0  0.79582378480E-02 -0.51160566571E-03  0.39955019521E+01  0.39955599663E+01  0.20000000000E-01 0.  1.
</event>
<event>
 5   0  0.3603037E+08  0.9118800E+02  0.7818608E-02  0.1180000E+00
       11   -1    0    0    0    0  0.00000000000E+00  0.00000000000E+00  0.39999999673E+01  0.40000000000E+01  0.51109989000E-03 0. -1.
     -623   -1    0    0    0    0  0.00000000000E+00  0.00000000000E+00  0.12525980253E-10  0.17130000000E+03  0.17130000000E+03 0. -1.
       11    1    1    2    0    0 -0.25542004904E-02  0.67725569327E-04  0.38090700330E-01  0.38179722346E-01  0.51109989000E-03 0. -1.
     -623    1    1    2    0    0  0.46566001163E-03 -0.74425924144E-03  0.14008212583E-03  0.17130000000E+03  0.17130000000E+03 0. -1.
      622    1    1    2    0    0  0.20885404788E-02  0.67653367211E-03  0.39617691849E+01  0.39618202753E+01  0.20000000000E-01 0. -1.
</event>
<event>
 5   0  0.3603037E+08  0.9118800E+02  0.7818608E-02  0.1180000E+00
       11   -1    0    0    0    0  0.00000000000E+00  0.00000000000E+00  0.39999999673E+01  0.40000000000E+01  0.51109989000E-03 0. -1.
     -623   -1    0    0    0    0  0.00000000000E+00  0.00000000000E+00  0.12525980253E-10  0.17130000000E+03  0.17130000000E+03 0. -1.
       11    1    1    2    0    0  0.12651028983E-01  0.21075625735E-01  0.16126441445E+01  0.16128315561E+01  0.51109989000E-03 0. -1.
     -623    1    1    2    0    0  0.28464756608E-02  0.20777211786E-02  0.43379785640E-03  0.17130000004E+03  0.17130000000E+03 0. -1.
      622    1    1    2    0    0 -0.15497504644E-01 -0.23153346914E-01  0.23869220250E+01  0.23871684071E+01  0.20000000000E-01 0.  0.
</event>
<event>
 5   0  0.3603037E+08  0.9118800E+02  0.7818608E-02  0.1180000E+00
       11   -1    0    0    0    0  0.00000000000E+00  0.00000000000E+00  0.39999999673E+01  0.40000000000E+01  0.51109989000E-03 0. -1.
     -623   -1    0    0    0    0  0.00000000000E+00  0.00000000000E+00  0.12525980253E-10  0.17130000000E+03  0.17130000000E+03 0. -1.
       11    1    1    2    0    0  0.16431671747E-02  0.66555803519E-05  0.53275347148E-02  0.55985613563E-02  0.51109989000E-03 0. -1.
     -623    1    1    2    0    0 -0.23917967773E-02 -0.12440862277E-02  0.32134774236E-03  0.17130000002E+03  0.17130000000E+03 0. -1.
      622    1    1    2    0    0  0.74862960265E-03  0.12374306473E-02  0.39943510849E+01  0.39944014171E+01  0.20000000000E-01 0. -1.
</event>
<event>
 5   0  0.3603037E+08  0.9118800E+02  0.7818608E-02  0.1180000E+00
       11   -1    0    0    0    0  0.00000000000E+00  0.00000000000E+00  0.39999999673E+01  0.40000000000E+01  0.51109989000E-03 0. -1.
     -623   -1    0    0    0    0  0.00000000000E+00  0.00000000000E+00  0.12525980253E-10  0.17130000000E+03  0.17130000000E+03 0. -1.
       11    1    1    2    0    0  0.32582198372E-02 -0.20170431257E-02  0.29644489230E-01  0.29895508399E-01  0.51109989000E-03 0. -1.
     -623    1    1    2    0    0 -0.21937462285E-02  0.22444260575E-02  0.30154159060E-03  0.17130000003E+03  0.17130000000E+03 0. -1.
      622    1    1    2    0    0 -0.10644736087E-02 -0.22738293185E-03  0.39700539365E+01  0.39701044626E+01  0.20000000000E-01 0. -1.
</event>
<event>
 5   0  0.3603037E+08  0.9118800E+02  0.7818608E-02  0.1180000E+00
       11   -1    0    0    0    0  0.00000000000E+00  0.00000000000E+00  0.39999999673E+01  0.40000000000E+01  0.51109989000E-03 0. -1.
     -623   -1    0    0    0    0  0.00000000000E+00  0.00000000000E+00  0.12525980253E-10  0.17130000000E+03  0.17130000000E+03 0.  1.
       11    1    1    2    0    0  0.78277281965E-02  0.86623225347E-02  0.85071624204E-01  0.85870551569E-01  0.51109989000E-03 0. -1.
     -623    1    1    2    0    0 -0.57824817727E-02  0.20969457618E-02  0.86542687830E-03  0.17130000011E+03  0.17130000000E+03 0.  1.
      622    1    1    2    0    0 -0.20452464238E-02 -0.10759268296E-01  0.39140629163E+01  0.39141293358E+01  0.20000000000E-01 0. -1.
</event>
<event>
 5   0  0.3603037E+08  0.9118800E+02  0.7818608E-02  0.1180000E+00
       11   -1    0    0    0    0  0.00000000000E+00  0.00000000000E+00  0.39999999673E+01  0.40000000000E+01  0.51109989000E-03 0.  1.
     -623   -1    0    0    0    0  0.00000000000E+00  0.00000000000E+00  0.12525980253E-10  0.17130000000E+03  0.17130000000E+03 0.  1.
       11    1    1    2    0    0 -0.11571262498E-02  0.37546240623E-03  0.17320532032E+00  0.17321034646E+00  0.51109989000E-03 0.  1.
     -623    1    1    2    0    0 -0.28838554176E-02 -0.24581705540E-04  0.59430972315E-04  0.17130000002E+03  0.17130000000E+03 0.  1.
      622    1    1    2    0    0  0.40409816674E-02 -0.35088070069E-03  0.38267352161E+01  0.38267896293E+01  0.20000000000E-01 0.  1.
</event>
<event>
 5   0  0.3603037E+08  0.9118800E+02  0.7818608E-02  0.1180000E+00
       11   -1    0    0    0    0  0.00000000000E+00  0.00000000000E+00  0.39999999673E+01  0.40000000000E+01  0.51109989000E-03 0.  1.
     -623   -1    0    0    0    0  0.00000000000E+00  0.00000000000E+00  0.12525980253E-10  0.17130000000E+03  0.17130000000E+03 0. -1.
       11    1    1    2    0    0 -0.30853199981E-03 -0.35773912953E-02  0.10626665306E+00  0.10632852719E+00  0.51109989000E-03 0.  1.
     -623    1    1    2    0    0  0.34326812285E-03  0.22293033289E-04  0.11483077605E-03  0.17130000000E+03  0.17130000000E+03 0. -1.
      622    1    1    2    0    0 -0.34736123040E-04  0.35550982620E-02  0.38936184835E+01  0.38936714724E+01  0.20000000000E-01 0.  1.
</event>
<event>
 5   0  0.3603037E+08  0.9118800E+02  0.7818608E-02  0.1180000E+00
       11   -1    0    0    0    0  0.00000000000E+00  0.00000000000E+00  0.39999999673E+01  0.40000000000E+01  0.51109989000E-03 0.  1.
     -623   -1    0    0    0    0  0.00000000000E+00  0.00000000000E+00  0.12525980253E-10  0.17130000000E+03  0.17130000000E+03 0.  1.
       11    1    1    2    0    0  0.66068723050E-02 -0.44786944147E-02  0.43880209389E+00  0.43887498025E+00  0.51109989000E-03 0.  1.
     -623    1    1    2    0    0  0.34961973533E-02  0.48859091507E-02  0.14347657532E-03  0.17130000011E+03  0.17130000000E+03 0.  1.
      622    1    1    2    0    0 -0.10103069658E-01 -0.40721473597E-03  0.35610543969E+01  0.35611249143E+01  0.20000000000E-01 0.  1.
</event>
<event>
 5   0  0.3603037E+08  0.9118800E+02  0.7818608E-02  0.1180000E+00
       11   -1    0    0    0    0  0.00000000000E+00  0.00000000000E+00  0.39999999673E+01  0.40000000000E+01  0.51109989000E-03 0. -1.
     -623   -1    0    0    0    0  0.00000000000E+00  0.00000000000E+00  0.12525980253E-10  0.17130000000E+03  0.17130000000E+03 0.  1.
       11    1    1    2    0    0 -0.33425795556E-03  0.89687985698E-03  0.63701634679E-01  0.63710875078E-01  0.51109989000E-03 0. -1.
     -623    1    1    2    0    0 -0.96231151235E-04  0.77774713233E-04  0.60161625702E-04  0.17130000000E+03  0.17130000000E+03 0.  1.
      622    1    1    2    0    0  0.43048910679E-03 -0.97465457022E-03  0.39362381711E+01  0.39362891249E+01  0.20000000000E-01 0. -1.
</event>
<event>
 5   0  0.3603037E+08  0.9118800E+02  0.7818608E-02  0.1180000E+00
       11   -1    0    0    0    0  0.00000000000E+00  0.00000000000E+00  0.39999999673E+01  0.40000000000E+01  0.51109989000E-03 0.  1.
     -623   -1    0    0    0    0  0.00000000000E+00  0.00000000000E+00  0.12525980253E-10  0.17130000000E+03  0.17130000000E+03 0. -1.
       11    1    1    2    0    0  0.70816334628E-03 -0.35354845898E-02  0.33597837431E-01  0.33794630464E-01  0.51109989000E-03 0.  1.
     -623    1    1    2    0    0 -0.98236050114E-03  0.56229325757E-02  0.24784083512E-03  0.17130000010E+03  0.17130000000E+03 0. -1.
      622    1    1    2    0    0  0.27419715486E-03 -0.20874479859E-02  0.39661542891E+01  0.39662052743E+01  0.20000000000E-01 0.  1.
</event>
<event>
 5   0  0.3603037E+08  0.9118800E+02  0.7818608E-02  0.1180000E+00
       11   -1    0    0    0    0  0.00000000000E+00  0.00000000000E+00  0.39999999673E+01  0.40000000000E+01  0.51109989000E-03 0. -1.
     -623   -1    0    0    0    0  0.00000000000E+00  0.00000000000E+00  0.12525980253E-10  0.17130000000E+03  0.17130000000E+03 0.  1.
       11    1    1    2    0    0  0.91067958837E-04 -0.49797176763E-03  0.73884831114E-01  0.73888333034E-01  0.51109989000E-03 0. -1.
     -623    1    1    2    0    0  0.13360887878E-02  0.10159721461E-02  0.54712393183E-04  0.17130000001E+03  0.17130000000E+03 0.  1.
      622    1    1    2    0    0 -0.14271567466E-02 -0.51800037851E-03  0.39260604239E+01  0.39261116587E+01  0.20000000000E-01 0. -1.
</event>
<event>
 5   0  0.3603037E+08  0.9118800E+02  0.7818608E-02  0.1180000E+00
       11   -1    0    0    0    0  0.00000000000E+00  0.00000000000E+00  0.39999999673E+01  0.40000000000E+01  0.51109989000E-03 0.  1.
     -623   -1    0    0    0    0  0.00000000000E+00  0.00000000000E+00  0.12525980253E-10  0.17130000000E+03  0.17130000000E+03 0. -1.
       11    1    1    2    0    0 -0.41584096898E-02  0.72970329790E-02  0.12633299197E+01  0.12633579407E+01  0.51109989000E-03 0.  1.
     -623    1    1    2    0    0 -0.95277123609E-03 -0.18101852557E-03  0.11509960268E-03  0.17130000000E+03  0.17130000000E+03 0. -1.
      622    1    1    2    0    0  0.51111809259E-02 -0.71160144534E-02  0.27365549481E+01  0.27366420565E+01  0.20000000000E-01 0.  1.
</event>
<event>
 5   0  0.3603037E+08  0.9118800E+02  0.7818608E-02  0.1180000E+00
       11   -1    0    0    0    0  0.00000000000E+00  0.00000000000E+00  0.39999999673E+01  0.40000000000E+01  0.51109989000E-03 0.  1.
     -623   -1    0    0    0    0  0.00000000000E+00  0.00000000000E+00  0.12525980253E-10  0.17130000000E+03  0.17130000000E+03 0.  1.
       11    1    1    2    0    0  0.31075751392E-02  0.92329139080E-03  0.10052692340E+00  0.10058048040E+00  0.51109989000E-03 0.  1.
     -623    1    1    2    0    0 -0.12282997666E-02  0.59317821401E-03  0.10556758316E-03  0.17130000001E+03  0.17130000000E+03 0.  1.
      622    1    1    2    0    0 -0.18792753726E-02 -0.15164696048E-02  0.38993674764E+01  0.38994195141E+01  0.20000000000E-01 0.  0.
</event>
<event>
 5   0  0.3603037E+08  0.9118800E+02  0.7818608E-02  0.1180000E+00
       11   -1    0    0    0    0  0.00000000000E+00  0.00000000000E+00  0.39999999673E+01  0.40000000000E+01  0.51109989000E-03 0.  1.
     -623   -1    0    0    0    0  0.00000000000E+00  0.00000000000E+00  0.12525980253E-10  0.17130000000E+03  0.17130000000E+03 0.  1.
       11    1    1    2    0    0  0.45387382351E-01  0.40429385338E-01  0.34001967701E+00  0.34541017885E+00  0.51109989000E-03 0.  1.
     -623    1    1    2    0    0  0.43785446549E-02 -0.60622318771E-02  0.59459357208E-02  0.17130000027E+03  0.17130000000E+03 0.  1.
      622    1    1    2    0    0 -0.49765927006E-01 -0.34367153461E-01  0.36540343546E+01  0.36545895547E+01  0.20000000000E-01 0.  1.
</event>
<event>
 5   0  0.3603037E+08  0.9118800E+02  0.7818608E-02  0.1180000E+00
       11   -1    0    0    0    0  0.00000000000E+00  0.00000000000E+00  0.39999999673E+01  0.40000000000E+01  0.51109989000E-03 0. -1.
     -623   -1    0    0    0    0  0.00000000000E+00  0.00000000000E+00  0.12525980253E-10  0.17130000000E+03  0.17130000000E+03 0. -1.
       11    1    1    2    0    0  0.16184210794E-02  0.77882575935E-02  0.20271898072E+01  0.20272054785E+01  0.51109989000E-03 0. -1.
     -623    1    1    2    0    0  0.28837325461E-03 -0.15885561809E-02  0.12769157460E-03  0.17130000001E+03  0.17130000000E+03 0. -1.
      622    1    1    2    0    0 -0.19067943340E-02 -0.61997014126E-02  0.19726824685E+01  0.19727945138E+01  0.20000000000E-01 0.  0.
</event>
<event>
 5   0  0.3603037E+08  0.9118800E+02  0.7818608E-02  0.1180000E+00
       11   -1    0    0    0    0  0.00000000000E+00  0.00000000000E+00  0.39999999673E+01  0.40000000000E+01  0.51109989000E-03 0. -1.
     -623   -1    0    0    0    0  0.00000000000E+00  0.00000000000E+00  0.12525980253E-10  0.17130000000E+03  0.17130000000E+03 0.  1.
       11    1    1    2    0    0  0.33333518703E-02 -0.52981408819E-02  0.44277578552E-01  0.44720763800E-01  0.51109989000E-03 0. -1.
     -623    1    1    2    0    0 -0.20040772884E-03 -0.72020029611E-03  0.49954023407E-03  0.17130000000E+03  0.17130000000E+03 0.  1.
      622    1    1    2    0    0 -0.31329441415E-02  0.60183411781E-02  0.39552228486E+01  0.39552792338E+01  0.20000000000E-01 0. -1.
</event>
<event>
 5   0  0.3603037E+08  0.9118800E+02  0.7818608E-02  0.1180000E+00
       11   -1    0    0    0    0  0.00000000000E+00  0.00000000000E+00  0.39999999673E+01  0.40000000000E+01  0.51109989000E-03 0.  1.
     -623   -1    0    0    0    0  0.00000000000E+00  0.00000000000E+00  0.12525980253E-10  0.17130000000E+03  0.17130000000E+03 0.  1.
       11    1    1    2    0    0  0.12313981587E-02  0.47891914950E-02  0.33407688101E-01  0.33775546513E-01  0.51109989000E-03 0.  1.
     -623    1    1    2    0    0 -0.76086812613E-04  0.10494094075E-02  0.42272140274E-03  0.17130000000E+03  0.17130000000E+03 0.  1.
      622    1    1    2    0    0 -0.11553113461E-02 -0.58386009025E-02  0.39661695579E+01  0.39662244497E+01  0.20000000000E-01 0.  1.
</event>
<event>
 5   0  0.3603037E+08  0.9118800E+02  0.7818608E-02  0.1180000E+00
       11   -1    0    0    0    0  0.00000000000E+00  0.00000000000E+00  0.39999999673E+01  0.40000000000E+01  0.51109989000E-03 0.  1.
     -623   -1    0    0    0    0  0.00000000000E+00  0.00000000000E+00  0.12525980253E-10  0.17130000000E+03  0.17130000000E+03 0.  1.
       11    1    1    2    0    0 -0.13550117165E-03 -0.15175841658E-03  0.17338905170E-01  0.17347629369E-01  0.51109989000E-03 0.  1.
     -623    1    1    2    0    0 -0.64113361225E-04 -0.14404492634E-03  0.58925736316E-04  0.17130000000E+03  0.17130000000E+03 0.  1.
      622    1    1    2    0    0  0.19961453287E-03  0.29580334292E-03  0.39826021365E+01  0.39826523705E+01  0.20000000000E-01 0.  1.
</event>
<event>
 5   0  0.3603037E+08  0.9118800E+02  0.7818608E-02  0.1180000E+00
       11   -1    0    0    0    0  0.00000000000E+00  0.00000000000E+00  0.39999999673E+01  0.40000000000E+01  0.51109989000E-03 0.  1.
     -623   -1    0    0    0    0  0.00000000000E+00  0.00000000000E+00  0.12525980253E-10  0.17130000000E+03  0.17130000000E+03 0.  1.
       11    1    1    2    0    0 -0.30571561088E-03  0.48476143028E-03  0.53838154613E-01  0.53843630726E-01  0.51109989000E-03 0.  1.
     -623    1    1    2    0    0  0.12856359186E-03  0.63732360979E-04  0.56168191877E-04  0.17130000000E+03  0.17130000000E+03 0.  1.
      622    1    1    2    0    0  0.17715201901E-03 -0.54849379126E-03  0.39461056446E+01  0.39461563692E+01  0.20000000000E-01 0.  1.
</event>
<event>
 5   0  0.3603037E+08  0.9118800E+02  0.7818608E-02  0.1180000E+00
       11   -1    0    0    0    0  0.00000000000E+00  0.00000000000E+00  0.39999999673E+01  0.40000000000E+01  0.51109989000E-03 0.  1.
     -623   -1    0    0    0    0  0.00000000000E+00  0.00000000000E+00  0.12525980253E-10  0.17130000000E+03  0.17130000000E+03 0.  1.
       11    1    1    2    0    0 -0.50821914633E-02 -0.37865956968E-01  0.12551366121E+01  0.12557180558E+01  0.51109989000E-03 0.  1.
     -623    1    1    2    0    0 -0.40333635215E-03  0.84739579018E-02  0.81739262950E-03  0.17130000021E+03  0.17130000000E+03 0.  1.
      622    1    1    2    0    0  0.54855278155E-02  0.29391999066E-01  0.27440459626E+01  0.27442817322E+01  0.20000000000E-01 0.  1.
</event>
<event>
 5   0  0.3603037E+08  0.9118800E+02  0.7818608E-02  0.1180000E+00
       11   -1    0    0    0    0  0.00000000000E+00  0.00000000000E+00  0.39999999673E+01  0.40000000000E+01  0.51109989000E-03 0. -1.
     -623   -1    0    0    0    0  0.00000000000E+00  0.00000000000E+00  0.12525980253E-10  0.17130000000E+03  0.17130000000E+03 0. -1.
       11    1    1    2    0    0 -0.83711494385E-04 -0.24130610503E-03  0.30728603029E-01  0.30733914526E-01  0.51109989000E-03 0.  1.
     -623    1    1    2    0    0  0.33066629986E-04 -0.21990525466E-02  0.56430968820E-04  0.17130000001E+03  0.17130000000E+03 0. -1.
      622    1    1    2    0    0  0.50644864399E-04  0.24403586516E-02  0.39692149334E+01  0.39692660713E+01  0.20000000000E-01 0. -1.
</event>
<event>
 5   0  0.3603037E+08  0.9118800E+02  0.7818608E-02  0.1180000E+00
       11   -1    0    0    0    0  0.00000000000E+00  0.00000000000E+00  0.39999999673E+01  0.40000000000E+01  0.51109989000E-03 0. -1.
     -623   -1    0    0    0    0  0.00000000000E+00  0.00000000000E+00  0.12525980253E-10  0.17130000000E+03  0.17130000000E+03 0. -1.
       11    1    1    2    0    0  0.44889537367E-03 -0.21233240658E-02  0.11493787791E+00  0.11495950161E+00  0.51109989000E-03 0. -1.
     -623    1    1    2    0    0  0.15421824075E-02  0.14013308485E-02  0.73660918555E-04  0.17130000001E+03  0.17130000000E+03 0. -1.
      622    1    1    2    0    0 -0.19910777812E-02  0.72199321725E-03  0.38849884285E+01  0.38850404857E+01  0.20000000000E-01 0. -1.
</event>
<event>
 5   0  0.3603037E+08  0.9118800E+02  0.7818608E-02  0.1180000E+00
       11   -1    0    0    0    0  0.00000000000E+00  0.00000000000E+00  0.39999999673E+01  0.40000000000E+01  0.51109989000E-03 0. -1.
     -623   -1    0    0    0    0  0.00000000000E+00  0.00000000000E+00  0.12525980253E-10  0.17130000000E+03  0.17130000000E+03 0.  1.
       11    1    1    2    0    0  0.82225481164E-04  0.67945290575E-02  0.26989172636E+00  0.26997773531E+00  0.51109989000E-03 0. -1.
     -623    1    1    2    0    0  0.26657727832E-03 -0.48728752269E-03  0.14494561301E-03  0.17130000000E+03  0.17130000000E+03 0.  1.
      622    1    1    2    0    0 -0.34880275948E-03 -0.63072415348E-02  0.37299632954E+01  0.37300222637E+01  0.20000000000E-01 0.  0.
</event>
<event>
 5   0  0.3603037E+08  0.9118800E+02  0.7818608E-02  0.1180000E+00
       11   -1    0    0    0    0  0.00000000000E+00  0.00000000000E+00  0.39999999673E+01  0.40000000000E+01  0.51109989000E-03 0. -1.
     -623   -1    0    0    0    0  0.00000000000E+00  0.00000000000E+00  0.12525980253E-10  0.17130000000E+03  0.17130000000E+03 0.  1.
       11    1    1    2    0    0 -0.82737568494E-03 -0.13765076379E-02  0.21486915433E+00  0.21487576417E+00  0.51109989000E-03 0. -1.
     -623    1    1    2    0    0  0.10793608151E-02  0.38800020551E-02  0.60299657009E-04  0.17130000005E+03  0.17130000000E+03 0.  1.
      622    1    1    2    0    0 -0.25198513021E-03 -0.25034944172E-02  0.37850705134E+01  0.37851241885E+01  0.20000000000E-01 0. -1.
</event>
<event>
 5   0  0.3603037E+08  0.9118800E+02  0.7818608E-02  0.1180000E+00
       11   -1    0    0    0    0  0.00000000000E+00  0.00000000000E+00  0.39999999673E+01  0.40000000000E+01  0.51109989000E-03 0. -1.
     -623   -1    0    0    0    0  0.00000000000E+00  0.00000000000E+00  0.12525980253E-10  0.17130000000E+03  0.17130000000E+03 0.  1.
       11    1    1    2    0    0 -0.17590847435E-02  0.16628448049E-01  0.33740500174E+01  0.33740914897E+01  0.51109989000E-03 0. -1.
     -623    1    1    2    0    0 -0.72122226589E-02 -0.30788716649E-02  0.57233442943E-03  0.17130000018E+03  0.17130000000E+03 0.  1.
      622    1    1    2    0    0  0.89713074024E-02 -0.13549576384E-01  0.62537761550E+00  0.62590832983E+00  0.20000000000E-01 0. -1.
</event>
<event>
 5   0  0.3603037E+08  0.9118800E+02  0.7818608E-02  0.1180000E+00
       11   -1    0    0    0    0  0.00000000000E+00  0.00000000000E+00  0.39999999673E+01  0.40000000000E+01  0.51109989000E-03 0.  1.
     -623   -1    0    0    0    0  0.00000000000E+00  0.00000000000E+00  0.12525980253E-10  0.17130000000E+03  0.17130000000E+03 0. -1.
       11    1    1    2    0    0  0.37347390919E-02 -0.34516675135E-02  0.18539751405E+00  0.18546795336E+00  0.51109989000E-03 0.  1.
     -623    1    1    2    0    0  0.15768506901E-02  0.10068873457E-02  0.12732996789E-03  0.17130000001E+03  0.17130000000E+03 0. -1.
      622    1    1    2    0    0 -0.53115897820E-02  0.24447801678E-02  0.38144751233E+01  0.38145320364E+01  0.20000000000E-01 0.  1.
</event>
<event>
 5   0  0.3603037E+08  0.9118800E+02  0.7818608E-02  0.1180000E+00
       11   -1    0    0    0    0  0.00000000000E+00  0.00000000000E+00  0.39999999673E+01  0.40000000000E+01  0.51109989000E-03 0.  1.
     -623   -1    0    0    0    0  0.00000000000E+00  0.00000000000E+00  0.12525980253E-10  0.17130000000E+03  0.17130000000E+03 0.  1.
       11    1    1    2    0    0  0.21108729693E-02  0.12035552713E-02  0.37273538938E+00  0.37274365997E+00  0.51109989000E-03 0.  1.
     -623    1    1    2    0    0  0.25999011198E-03 -0.46414896256E-04  0.64336090466E-04  0.17130000000E+03  0.17130000000E+03 0.  1.
      622    1    1    2    0    0 -0.23708630813E-02 -0.11571403750E-02  0.36272002419E+01  0.36272563398E+01  0.20000000000E-01 0.  1.
</event>
<event>
 5   0  0.3603037E+08  0.9118800E+02  0.7818608E-02  0.1180000E+00
       11   -1    0    0    0    0  0.00000000000E+00  0.00000000000E+00  0.39999999673E+01  0.40000000000E+01  0.51109989000E-03 0.  1.
     -623   -1    0    0    0    0  0.00000000000E+00  0.00000000000E+00  0.12525980253E-10  0.17130000000E+03  0.17130000000E+03 0.  1.
       11    1    1    2    0    0 -0.21728809226E-03  0.68972856478E-02  0.72685742085E+00  0.72689035709E+00  0.51109989000E-03 0.  1.
     -623    1    1    2    0    0 -0.23113275057E-02 -0.43600462627E-02  0.96039423640E-04  0.17130000007E+03  0.17130000000E+03 0.  1.
      622    1    1    2    0    0  0.25286155980E-02 -0.25372393850E-02  0.32730465071E+01  0.32731095718E+01  0.20000000000E-01 0.  1.
</event>
<event>
 5   0  0.3603037E+08  0.9118800E+02  0.7818608E-02  0.1180000E+00
       11   -1    0    0    0    0  0.00000000000E+00  0.00000000000E+00  0.39999999673E+01  0.40000000000E+01  0.51109989000E-03 0. -1.
     -623   -1    0    0    0    0  0.00000000000E+00  0.00000000000E+00  0.12525980253E-10  0.17130000000E+03  0.17130000000E+03 0.  1.
       11    1    1    2    0    0  0.63250373959E-02 -0.55005199093E-02  0.26293338499E+01  0.26293472607E+01  0.51109989000E-03 0. -1.
     -623    1    1    2    0    0 -0.99845419100E-02  0.73275292296E-02  0.16585319864E-03  0.17130000045E+03  0.17130000000E+03 0.  1.
      622    1    1    2    0    0  0.36595045141E-02 -0.18270093204E-02  0.13705002643E+01  0.13706522915E+01  0.20000000000E-01 0. -1.
</event>
<event>
 5   0  0.3603037E+08  0.9118800E+02  0.7818608E-02  0.1180000E+00
       11   -1    0    0    0    0  0.00000000000E+00  0.00000000000E+00  0.39999999673E+01  0.40000000000E+01  0.51109989000E-03 0.  1.
     -623   -1    0    0    0    0  0.00000000000E+00  0.00000000000E+00  0.12525980253E-10  0.17130000000E+03  0.17130000000E+03 0. -1.
       11    1    1    2    0    0  0.34203566441E-03  0.10964298333E-03  0.51444291998E-01  0.51448084600E-01  0.51109989000E-03 0.  1.
     -623    1    1    2    0    0  0.13385058375E-03  0.47503370608E-04  0.54443640035E-04  0.17130000000E+03  0.17130000000E+03 0. -1.
      622    1    1    2    0    0 -0.47588624817E-03 -0.15714635394E-03  0.39485012317E+01  0.39485519153E+01  0.20000000000E-01 0.  1.
</event>
<event>
 5   0  0.3603037E+08  0.9118800E+02  0.7818608E-02  0.1180000E+00
       11   -1    0    0    0    0  0.00000000000E+00  0.00000000000E+00  0.39999999673E+01  0.40000000000E+01  0.51109989000E-03 0. -1.
     -623   -1    0    0    0    0  0.00000000000E+00  0.00000000000E+00  0.12525980253E-10  0.17130000000E+03  0.17130000000E+03 0.  1.
       11    1    1    2    0    0  0.11869746592E-01  0.15389758803E-01  0.81655464092E+00  0.81678606648E+00  0.51109989000E-03 0. -1.
     -623    1    1    2    0    0  0.97606972073E-04 -0.28655518243E-01  0.34675943211E-03  0.17130000240E+03  0.17130000000E+03 0.  1.
      622    1    1    2    0    0 -0.11967353564E-01  0.13265759440E-01  0.31830985670E+01  0.31832115364E+01  0.20000000000E-01 0. -1.
</event>
<event>
 5   0  0.3603037E+08  0.9118800E+02  0.7818608E-02  0.1180000E+00
       11   -1    0    0    0    0  0.00000000000E+00  0.00000000000E+00  0.39999999673E+01  0.40000000000E+01  0.51109989000E-03 0.  1.
     -623   -1    0    0    0    0  0.00000000000E+00  0.00000000000E+00  0.12525980253E-10  0.17130000000E+03  0.17130000000E+03 0.  1.
       11    1    1    2    0    0 -0.36247138150E-03 -0.16633339709E-02  0.99110105721E+00  0.99110265104E+00  0.51109989000E-03 0.  1.
     -623    1    1    2    0    0  0.44068204579E-02  0.82426502712E-05  0.71261493944E-04  0.17130000006E+03  0.17130000000E+03 0.  1.
      622    1    1    2    0    0 -0.40443490764E-02  0.16550913206E-02  0.30088276487E+01  0.30088972923E+01  0.20000000000E-01 0.  1.
</event>
<event>
 5   0  0.3603037E+08  0.9118800E+02  0.7818608E-02  0.1180000E+00
       11   -1    0    0    0    0  0.00000000000E+00  0.00000000000E+00  0.39999999673E+01  0.40000000000E+01  0.51109989000E-03 0.  1.
     -623   -1    0    0    0    0  0.00000000000E+00  0.00000000000E+00  0.12525980253E-10  0.17130000000E+03  0.17130000000E+03 0. -1.
       11    1    1    2    0    0  0.11930468651E-01 -0.60003041075E-02  0.12668034933E+00  0.12738332646E+00  0.51109989000E-03 0.  1.
     -623    1    1    2    0    0 -0.96435055726E-02 -0.47814578507E-02  0.77061370604E-03  0.17130000034E+03  0.17130000000E+03 0. -1.
      622    1    1    2    0    0 -0.22869630789E-02  0.10781761958E-01  0.38725490043E+01  0.38726163336E+01  0.20000000000E-01 0.  1.
</event>
<event>
 5   0  0.3603037E+08  0.9118800E+02  0.7818608E-02  0.1180000E+00
       11   -1    0    0    0    0  0.00000000000E+00  0.00000000000E+00  0.39999999673E+01  0.40000000000E+01  0.51109989000E-03 0.  1.
     -623   -1    0    0    0    0  0.00000000000E+00  0.00000000000E+00  0.12525980253E-10  0.17130000000E+03  0.17130000000E+03 0. -1.
       11    1    1    2    0    0  0.48277235135E-02 -0.12508614014E-01  0.34835310517E+01  0.34835568923E+01  0.51109989000E-03 0.  1.
     -623    1    1    2    0    0  0.12654020007E-01  0.36589320453E-02  0.78584407768E-03  0.17130000051E+03  0.17130000000E+03 0. -1.
      622    1    1    2    0    0 -0.17481743521E-01  0.88496819684E-02  0.51568307156E+00  0.51644259945E+00  0.20000000000E-01 0.  0.
</event>
<event>
 5   0  0.3603037E+08  0.9118800E+02  0.7818608E-02  0.1180000E+00
       11   -1    0    0    0    0  0.00000000000E+00  0.00000000000E+00  0.39999999673E+01  0.40000000000E+01  0.51109989000E-03 0.  1.
     -623   -1    0    0    0    0  0.00000000000E+00  0.00000000000E+00  0.12525980253E-10  0.17130000000E+03  0.17130000000E+03 0. -1.
       11    1    1    2    0    0  0.68430665437E-02  0.16303526580E-02  0.54507367313E+00  0.54511930435E+00  0.51109989000E-03 0.  1.
     -623    1    1    2    0    0 -0.34065508856E-03  0.91526140914E-03  0.11054802793E-03  0.17130000000E+03  0.17130000000E+03 0. -1.
      622    1    1    2    0    0 -0.65024114552E-02 -0.25456140672E-02  0.34548157462E+01  0.34548806928E+01  0.20000000000E-01 0.  1.
</event>
<event>
 5   0  0.3603037E+08  0.9118800E+02  0.7818608E-02  0.1180000E+00
       11   -1    0    0    0    0  0.00000000000E+00  0.00000000000E+00  0.39999999673E+01  0.40000000000E+01  0.51109989000E-03 0. -1.
     -623   -1    0    0    0    0  0.00000000000E+00  0.00000000000E+00  0.12525980253E-10  0.17130000000E+03  0.17130000000E+03 0.  1.
       11    1    1    2    0    0  0.30433679304E-02 -0.48255339256E-02  0.13788866765E+01  0.13788985734E+01  0.51109989000E-03 0. -1.
     -623    1    1    2    0    0 -0.13700755004E-03 -0.52353639323E-03  0.95239713952E-04  0.17130000000E+03  0.17130000000E+03 0.  1.
      622    1    1    2    0    0 -0.29063603804E-02  0.53490703189E-02  0.26210180511E+01  0.26211014257E+01  0.20000000000E-01 0. -1.
</event>
<event>
 5   0  0.3603037E+08  0.9118800E+02  0.7818608E-02  0.1180000E+00
       11   -1    0    0    0    0  0.00000000000E+00  0.00000000000E+00  0.39999999673E+01  0.40000000000E+01  0.51109989000E-03 0. -1.
     -623   -1    0    0    0    0  0.00000000000E+00  0.00000000000E+00  0.12525980253E-10  0.17130000000E+03  0.17130000000E+03 0.  1.
       11    1    1    2    0    0  0.13398452074E-02  0.36177595663E-02  0.15673188357E+00  0.15678018981E+00  0.51109989000E-03 0. -1.
     -623    1    1    2    0    0  0.18654878220E-03 -0.80348631897E-04  0.10224491203E-03  0.17130000000E+03  0.17130000000E+03 0.  1.
      622    1    1    2    0    0 -0.15263939896E-02 -0.35374109344E-02  0.38431658389E+01  0.38432198100E+01  0.20000000000E-01 0. -1.
</event>
<event>
 5   0  0.3603037E+08  0.9118800E+02  0.7818608E-02  0.1180000E+00
       11   -1    0    0    0    0  0.00000000000E+00  0.00000000000E+00  0.39999999673E+01  0.40000000000E+01  0.51109989000E-03 0.  1.
     -623   -1    0    0    0    0  0.00000000000E+00  0.00000000000E+00  0.12525980253E-10  0.17130000000E+03  0.17130000000E+03 0.  1.
       11    1    1    2    0    0 -0.19381942931E-02  0.23157992211E-02  0.54464887647E+00  0.54465748814E+00  0.51109989000E-03 0.  1.
     -623    1    1    2    0    0  0.79242440752E-03  0.93384517180E-03  0.68183375117E-04  0.17130000000E+03  0.17130000000E+03 0.  1.
      622    1    1    2    0    0  0.11457698855E-02 -0.32496443929E-02  0.34552829075E+01  0.34553425075E+01  0.20000000000E-01 0.  1.
</event>
<event>
 5   0  0.3603037E+08  0.9118800E+02  0.7818608E-02  0.1180000E+00
       11   -1    0    0    0    0  0.00000000000E+00  0.00000000000E+00  0.39999999673E+01  0.40000000000E+01  0.51109989000E-03 0.  1.
     -623   -1    0    0    0    0  0.00000000000E+00  0.00000000000E+00  0.12525980253E-10  0.17130000000E+03  0.17130000000E+03 0.  1.
       11    1    1    2    0    0  0.37724074664E-02  0.50874123234E-02  0.11816153659E+00  0.11833225584E+00  0.51109989000E-03 0.  1.
     -623    1    1    2    0    0  0.56556260653E-03  0.27158931731E-03  0.22833583839E-03  0.17130000000E+03  0.17130000000E+03 0.  1.
      622    1    1    2    0    0 -0.43379700729E-02 -0.53590016407E-02  0.38816100949E+01  0.38816677429E+01  0.20000000000E-01 0.  1.
</event>
<event>
 5   0  0.3603037E+08  0.9118800E+02  0.7818608E-02  0.1180000E+00
       11   -1    0    0    0    0  0.00000000000E+00  0.00000000000E+00  0.39999999673E+01  0.40000000000E+01  0.51109989000E-03 0.  1.
     -623   -1    0    0    0    0  0.00000000000E+00  0.00000000000E+00  0.12525980253E-10  0.17130000000E+03  0.17130000000E+03 0.  1.
       11    1    1    2    0    0 -0.18441974723E-02 -0.42610393755E-02  0.67857634708E+00  0.67859242374E+00  0.51109989000E-03 0.  1.
     -623    1    1    2    0    0  0.74952199996E-02  0.49776521612E-02  0.81381028889E-04  0.17130000024E+03  0.17130000000E+03 0.  1.
      622    1    1    2    0    0 -0.56510225273E-02 -0.71661278573E-03  0.33213422393E+01  0.33214073399E+01  0.20000000000E-01 0.  1.
</event>
<event>
 5   0  0.3603037E+08  0.9118800E+02  0.7818608E-02  0.1180000E+00
       11   -1    0    0    0    0  0.00000000000E+00  0.00000000000E+00  0.39999999673E+01  0.40000000000E+01  0.51109989000E-03 0.  1.
     -623   -1    0    0    0    0  0.00000000000E+00  0.00000000000E+00  0.12525980253E-10  0.17130000000E+03  0.17130000000E+03 0. -1.
       11    1    1    2    0    0  0.20671788634E-02 -0.80359298332E-02  0.56242669397E+00  0.56248813028E+00  0.51109989000E-03 0.  1.
     -623    1    1    2    0    0 -0.21220054331E-02  0.21227305321E-03  0.12850288887E-03  0.17130000001E+03  0.17130000000E+03 0. -1.
      622    1    1    2    0    0  0.54826569668E-04  0.78236567800E-02  0.34374447705E+01  0.34375118564E+01  0.20000000000E-01 0.  1.
</event>
<event>
 5   0  0.3603037E+08  0.9118800E+02  0.7818608E-02  0.1180000E+00
       11   -1    0    0    0    0  0.00000000000E+00  0.00000000000E+00  0.39999999673E+01  0.40000000000E+01  0.51109989000E-03 0.  1.
     -623   -1    0    0    0    0  0.00000000000E+00  0.00000000000E+00  0.12525980253E-10  0.17130000000E+03  0.17130000000E+03 0. -1.
       11    1    1    2    0    0  0.26498797934E-02  0.18934585769E-02  0.71647942885E+00  0.71648701330E+00  0.51109989000E-03 0.  1.
     -623    1    1    2    0    0 -0.53567933502E-02 -0.28830342963E-02  0.69835712440E-04  0.17130000011E+03  0.17130000000E+03 0. -1.
      622    1    1    2    0    0  0.27069135568E-02  0.98957571935E-03  0.32834507028E+01  0.32835128787E+01  0.20000000000E-01 0.  1.
</event>
<event>
 5   0  0.3603037E+08  0.9118800E+02  0.7818608E-02  0.1180000E+00
       11   -1    0    0    0    0  0.00000000000E+00  0.00000000000E+00  0.39999999673E+01  0.40000000000E+01  0.51109989000E-03 0. -1.
     -623   -1    0    0    0    0  0.00000000000E+00  0.00000000000E+00  0.12525980253E-10  0.17130000000E+03  0.17130000000E+03 0. -1.
       11    1    1    2    0    0  0.43560665826E-03 -0.26818218241E-02  0.57302195883E-02  0.63622762378E-02  0.51109989000E-03 0. -1.
     -623    1    1    2    0    0  0.21235292119E-02  0.18486857462E-02  0.68303534404E-03  0.17130000002E+03  0.17130000000E+03 0. -1.
      622    1    1    2    0    0 -0.25591358701E-02  0.83313607792E-03  0.39935867124E+01  0.39936376993E+01  0.20000000000E-01 0. -1.
</event>
<event>
 5   0  0.3603037E+08  0.9118800E+02  0.7818608E-02  0.1180000E+00
       11   -1    0    0    0    0  0.00000000000E+00  0.00000000000E+00  0.39999999673E+01  0.40000000000E+01  0.51109989000E-03 0. -1.
     -623   -1    0    0    0    0  0.00000000000E+00  0.00000000000E+00  0.12525980253E-10  0.17130000000E+03  0.17130000000E+03 0.  1.
       11    1    1    2    0    0 -0.42875927794E-02  0.32099516866E-02  0.72966314531E+00  0.72968298191E+00  0.51109989000E-03 0. -1.
     -623    1    1    2    0    0  0.48792737155E-03  0.55491197512E-03  0.85336828192E-04  0.17130000000E+03  0.17130000000E+03 0.  1.
      622    1    1    2    0    0  0.37996654079E-02 -0.37648636617E-02  0.32702514852E+01  0.32703170165E+01  0.20000000000E-01 0. -1.
</event>
<event>
 5   0  0.3603037E+08  0.9118800E+02  0.7818608E-02  0.1180000E+00
       11   -1    0    0    0    0  0.00000000000E+00  0.00000000000E+00  0.39999999673E+01  0.40000000000E+01  0.51109989000E-03 0.  1.
     -623   -1    0    0    0    0  0.00000000000E+00  0.00000000000E+00  0.12525980253E-10  0.17130000000E+03  0.17130000000E+03 0. -1.
       11    1    1    2    0    0  0.44551007821E-02  0.39323914975E-02  0.35524409993E+00  0.35529416458E+00  0.51109989000E-03 0.  1.
     -623    1    1    2    0    0  0.24973439911E-03  0.32558701056E-03  0.11043102900E-03  0.17130000000E+03  0.17130000000E+03 0. -1.
      622    1    1    2    0    0 -0.47048351812E-02 -0.42579785081E-02  0.36446454364E+01  0.36447058349E+01  0.20000000000E-01 0.  0.
</event>
<event>
 5   0  0.3603037E+08  0.9118800E+02  0.7818608E-02  0.1180000E+00
       11   -1    0    0    0    0  0.00000000000E+00  0.00000000000E+00  0.39999999673E+01  0.40000000000E+01  0.51109989000E-03 0.  1.
     -623   -1    0    0    0    0  0.00000000000E+00  0.00000000000E+00  0.12525980253E-10  0.17130000000E+03  0.17130000000E+03 0.  1.
       11    1    1    2    0    0  0.12273025764E-02  0.43398825559E-02  0.13487713613E+01  0.13487789986E+01  0.51109989000E-03 0.  1.
     -623    1    1    2    0    0 -0.93097178868E-03 -0.47360912008E-04  0.86536874474E-04  0.17130000000E+03  0.17130000000E+03 0.  1.
      622    1    1    2    0    0 -0.29633078771E-03 -0.42925216439E-02  0.26511420692E+01  0.26512209989E+01  0.20000000000E-01 0.  1.
</event>
<event>
 5   0  0.3603037E+08  0.9118800E+02  0.7818608E-02  0.1180000E+00
       11   -1    0    0    0    0  0.00000000000E+00  0.00000000000E+00  0.39999999673E+01  0.40000000000E+01  0.51109989000E-03 0. -1.
     -623   -1    0    0    0    0  0.00000000000E+00  0.00000000000E+00  0.12525980253E-10  0.17130000000E+03  0.17130000000E+03 0. -1.
       11    1    1    2    0    0 -0.23961523312E-02  0.13063442289E-01  0.13005326448E+01  0.13006005599E+01  0.51109989000E-03 0. -1.
     -623    1    1    2    0    0  0.54586207044E-03  0.28469440193E-02  0.18952282989E-03  0.17130000002E+03  0.17130000000E+03 0. -1.
      622    1    1    2    0    0  0.18502902608E-02 -0.15910386308E-01  0.26992777998E+01  0.26993994155E+01  0.20000000000E-01 0.  0.
</event>
<event>
 5   0  0.3603037E+08  0.9118800E+02  0.7818608E-02  0.1180000E+00
       11   -1    0    0    0    0  0.00000000000E+00  0.00000000000E+00  0.39999999673E+01  0.40000000000E+01  0.51109989000E-03 0.  1.
     -623   -1    0    0    0    0  0.00000000000E+00  0.00000000000E+00  0.12525980253E-10  0.17130000000E+03  0.17130000000E+03 0. -1.
       11    1    1    2    0    0  0.45380052817E-02 -0.98207964415E-02  0.10943586149E+01  0.10944122078E+01  0.51109989000E-03 0.  1.
     -623    1    1    2    0    0 -0.95767771686E-03  0.19623513159E-03  0.14054360910E-03  0.17130000000E+03  0.17130000000E+03 0. -1.
      622    1    1    2    0    0 -0.35803275648E-02  0.96245613099E-02  0.29055008089E+01  0.29055877893E+01  0.20000000000E-01 0.  0.
</event>
<event>
 5   0  0.3603037E+08  0.9118800E+02  0.7818608E-02  0.1180000E+00
       11   -1    0    0    0    0  0.00000000000E+00  0.00000000000E+00  0.39999999673E+01  0.40000000000E+01  0.51109989000E-03 0. -1.
     -623   -1    0    0    0    0  0.00000000000E+00  0.00000000000E+00  0.12525980253E-10  0.17130000000E+03  0.17130000000E+03 0. -1.
       11    1    1    2    0    0 -0.98543912037E-03 -0.23468726260E-02  0.30454260959E+00  0.30455367536E+00  0.51109989000E-03 0. -1.
     -623    1    1    2    0    0  0.25225337797E-03  0.28501902605E-03  0.65802571855E-04  0.17130000000E+03  0.17130000000E+03 0. -1.
      622    1    1    2    0    0  0.73318574240E-03  0.20618536000E-02  0.36953915552E+01  0.36954463242E+01  0.20000000000E-01 0. -1.
</event>
<event>
 5   0  0.3603037E+08  0.9118800E+02  0.7818608E-02  0.1180000E+00
       11   -1    0    0    0    0  0.00000000000E+00  0.00000000000E+00  0.39999999673E+01  0.40000000000E+01  0.51109989000E-03 0. -1.
     -623   -1    0    0    0    0  0.00000000000E+00  0.00000000000E+00  0.12525980253E-10  0.17130000000E+03  0.17130000000E+03 0.  1.
       11    1    1    2    0    0 -0.84183279019E-03 -0.20765136821E-03  0.65950122868E-02  0.66713725185E-02  0.51109989000E-03 0. -1.
     -623    1    1    2    0    0  0.11156757790E-02 -0.15040579572E-02  0.12679796988E-03  0.17130000001E+03  0.17130000000E+03 0.  1.
      622    1    1    2    0    0 -0.27384298881E-03  0.17117093254E-02  0.39932781571E+01  0.39933286172E+01  0.20000000000E-01 0. -1.
</event>
<event>
 5   0  0.3603037E+08  0.9118800E+02  0.7818608E-02  0.1180000E+00
       11   -1    0    0    0    0  0.00000000000E+00  0.00000000000E+00  0.39999999673E+01  0.40000000000E+01  0.51109989000E-03 0.  1.
     -623   -1    0    0    0    0  0.00000000000E+00  0.00000000000E+00  0.12525980253E-10  0.17130000000E+03  0.17130000000E+03 0. -1.
       11    1    1    2    0    0  0.52610202352E-02  0.53496867506E-02  0.27651430871E+00  0.27661656065E+00  0.51109989000E-03 0.  1.
     -623    1    1    2    0    0 -0.99125129038E-02 -0.98076394510E-03  0.16169271014E-03  0.17130000029E+03  0.17130000000E+03 0. -1.
      622    1    1    2    0    0  0.46514926686E-02 -0.43689228055E-02  0.37233239659E+01  0.37233831497E+01  0.20000000000E-01 0.  1.
</event>
<event>
 5   0  0.3603037E+08  0.9118800E+02  0.7818608E-02  0.1180000E+00
       11   -1    0    0    0    0  0.00000000000E+00  0.00000000000E+00  0.39999999673E+01  0.40000000000E+01  0.51109989000E-03 0. -1.
     -623   -1    0    0    0    0  0.00000000000E+00  0.00000000000E+00  0.12525980253E-10  0.17130000000E+03  0.17130000000E+03 0. -1.
       11    1    1    2    0    0 -0.10523672896E-02  0.96114064306E-03  0.11554787630E+00  0.11555779596E+00  0.51109989000E-03 0. -1.
     -623    1    1    2    0    0 -0.12156567869E-03  0.60735548874E-03  0.61870004938E-04  0.17130000000E+03  0.17130000000E+03 0. -1.
      622    1    1    2    0    0  0.11739329683E-02 -0.15684961318E-02  0.38843902211E+01  0.38844422029E+01  0.20000000000E-01 0. -1.
</event>
<event>
 5   0  0.3603037E+08  0.9118800E+02  0.7818608E-02  0.1180000E+00
       11   -1    0    0    0    0  0.00000000000E+00  0.00000000000E+00  0.39999999673E+01  0.40000000000E+01  0.51109989000E-03 0.  1.
     -623   -1    0    0    0    0  0.00000000000E+00  0.00000000000E+00  0.12525980253E-10  0.17130000000E+03  0.17130000000E+03 0. -1.
       11    1    1    2    0    0  0.88673388875E-02  0.31393055314E-02  0.24270395564E+01  0.24270578391E+01  0.51109989000E-03 0.  1.
     -623    1    1    2    0    0  0.11572508803E-02 -0.14867514945E-02  0.17823112197E-03  0.17130000001E+03  0.17130000000E+03 0. -1.
      622    1    1    2    0    0 -0.10024589768E-01 -0.16525540369E-02  0.15727821798E+01  0.15729421504E+01  0.20000000000E-01 0.  1.
</event>
<event>
 5   0  0.3603037E+08  0.9118800E+02  0.7818608E-02  0.1180000E+00
       11   -1    0    0    0    0  0.00000000000E+00  0.00000000000E+00  0.39999999673E+01  0.40000000000E+01  0.51109989000E-03 0.  1.
     -623   -1    0    0    0    0  0.00000000000E+00  0.00000000000E+00  0.12525980253E-10  0.17130000000E+03  0.17130000000E+03 0. -1.
       11    1    1    2    0    0  0.19959534197E-01 -0.73389367093E-02  0.14404590041E+01  0.14406160650E+01  0.51109989000E-03 0.  1.
     -623    1    1    2    0    0 -0.24303857161E-03  0.56811032181E-03  0.32007883903E-03  0.17130000000E+03  0.17130000000E+03 0. -1.
      622    1    1    2    0    0 -0.19716495625E-01  0.67708263875E-02  0.25592208844E+01  0.25593839336E+01  0.20000000000E-01 0.  0.
</event>
<event>
 5   0  0.3603037E+08  0.9118800E+02  0.7818608E-02  0.1180000E+00
       11   -1    0    0    0    0  0.00000000000E+00  0.00000000000E+00  0.39999999673E+01  0.40000000000E+01  0.51109989000E-03 0. -1.
     -623   -1    0    0    0    0  0.00000000000E+00  0.00000000000E+00  0.12525980253E-10  0.17130000000E+03  0.17130000000E+03 0.  1.
       11    1    1    2    0    0 -0.14104372261E-03 -0.15339260417E-02  0.28975131059E-01  0.29020548995E-01  0.51109989000E-03 0. -1.
     -623    1    1    2    0    0  0.64960866157E-03  0.27117302141E-02  0.95980984788E-04  0.17130000002E+03  0.17130000000E+03 0.  1.
      622    1    1    2    0    0 -0.50856493896E-03 -0.11778041724E-02  0.39709288553E+01  0.39709794283E+01  0.20000000000E-01 0. -1.
</event>
<event>
 5   0  0.3603037E+08  0.9118800E+02  0.7818608E-02  0.1180000E+00
       11   -1    0    0    0    0  0.00000000000E+00  0.00000000000E+00  0.39999999673E+01  0.40000000000E+01  0.51109989000E-03 0. -1.
     -623   -1    0    0    0    0  0.00000000000E+00  0.00000000000E+00  0.12525980253E-10  0.17130000000E+03  0.17130000000E+03 0.  1.
       11    1    1    2    0    0 -0.64003235582E-02 -0.19036855401E-01  0.26445227202E+00  0.26521431221E+00  0.51109989000E-03 0. -1.
     -623    1    1    2    0    0  0.24686904847E-02  0.57010992493E-02  0.84155206501E-03  0.17130000011E+03  0.17130000000E+03 0.  1.
      622    1    1    2    0    0  0.39316330734E-02  0.13335756152E-01  0.37347061433E+01  0.37347855731E+01  0.20000000000E-01 0. -1.
</event>
<event>
 5   0  0.3603037E+08  0.9118800E+02  0.7818608E-02  0.1180000E+00
       11   -1    0    0    0    0  0.00000000000E+00  0.00000000000E+00  0.39999999673E+01  0.40000000000E+01  0.51109989000E-03 0.  1.
     -623   -1    0    0    0    0  0.00000000000E+00  0.00000000000E+00  0.12525980253E-10  0.17130000000E+03  0.17130000000E+03 0.  1.
       11    1    1    2    0    0 -0.42121428556E-02 -0.29436571265E-02  0.41435275676E+00  0.41438493640E+00  0.51109989000E-03 0.  1.
     -623    1    1    2    0    0  0.39466210357E-04 -0.73352923058E-04  0.91623194556E-04  0.17130000000E+03  0.17130000000E+03 0.  1.
      622    1    1    2    0    0  0.41726766452E-02  0.30170100496E-02  0.35855555874E+01  0.35856150636E+01  0.20000000000E-01 0.  1.
</event>
<event>
 5   0  0.3603037E+08  0.9118800E+02  0.7818608E-02  0.1180000E+00
       11   -1    0    0    0    0  0.00000000000E+00  0.00000000000E+00  0.39999999673E+01  0.40000000000E+01  0.51109989000E-03 0.  1.
     -623   -1    0    0    0    0  0.00000000000E+00  0.00000000000E+00  0.12525980253E-10  0.17130000000E+03  0.17130000000E+03 0.  1.
       11    1    1    2    0    0 -0.22322405071E-01 -0.37416738348E-02  0.32213894962E+00  0.32293351324E+00  0.51109989000E-03 0.  1.
     -623    1    1    2    0    0  0.19360826955E-01 -0.19434602339E-01  0.92535539126E-03  0.17130000220E+03  0.17130000000E+03 0.  1.
      622    1    1    2    0    0  0.29615781157E-02  0.23176276174E-01  0.36769356624E+01  0.36770642877E+01  0.20000000000E-01 0.  1.
</event>
<event>
 5   0  0.3603037E+08  0.9118800E+02  0.7818608E-02  0.1180000E+00
       11   -1    0    0    0    0  0.00000000000E+00  0.00000000000E+00  0.39999999673E+01  0.40000000000E+01  0.51109989000E-03 0. -1.
     -623   -1    0    0    0    0  0.00000000000E+00  0.00000000000E+00  0.12525980253E-10  0.17130000000E+03  0.17130000000E+03 0.  1.
       11    1    1    2    0    0  0.75168634149E-03  0.96668578515E-03  0.32918576875E-01  0.32945309808E-01  0.51109989000E-03 0. -1.
     -623    1    1    2    0    0 -0.19903473331E-02 -0.20973276581E-02  0.77494773218E-04  0.17130000002E+03  0.17130000000E+03 0.  1.
      622    1    1    2    0    0  0.12386609916E-02  0.11306418729E-02  0.39670038957E+01  0.39670546658E+01  0.20000000000E-01 0. -1.
</event>
<event>
 5   0  0.3603037E+08  0.9118800E+02  0.7818608E-02  0.1180000E+00
       11   -1    0    0    0    0  0.00000000000E+00  0.00000000000E+00  0.39999999673E+01  0.40000000000E+01  0.51109989000E-03 0. -1.
     -623   -1    0    0    0    0  0.00000000000E+00  0.00000000000E+00  0.12525980253E-10  0.17130000000E+03  0.17130000000E+03 0. -1.
       11    1    1    2    0    0  0.12474798468E-01  0.91502610811E-02  0.33226759249E+00  0.33262796352E+00  0.51109989000E-03 0. -1.
     -623    1    1    2    0    0 -0.15069498707E-01 -0.46457297412E-02  0.41928446255E-03  0.17130000073E+03  0.17130000000E+03 0. -1.
      622    1    1    2    0    0  0.25947002396E-02 -0.45045313399E-02  0.36673130904E+01  0.36673713101E+01  0.20000000000E-01 0. -1.
</event>
<event>
 5   0  0.3603037E+08  0.9118800E+02  0.7818608E-02  0.1180000E+00
       11   -1    0    0    0    0  0.00000000000E+00  0.00000000000E+00  0.39999999673E+01  0.40000000000E+01  0.51109989000E-03 0. -1.
     -623   -1    0    0    0    0  0.00000000000E+00  0.00000000000E+00  0.12525980253E-10  0.17130000000E+03  0.17130000000E+03 0. -1.
       11    1    1    2    0    0 -0.12117018826E-01  0.27107996068E-01  0.90205156898E+00  0.90254028161E+00  0.51109989000E-03 0. -1.
     -623    1    1    2    0    0  0.11806199263E-01  0.31450554061E-02  0.70145065162E-03  0.17130000044E+03  0.17130000000E+03 0. -1.
      622    1    1    2    0    0  0.31081956242E-03 -0.30253051474E-01  0.30972469477E+01  0.30974592812E+01  0.20000000000E-01 0. -1.
</event>
<event>
 5   0  0.3603037E+08  0.9118800E+02  0.7818608E-02  0.1180000E+00
       11   -1    0    0    0    0  0.00000000000E+00  0.00000000000E+00  0.39999999673E+01  0.40000000000E+01  0.51109989000E-03 0. -1.
     -623   -1    0    0    0    0  0.00000000000E+00  0.00000000000E+00  0.12525980253E-10  0.17130000000E+03  0.17130000000E+03 0. -1.
       11    1    1    2    0    0  0.63025905965E-02 -0.12147596634E-01  0.43092034312E+00  0.43113790147E+00  0.51109989000E-03 0. -1.
     -623    1    1    2    0    0 -0.12035070238E-01  0.13214026970E-01  0.27926241248E-03  0.17130000093E+03  0.17130000000E+03 0. -1.
      622    1    1    2    0    0  0.57324796418E-02 -0.10664303368E-02  0.35688003618E+01  0.35688611659E+01  0.20000000000E-01 0. -1.
</event>
<event>
 5   0  0.3603037E+08  0.9118800E+02  0.7818608E-02  0.1180000E+00
       11   -1    0    0    0    0  0.00000000000E+00  0.00000000000E+00  0.39999999673E+01  0.40000000000E+01  0.51109989000E-03 0.  1.
     -623   -1    0    0    0    0  0.00000000000E+00  0.00000000000E+00  0.12525980253E-10  0.17130000000E+03  0.17130000000E+03 0.  1.
       11    1    1    2    0    0  0.64424926272E-02 -0.44591152804E-02  0.42889983604E+00  0.42897170069E+00  0.51109989000E-03 0.  1.
     -623    1    1    2    0    0 -0.65279682213E-03 -0.14056137971E-02  0.13735521114E-03  0.17130000001E+03  0.17130000000E+03 0.  1.
      622    1    1    2    0    0 -0.57896958050E-02  0.58647290775E-02  0.35709627761E+01  0.35710282922E+01  0.20000000000E-01 0.  1.
</event>
<event>
 5   0  0.3603037E+08  0.9118800E+02  0.7818608E-02  0.1180000E+00
       11   -1    0    0    0    0  0.00000000000E+00  0.00000000000E+00  0.39999999673E+01  0.40000000000E+01  0.51109989000E-03 0.  1.
     -623   -1    0    0    0    0  0.00000000000E+00  0.00000000000E+00  0.12525980253E-10  0.17130000000E+03  0.17130000000E+03 0. -1.
       11    1    1    2    0    0  0.13093261413E-02 -0.25092464934E-02  0.23964639575E-02  0.37436499089E-02  0.51109989000E-03 0.  1.
     -623    1    1    2    0    0 -0.27347007985E-02  0.10873542353E-02  0.13977386120E-02  0.17130000003E+03  0.17130000000E+03 0. -1.
      622    1    1    2    0    0  0.14253746571E-02  0.14218922581E-02  0.39962057648E+01  0.39962563191E+01  0.20000000000E-01 0.  1.
</event>
<event>
 5   0  0.3603037E+08  0.9118800E+02  0.7818608E-02  0.1180000E+00
       11   -1    0    0    0    0  0.00000000000E+00  0.00000000000E+00  0.39999999673E+01  0.40000000000E+01  0.51109989000E-03 0.  1.
     -623   -1    0    0    0    0  0.00000000000E+00  0.00000000000E+00  0.12525980253E-10  0.17130000000E+03  0.17130000000E+03 0.  1.
       11    1    1    2    0    0 -0.20933264590E-02 -0.55120394509E-02  0.25402410600E+01  0.25402479542E+01  0.51109989000E-03 0.  1.
     -623    1    1    2    0    0 -0.31463284641E-02  0.41540036156E-02  0.15399320799E-03  0.17130000008E+03  0.17130000000E+03 0.  1.
      622    1    1    2    0    0  0.52396549231E-02  0.13580358353E-02  0.14596049142E+01  0.14597519665E+01  0.20000000000E-01 0. -1.
</event>
<event>
 5   0  0.3603037E+08  0.9118800E+02  0.7818608E-02  0.1180000E+00
       11   -1    0    0    0    0  0.00000000000E+00  0.00000000000E+00  0.39999999673E+01  0.40000000000E+01  0.51109989000E-03 0. -1.
     -623   -1    0    0    0    0  0.00000000000E+00  0.00000000000E+00  0.12525980253E-10  0.17130000000E+03  0.17130000000E+03 0. -1.
       11    1    1    2    0    0  0.44492163417E-03 -0.36848209427E-03  0.20444697971E-01  0.20459243159E-01  0.51109989000E-03 0. -1.
     -623    1    1    2    0    0 -0.31782962289E-04 -0.22344365269E-04  0.64810574765E-04  0.17130000000E+03  0.17130000000E+03 0. -1.
      622    1    1    2    0    0 -0.41313867188E-03  0.39082645954E-03  0.39794904588E+01  0.39795407568E+01  0.20000000000E-01 0. -1.
</event>
<event>
 5   0  0.3603037E+08  0.9118800E+02  0.7818608E-02  0.1180000E+00
       11   -1    0    0    0    0  0.00000000000E+00  0.00000000000E+00  0.39999999673E+01  0.40000000000E+01  0.51109989000E-03 0. -1.
     -623   -1    0    0    0    0  0.00000000000E+00  0.00000000000E+00  0.12525980253E-10  0.17130000000E+03  0.17130000000E+03 0. -1.
       11    1    1    2    0    0  0.12023563589E-03 -0.85427235366E-04  0.30186783936E-01  0.30191470676E-01  0.51109989000E-03 0. -1.
     -623    1    1    2    0    0 -0.15261716545E-03 -0.20886338184E-03  0.55045927425E-04  0.17130000000E+03  0.17130000000E+03 0. -1.
      622    1    1    2    0    0  0.32381529564E-04  0.29429061721E-03  0.39697581375E+01  0.39698085291E+01  0.20000000000E-01 0. -1.
</event>
<event>
 5   0  0.3603037E+08  0.9118800E+02  0.7818608E-02  0.1180000E+00
       11   -1    0    0    0    0  0.00000000000E+00  0.00000000000E+00  0.39999999673E+01  0.40000000000E+01  0.51109989000E-03 0. -1.
     -623   -1    0    0    0    0  0.00000000000E+00  0.00000000000E+00  0.12525980253E-10  0.17130000000E+03  0.17130000000E+03 0. -1.
       11    1    1    2    0    0 -0.66063022203E-02 -0.47600896989E-02  0.43736334548E+00  0.43743943452E+00  0.51109989000E-03 0. -1.
     -623    1    1    2    0    0 -0.40845854898E-02 -0.53604744564E-02  0.16274595217E-03  0.17130000013E+03  0.17130000000E+03 0. -1.
      622    1    1    2    0    0  0.10690887710E-01  0.10120564155E-01  0.35624738759E+01  0.35625604328E+01  0.20000000000E-01 0. -1.
</event>
<event>
 5   0  0.3603037E+08  0.9118800E+02  0.7818608E-02  0.1180000E+00
       11   -1    0    0    0    0  0.00000000000E+00  0.00000000000E+00  0.39999999673E+01  0.40000000000E+01  0.51109989000E-03 0.  1.
     -623   -1    0    0    0    0  0.00000000000E+00  0.00000000000E+00  0.12525980253E-10  0.17130000000E+03  0.17130000000E+03 0.  1.
       11    1    1    2    0    0 -0.72228490819E-02 -0.18809017147E-02  0.24337744095E+00  0.24349239685E+00  0.51109989000E-03 0.  1.
     -623    1    1    2    0    0  0.79007033477E-02  0.42671964397E-02  0.16921912614E-03  0.17130000024E+03  0.17130000000E+03 0.  1.
      622    1    1    2    0    0 -0.67785426578E-03 -0.23862947250E-02  0.37564533073E+01  0.37565073677E+01  0.20000000000E-01 0.  1.
</event>
<event>
 5   0  0.3603037E+08  0.9118800E+02  0.7818608E-02  0.1180000E+00
       11   -1    0    0    0    0  0.00000000000E+00  0.00000000000E+00  0.39999999673E+01  0.40000000000E+01  0.51109989000E-03 0. -1.
     -623   -1    0    0    0    0  0.00000000000E+00  0.00000000000E+00  0.12525980253E-10  0.17130000000E+03  0.17130000000E+03 0.  1.
       11    1    1    2    0    0  0.10020475178E-01  0.14700278048E-02  0.22480177990E+01  0.22480406706E+01  0.51109989000E-03 0. -1.
     -623    1    1    2    0    0 -0.19322482946E-02  0.31121582040E-02  0.16170425460E-03  0.17130000004E+03  0.17130000000E+03 0.  1.
      622    1    1    2    0    0 -0.80882268837E-02 -0.45821860089E-02  0.17518204641E+01  0.17519592901E+01  0.20000000000E-01 0. -1.
</event>
<event>
 5   0  0.3603037E+08  0.9118800E+02  0.7818608E-02  0.1180000E+00
       11   -1    0    0    0    0  0.00000000000E+00  0.00000000000E+00  0.39999999673E+01  0.40000000000E+01  0.51109989000E-03 0. -1.
     -623   -1    0    0    0    0  0.00000000000E+00  0.00000000000E+00  0.12525980253E-10  0.17130000000E+03  0.17130000000E+03 0.  1.
       11    1    1    2    0    0 -0.42999115528E-02  0.18274704301E-01  0.13874992663E+01  0.13876263651E+01  0.51109989000E-03 0. -1.
     -623    1    1    2    0    0  0.24300458399E-02  0.19302474815E-02  0.28246295522E-03  0.17130000003E+03  0.17130000000E+03 0.  1.
      622    1    1    2    0    0  0.18698657130E-02 -0.20204951782E-01  0.26122182381E+01  0.26123736065E+01  0.20000000000E-01 0. -1.
</event>
<event>
 5   0  0.3603037E+08  0.9118800E+02  0.7818608E-02  0.1180000E+00
       11   -1    0    0    0    0  0.00000000000E+00  0.00000000000E+00  0.39999999673E+01  0.40000000000E+01  0.51109989000E-03 0.  1.
     -623   -1    0    0    0    0  0.00000000000E+00  0.00000000000E+00  0.12525980253E-10  0.17130000000E+03  0.17130000000E+03 0.  1.
       11    1    1    2    0    0  0.17145365578E-01 -0.54876362848E-02  0.17802493602E+01  0.17803404515E+01  0.51109989000E-03 0.  1.
     -623    1    1    2    0    0 -0.18238631262E-03  0.36165723407E-04  0.25268002679E-03  0.17130000000E+03  0.17130000000E+03 0.  1.
      622    1    1    2    0    0 -0.16962979265E-01  0.54514705614E-02  0.22194979271E+01  0.22196595482E+01  0.20000000000E-01 0.  0.
</event>
<event>
 5   0  0.3603037E+08  0.9118800E+02  0.7818608E-02  0.1180000E+00
       11   -1    0    0    0    0  0.00000000000E+00  0.00000000000E+00  0.39999999673E+01  0.40000000000E+01  0.51109989000E-03 0. -1.
     -623   -1    0    0    0    0  0.00000000000E+00  0.00000000000E+00  0.12525980253E-10  0.17130000000E+03  0.17130000000E+03 0. -1.
       11    1    1    2    0    0 -0.53079063202E-04  0.60414469460E-03  0.35064835297E-01  0.35073803686E-01  0.51109989000E-03 0. -1.
     -623    1    1    2    0    0 -0.40992574173E-04  0.12217844108E-03  0.59446073274E-04  0.17130000000E+03  0.17130000000E+03 0. -1.
      622    1    1    2    0    0  0.94071637375E-04 -0.72632313568E-03  0.39648756860E+01  0.39649261963E+01  0.20000000000E-01 0. -1.
</event>
<event>
 5   0  0.3603037E+08  0.9118800E+02  0.7818608E-02  0.1180000E+00
       11   -1    0    0    0    0  0.00000000000E+00  0.00000000000E+00  0.39999999673E+01  0.40000000000E+01  0.51109989000E-03 0. -1.
     -623   -1    0    0    0    0  0.00000000000E+00  0.00000000000E+00  0.12525980253E-10  0.17130000000E+03  0.17130000000E+03 0.  1.
       11    1    1    2    0    0 -0.10894182664E-01 -0.98236475163E-02  0.43150030242E+00  0.43174988069E+00  0.51109989000E-03 0. -1.
     -623    1    1    2    0    0  0.37706029864E-03  0.12978582231E-02  0.33128681247E-03  0.17130000001E+03  0.17130000000E+03 0.  1.
      622    1    1    2    0    0  0.10517122366E-01  0.85257892932E-02  0.35681683781E+01  0.35682501137E+01  0.20000000000E-01 0. -1.
</event>
<event>
 5   0  0.3603037E+08  0.9118800E+02  0.7818608E-02  0.1180000E+00
       11   -1    0    0    0    0  0.00000000000E+00  0.00000000000E+00  0.39999999673E+01  0.40000000000E+01  0.51109989000E-03 0.  1.
     -623   -1    0    0    0    0  0.00000000000E+00  0.00000000000E+00  0.12525980253E-10  0.17130000000E+03  0.17130000000E+03 0. -1.
       11    1    1    2    0    0  0.59107925463E-03  0.55352524401E-04  0.31741817758E-02  0.32694175273E-02  0.51109989000E-03 0.  1.
     -623    1    1    2    0    0 -0.82657053983E-03  0.13694655908E-02  0.14551276815E-03  0.17130000001E+03  0.17130000000E+03 0. -1.
      622    1    1    2    0    0  0.23549128519E-03 -0.14248181152E-02  0.39966802728E+01  0.39967305749E+01  0.20000000000E-01 0.  1.
</event>
<event>
 5   0  0.3603037E+08  0.9118800E+02  0.7818608E-02  0.1180000E+00
       11   -1    0    0    0    0  0.00000000000E+00  0.00000000000E+00  0.39999999673E+01  0.40000000000E+01  0.51109989000E-03 0.  1.
     -623   -1    0    0    0    0  0.00000000000E+00  0.00000000000E+00  0.12525980253E-10  0.17130000000E+03  0.17130000000E+03 0. -1.
       11    1    1    2    0    0 -0.15002088108E-02 -0.36648941270E-02  0.10880665799E+01  0.10880739063E+01  0.51109989000E-03 0.  1.
     -623    1    1    2    0    0 -0.11761410394E-02  0.13783076528E-02  0.78114978385E-04  0.17130000001E+03  0.17130000000E+03 0. -1.
      622    1    1    2    0    0  0.26763498502E-02  0.22865864742E-02  0.29118552725E+01  0.29119260841E+01  0.20000000000E-01 0.  1.
</event>
<event>
 5   0  0.3603037E+08  0.9118800E+02  0.7818608E-02  0.1180000E+00
       11   -1    0    0    0    0  0.00000000000E+00  0.00000000000E+00  0.39999999673E+01  0.40000000000E+01  0.51109989000E-03 0. -1.
     -623   -1    0    0    0    0  0.00000000000E+00  0.00000000000E+00  0.12525980253E-10  0.17130000000E+03  0.17130000000E+03 0.  1.
       11    1    1    2    0    0  0.41676496022E-02 -0.41701073350E-02  0.73875009238E+00  0.73877379442E+00  0.51109989000E-03 0. -1.
     -623    1    1    2    0    0 -0.98852702908E-02  0.60695179908E-02  0.90954721554E-04  0.17130000039E+03  0.17130000000E+03 0.  1.
      622    1    1    2    0    0  0.57176206886E-02 -0.18994106558E-02  0.32611589203E+01  0.32612258128E+01  0.20000000000E-01 0. -1.
</event>
<event>
 5   0  0.3603037E+08  0.9118800E+02  0.7818608E-02  0.1180000E+00
       11   -1    0    0    0    0  0.00000000000E+00  0.00000000000E+00  0.39999999673E+01  0.40000000000E+01  0.51109989000E-03 0.  1.
     -623   -1    0    0    0    0  0.00000000000E+00  0.00000000000E+00  0.12525980253E-10  0.17130000000E+03  0.17130000000E+03 0. -1.
       11    1    1    2    0    0  0.15955698473E-02  0.15897651371E-02  0.15089028291E+00  0.15090795835E+00  0.51109989000E-03 0.  1.
     -623    1    1    2    0    0  0.96922898791E-03  0.61164791588E-03  0.71091368210E-04  0.17130000000E+03  0.17130000000E+03 0. -1.
      622    1    1    2    0    0 -0.25647988352E-02 -0.22014130530E-02  0.38490385931E+01  0.38490920378E+01  0.20000000000E-01 0.  0.
</event>
<event>
 5   0  0.3603037E+08  0.9118800E+02  0.7818608E-02  0.1180000E+00
       11   -1    0    0    0    0  0.00000000000E+00  0.00000000000E+00  0.39999999673E+01  0.40000000000E+01  0.51109989000E-03 0. -1.
     -623   -1    0    0    0    0  0.00000000000E+00  0.00000000000E+00  0.12525980253E-10  0.17130000000E+03  0.17130000000E+03 0.  1.
       11    1    1    2    0    0  0.20679372939E-02 -0.64882903761E-04  0.19886238685E+00  0.19887380597E+00  0.51109989000E-03 0. -1.
     -623    1    1    2    0    0  0.77078644864E-04 -0.55838549184E-04  0.64610020913E-04  0.17130000000E+03  0.17130000000E+03 0.  1.
      622    1    1    2    0    0 -0.21450159388E-02  0.12072145295E-03  0.38010729705E+01  0.38011261940E+01  0.20000000000E-01 0. -1.
</event>
<event>
 5   0  0.3603037E+08  0.9118800E+02  0.7818608E-02  0.1180000E+00
       11   -1    0    0    0    0  0.00000000000E+00  0.00000000000E+00  0.39999999673E+01  0.40000000000E+01  0.51109989000E-03 0.  1.
     -623   -1    0    0    0    0  0.00000000000E+00  0.00000000000E+00  0.12525980253E-10  0.17130000000E+03  0.17130000000E+03 0. -1.
       11    1    1    2    0    0  0.22836474794E-02  0.44319377810E-02  0.15927352116E+00  0.15935235449E+00  0.51109989000E-03 0.  1.
     -623    1    1    2    0    0 -0.24547642708E-03  0.32570659594E-03  0.13436378829E-03  0.17130000000E+03  0.17130000000E+03 0. -1.
      622    1    1    2    0    0 -0.20381710523E-02 -0.47576443769E-02  0.38405920824E+01  0.38406476450E+01  0.20000000000E-01 0.  1.
</event>
<event>
 5   0  0.3603037E+08  0.9118800E+02  0.7818608E-02  0.1180000E+00
       11   -1    0    0    0    0  0.00000000000E+00  0.00000000000E+00  0.39999999673E+01  0.40000000000E+01  0.51109989000E-03 0.  1.
     -623   -1    0    0    0    0  0.00000000000E+00  0.00000000000E+00  0.12525980253E-10  0.17130000000E+03  0.17130000000E+03 0. -1.
       11    1    1    2    0    0 -0.96208117460E-03  0.29335823265E-03  0.12355324812E-01  0.12406729311E-01  0.51109989000E-03 0.  1.
     -623    1    1    2    0    0  0.89497635309E-03  0.96011426489E-03  0.10173037683E-03  0.17130000001E+03  0.17130000000E+03 0. -1.
      622    1    1    2    0    0  0.67104821508E-04 -0.12534724975E-02  0.39875429122E+01  0.39875932656E+01  0.20000000000E-01 0.  1.
</event>
<event>
 5   0  0.3603037E+08  0.9118800E+02  0.7818608E-02  0.1180000E+00
       11   -1    0    0    0    0  0.00000000000E+00  0.00000000000E+00  0.39999999673E+01  0.40000000000E+01  0.51109989000E-03 0. -1.
     -623   -1    0    0    0    0  0.00000000000E+00  0.00000000000E+00  0.12525980253E-10  0.17130000000E+03  0.17130000000E+03 0. -1.
       11    1    1    2    0    0 -0.40454257314E-03  0.77385784062E-03  0.61235883198E-01  0.61244241547E-01  0.51109989000E-03 0. -1.
     -623    1    1    2    0    0  0.27718597136E-03  0.33186873218E-03  0.59261315158E-04  0.17130000000E+03  0.17130000000E+03 0. -1.
      622    1    1    2    0    0  0.12735660177E-03 -0.11057265728E-02  0.39387048228E+01  0.39387557579E+01  0.20000000000E-01 0. -1.
</event>
<event>
 5   0  0.3603037E+08  0.9118800E+02  0.7818608E-02  0.1180000E+00
       11   -1    0    0    0    0  0.00000000000E+00  0.00000000000E+00  0.39999999673E+01  0.40000000000E+01  0.51109989000E-03 0. -1.
     -623   -1    0    0    0    0  0.00000000000E+00  0.00000000000E+00  0.12525980253E-10  0.17130000000E+03  0.17130000000E+03 0. -1.
       11    1    1    2    0    0 -0.75514035796E-02 -0.25543363661E-02  0.18950140653E+01  0.18950309014E+01  0.51109989000E-03 0. -1.
     -623    1    1    2    0    0  0.65899284375E-03  0.13253209759E-02  0.12346874617E-03  0.17130000001E+03  0.17130000000E+03 0. -1.
      622    1    1    2    0    0  0.68924107359E-02  0.12290153902E-02  0.21048624334E+01  0.21049690922E+01  0.20000000000E-01 0. -1.
</event>
<event>
 5   0  0.3603037E+08  0.9118800E+02  0.7818608E-02  0.1180000E+00
       11   -1    0    0    0    0  0.00000000000E+00  0.00000000000E+00  0.39999999673E+01  0.40000000000E+01  0.51109989000E-03 0. -1.
     -623   -1    0    0    0    0  0.00000000000E+00  0.00000000000E+00  0.12525980253E-10  0.17130000000E+03  0.17130000000E+03 0.  1.
       11    1    1    2    0    0  0.63866709504E-03  0.10272009627E-02  0.19367299048E-01  0.19411762715E-01  0.51109989000E-03 0. -1.
     -623    1    1    2    0    0 -0.17929254296E-03 -0.90701747286E-05  0.94832009478E-04  0.17130000000E+03  0.17130000000E+03 0.  1.
      622    1    1    2    0    0 -0.45937455208E-03 -0.10181307879E-02  0.39805378363E+01  0.39805882372E+01  0.20000000000E-01 0. -1.
</event>
<event>
 5   0  0.3603037E+08  0.9118800E+02  0.7818608E-02  0.1180000E+00
       11   -1    0    0    0    0  0.00000000000E+00  0.00000000000E+00  0.39999999673E+01  0.40000000000E+01  0.51109989000E-03 0.  1.
     -623   -1    0    0    0    0  0.00000000000E+00  0.00000000000E+00  0.12525980253E-10  0.17130000000E+03  0.17130000000E+03 0.  1.
       11    1    1    2    0    0 -0.74003296642E-03  0.12746997622E-01  0.30138819529E+00  0.30165897812E+00  0.51109989000E-03 0.  1.
     -623    1    1    2    0    0 -0.18622918041E-02 -0.53159508786E-02  0.33330307999E-03  0.17130000009E+03  0.17130000000E+03 0.  1.
      622    1    1    2    0    0  0.26023247705E-02 -0.74310467431E-02  0.36982784690E+01  0.36983409289E+01  0.20000000000E-01 0.  1.
</event>
<event>
 5   0  0.3603037E+08  0.9118800E+02  0.7818608E-02  0.1180000E+00
       11   -1    0    0    0    0  0.00000000000E+00  0.00000000000E+00  0.39999999673E+01  0.40000000000E+01  0.51109989000E-03 0.  1.
     -623   -1    0    0    0    0  0.00000000000E+00  0.00000000000E+00  0.12525980253E-10  0.17130000000E+03  0.17130000000E+03 0.  1.
       11    1    1    2    0    0 -0.74787445178E-02  0.13709454586E-01  0.78619187868E+00  0.78634713205E+00  0.51109989000E-03 0.  1.
     -623    1    1    2    0    0  0.20099297977E-02 -0.11057205678E-02  0.24684082010E-03  0.17130000002E+03  0.17130000000E+03 0.  1.
      622    1    1    2    0    0  0.54688147201E-02 -0.12603734018E-01  0.32135612479E+01  0.32136528524E+01  0.20000000000E-01 0.  1.
</event>
<event>
 5   0  0.3603037E+08  0.9118800E+02  0.7818608E-02  0.1180000E+00
       11   -1    0    0    0    0  0.00000000000E+00  0.00000000000E+00  0.39999999673E+01  0.40000000000E+01  0.51109989000E-03 0. -1.
     -623   -1    0    0    0    0  0.00000000000E+00  0.00000000000E+00  0.12525980253E-10  0.17130000000E+03  0.17130000000E+03 0.  1.
       11    1    1    2    0    0  0.88867908483E-03 -0.45990540266E-02  0.55149168409E+00  0.55151181301E+00  0.51109989000E-03 0. -1.
     -623    1    1    2    0    0 -0.58007022755E-03  0.10484784830E-02  0.79939089408E-04  0.17130000000E+03  0.17130000000E+03 0.  1.
      622    1    1    2    0    0 -0.30860885728E-03  0.35505755435E-02  0.34484283442E+01  0.34484881828E+01  0.20000000000E-01 0. -1.
</event>
<event>
 5   0  0.3603037E+08  0.9118800E+02  0.7818608E-02  0.1180000E+00
       11   -1    0    0    0    0  0.00000000000E+00  0.00000000000E+00  0.39999999673E+01  0.40000000000E+01  0.51109989000E-03 0. -1.
     -623   -1    0    0    0    0  0.00000000000E+00  0.00000000000E+00  0.12525980253E-10  0.17130000000E+03  0.17130000000E+03 0.  1.
       11    1    1    2    0    0  0.74783551684E-02 -0.27755702638E-01  0.32432558534E+00  0.32559737614E+00  0.51109989000E-03 0. -1.
     -623    1    1    2    0    0  0.40664782615E-02 -0.19493232550E-02  0.14644685494E-02  0.17130000007E+03  0.17130000000E+03 0.  1.
      622    1    1    2    0    0 -0.11544833430E-01  0.29705025893E-01  0.36742099135E+01  0.36744025582E+01  0.20000000000E-01 0. -1.
</event>
<event>
 5   0  0.3603037E+08  0.9118800E+02  0.7818608E-02  0.1180000E+00
       11   -1    0    0    0    0  0.00000000000E+00  0.00000000000E+00  0.39999999673E+01  0.40000000000E+01  0.51109989000E-03 0.  1.
     -623   -1    0    0    0    0  0.00000000000E+00  0.00000000000E+00  0.12525980253E-10  0.17130000000E+03  0.17130000000E+03 0. -1.
       11    1    1    2    0    0  0.39064459234E-04 -0.19043507380E-02  0.41143248928E-01  0.41190487152E-01  0.51109989000E-03 0.  1.
     -623    1    1    2    0    0  0.55679266941E-03  0.13712869423E-02  0.97813298891E-04  0.17130000001E+03  0.17130000000E+03 0. -1.
      622    1    1    2    0    0 -0.59585712864E-03  0.53306379574E-03  0.39587589051E+01  0.39588095064E+01  0.20000000000E-01 0.  1.
</event>
<event>
 5   0  0.3603037E+08  0.9118800E+02  0.7818608E-02  0.1180000E+00
       11   -1    0    0    0    0  0.00000000000E+00  0.00000000000E+00  0.39999999673E+01  0.40000000000E+01  0.51109989000E-03 0. -1.
     -623   -1    0    0    0    0  0.00000000000E+00  0.00000000000E+00  0.12525980253E-10  0.17130000000E+03  0.17130000000E+03 0.  1.
       11    1    1    2    0    0 -0.13322663548E-02  0.17677047605E-02  0.17680745058E+00  0.17682204477E+00  0.51109989000E-03 0. -1.
     -623    1    1    2    0    0 -0.10379511297E-02 -0.82558390284E-03  0.67730362638E-04  0.17130000001E+03  0.17130000000E+03 0.  1.
      622    1    1    2    0    0  0.23702174845E-02 -0.94212085763E-03  0.38231247864E+01  0.38231779501E+01  0.20000000000E-01 0. -1.
</event>
<event>
 5   0  0.3603037E+08  0.9118800E+02  0.7818608E-02  0.1180000E+00
       11   -1    0    0    0    0  0.00000000000E+00  0.00000000000E+00  0.39999999673E+01  0.40000000000E+01  0.51109989000E-03 0. -1.
     -623   -1    0    0    0    0  0.00000000000E+00  0.00000000000E+00  0.12525980253E-10  0.17130000000E+03  0.17130000000E+03 0. -1.
       11    1    1    2    0    0  0.11732976528E-03  0.37529464853E-03  0.11183108169E-01  0.11201684777E-01  0.51109989000E-03 0. -1.
     -623    1    1    2    0    0 -0.92116277464E-04  0.31213237040E-03  0.68744335803E-04  0.17130000000E+03  0.17130000000E+03 0. -1.
      622    1    1    2    0    0 -0.25213487819E-04 -0.68742701893E-03  0.39887481149E+01  0.39887983149E+01  0.20000000000E-01 0. -1.
</event>
<event>
 5   0  0.3603037E+08  0.9118800E+02  0.7818608E-02  0.1180000E+00
       11   -1    0    0    0    0  0.00000000000E+00  0.00000000000E+00  0.39999999673E+01  0.40000000000E+01  0.51109989000E-03 0.  1.
     -623   -1    0    0    0    0  0.00000000000E+00  0.00000000000E+00  0.12525980253E-10  0.17130000000E+03  0.17130000000E+03 0.  1.
       11    1    1    2    0    0 -0.39630474868E-03  0.78877043584E-03  0.11754031726E-01  0.11798207484E-01  0.51109989000E-03 0. -1.
     -623    1    1    2    0    0  0.53102582637E-04 -0.15529723492E-03  0.94356528568E-04  0.17130000000E+03  0.17130000000E+03 0.  1.
      622    1    1    2    0    0  0.34320216605E-03 -0.63347320091E-03  0.39881515791E+01  0.39882017924E+01  0.20000000000E-01 0.  1.
</event>
<event>
 5   0  0.3603037E+08  0.9118800E+02  0.7818608E-02  0.1180000E+00
       11   -1    0    0    0    0  0.00000000000E+00  0.00000000000E+00  0.39999999673E+01  0.40000000000E+01  0.51109989000E-03 0.  1.
     -623   -1    0    0    0    0  0.00000000000E+00  0.00000000000E+00  0.12525980253E-10  0.17130000000E+03  0.17130000000E+03 0.  1.
       11    1    1    2    0    0  0.50834783523E-02 -0.61415709694E-03  0.58690899419E+00  0.58693155276E+00  0.51109989000E-03 0.  1.
     -623    1    1    2    0    0 -0.20666798726E-03  0.43450374237E-02  0.86703373787E-04  0.17130000006E+03  0.17130000000E+03 0.  1.
      622    1    1    2    0    0 -0.48768103650E-02 -0.37308803268E-02  0.34130042698E+01  0.34130683920E+01  0.20000000000E-01 0.  1.
</event>
<event>
 5   0  0.3603037E+08  0.9118800E+02  0.7818608E-02  0.1180000E+00
       11   -1    0    0    0    0  0.00000000000E+00  0.00000000000E+00  0.39999999673E+01  0.40000000000E+01  0.51109989000E-03 0.  1.
     -623   -1    0    0    0    0  0.00000000000E+00  0.00000000000E+00  0.12525980253E-10  0.17130000000E+03  0.17130000000E+03 0.  1.
       11    1    1    2    0    0 -0.34369467632E-02  0.38110832538E-03  0.21361235124E+00  0.21364095036E+00  0.51109989000E-03 0.  1.
     -623    1    1    2    0    0 -0.15098208552E-03 -0.20807176064E-03  0.83092182246E-04  0.17130000000E+03  0.17130000000E+03 0.  1.
      622    1    1    2    0    0  0.35879288487E-02 -0.17303656474E-03  0.37863045239E+01  0.37863590494E+01  0.20000000000E-01 0.  1.
</event>
<event>
 5   0  0.3603037E+08  0.9118800E+02  0.7818608E-02  0.1180000E+00
       11   -1    0    0    0    0  0.00000000000E+00  0.00000000000E+00  0.39999999673E+01  0.40000000000E+01  0.51109989000E-03 0.  1.
     -623   -1    0    0    0    0  0.00000000000E+00  0.00000000000E+00  0.12525980253E-10  0.17130000000E+03  0.17130000000E+03 0.  1.
       11    1    1    2    0    0 -0.39286110554E-02 -0.18432309039E-01  0.21945306386E-01  0.28931672887E-01  0.51109989000E-03 0.  1.
     -623    1    1    2    0    0 -0.12313360451E-01  0.84833089107E-02  0.70831767975E-02  0.17130000080E+03  0.17130000000E+03 0.  1.
      622    1    1    2    0    0  0.16241971506E-01  0.99490001284E-02  0.39709714842E+01  0.39710675281E+01  0.20000000000E-01 0.  1.
</event>
<event>
 5   0  0.3603037E+08  0.9118800E+02  0.7818608E-02  0.1180000E+00
       11   -1    0    0    0    0  0.00000000000E+00  0.00000000000E+00  0.39999999673E+01  0.40000000000E+01  0.51109989000E-03 0.  1.
     -623   -1    0    0    0    0  0.00000000000E+00  0.00000000000E+00  0.12525980253E-10  0.17130000000E+03  0.17130000000E+03 0. -1.
       11    1    1    2    0    0 -0.16071685975E-01  0.11241957898E-01  0.70428888623E+00  0.70456211734E+00  0.51109989000E-03 0.  1.
     -623    1    1    2    0    0  0.76033896618E-02 -0.14798989034E-01  0.34749782636E-03  0.17130000081E+03  0.17130000000E+03 0. -1.
      622    1    1    2    0    0  0.84682963129E-02  0.35570311365E-02  0.32953635833E+01  0.32954370743E+01  0.20000000000E-01 0.  1.
</event>
<event>
 5   0  0.3603037E+08  0.9118800E+02  0.7818608E-02  0.1180000E+00
       11   -1    0    0    0    0  0.00000000000E+00  0.00000000000E+00  0.39999999673E+01  0.40000000000E+01  0.51109989000E-03 0.  1.
     -623   -1    0    0    0    0  0.00000000000E+00  0.00000000000E+00  0.12525980253E-10  0.17130000000E+03  0.17130000000E+03 0.  1.
       11    1    1    2    0    0  0.42134347895E-02 -0.91338910066E-02  0.18138823715E+01  0.18139103340E+01  0.51109989000E-03 0.  1.
     -623    1    1    2    0    0  0.24226767662E-02  0.28212168650E-02  0.13864738892E-03  0.17130000004E+03  0.17130000000E+03 0.  1.
      622    1    1    2    0    0 -0.66361115556E-02  0.63126741417E-02  0.21859789485E+01  0.21860896256E+01  0.20000000000E-01 0.  1.
</event>
<event>
 5   0  0.3603037E+08  0.9118800E+02  0.7818608E-02  0.1180000E+00
       11   -1    0    0    0    0  0.00000000000E+00  0.00000000000E+00  0.39999999673E+01  0.40000000000E+01  0.51109989000E-03 0. -1.
     -623   -1    0    0    0    0  0.00000000000E+00  0.00000000000E+00  0.12525980253E-10  0.17130000000E+03  0.17130000000E+03 0.  1.
       11    1    1    2    0    0  0.23108047221E-02  0.19957969640E-02  0.11401999827E+00  0.11406201932E+00  0.51109989000E-03 0. -1.
     -623    1    1    2    0    0 -0.45554054474E-04 -0.18167656868E-03  0.94540220297E-04  0.17130000000E+03  0.17130000000E+03 0.  1.
      622    1    1    2    0    0 -0.22652506677E-02 -0.18141203953E-02  0.38858854289E+01  0.38859379806E+01  0.20000000000E-01 0. -1.
</event>
<event>
 5   0  0.3603037E+08  0.9118800E+02  0.7818608E-02  0.1180000E+00
       11   -1    0    0    0    0  0.00000000000E+00  0.00000000000E+00  0.39999999673E+01  0.40000000000E+01  0.51109989000E-03 0.  1.
     -623   -1    0    0    0    0  0.00000000000E+00  0.00000000000E+00  0.12525980253E-10  0.17130000000E+03  0.17130000000E+03 0.  1.
       11    1    1    2    0    0 -0.10976874023E-05  0.15196475225E-02  0.81557745645E-01  0.81573503209E-01  0.51109989000E-03 0.  1.
     -623    1    1    2    0    0  0.24824073402E-02 -0.30495819892E-02  0.67895624883E-04  0.17130000005E+03  0.17130000000E+03 0.  1.
      622    1    1    2    0    0 -0.24813096528E-02  0.15299344666E-02  0.39183743261E+01  0.39184264516E+01  0.20000000000E-01 0.  1.
</event>
<event>
 5   0  0.3603037E+08  0.9118800E+02  0.7818608E-02  0.1180000E+00
       11   -1    0    0    0    0  0.00000000000E+00  0.00000000000E+00  0.39999999673E+01  0.40000000000E+01  0.51109989000E-03 0. -1.
     -623   -1    0    0    0    0  0.00000000000E+00  0.00000000000E+00  0.12525980253E-10  0.17130000000E+03  0.17130000000E+03 0. -1.
       11    1    1    2    0    0  0.20565568052E-02 -0.16886415010E-02  0.60321021427E-01  0.60381849799E-01  0.51109989000E-03 0. -1.
     -623    1    1    2    0    0 -0.14251495409E-03 -0.51226999457E-04  0.11241167080E-03  0.17130000000E+03  0.17130000000E+03 0. -1.
      622    1    1    2    0    0 -0.19140418512E-02  0.17398685004E-02  0.39395665343E+01  0.39396181501E+01  0.20000000000E-01 0. -1.
</event>
<event>
 5   0  0.3603037E+08  0.9118800E+02  0.7818608E-02  0.1180000E+00
       11   -1    0    0    0    0  0.00000000000E+00  0.00000000000E+00  0.39999999673E+01  0.40000000000E+01  0.51109989000E-03 0.  1.
     -623   -1    0    0    0    0  0.00000000000E+00  0.00000000000E+00  0.12525980253E-10  0.17130000000E+03  0.17130000000E+03 0. -1.
       11    1    1    2    0    0  0.62238139533E-02 -0.48722893486E-03  0.10450404394E+01  0.10450592110E+01  0.51109989000E-03 0.  1.
     -623    1    1    2    0    0  0.32007692958E-03 -0.18028524953E-03  0.93744874254E-04  0.17130000000E+03  0.17130000000E+03 0. -1.
      622    1    1    2    0    0 -0.65438908829E-02  0.66751418439E-03  0.29548657830E+01  0.29549407886E+01  0.20000000000E-01 0.  1.
</event>
<event>
 5   0  0.3603037E+08  0.9118800E+02  0.7818608E-02  0.1180000E+00
       11   -1    0    0    0    0  0.00000000000E+00  0.00000000000E+00  0.39999999673E+01  0.40000000000E+01  0.51109989000E-03 0. -1.
     -623   -1    0    0    0    0  0.00000000000E+00  0.00000000000E+00  0.12525980253E-10  0.17130000000E+03  0.17130000000E+03 0. -1.
       11    1    1    2    0    0 -0.63296902250E-03 -0.34026557974E-03  0.11910905545E+00  0.11911231986E+00  0.51109989000E-03 0. -1.
     -623    1    1    2    0    0  0.86343300034E-04  0.41523239375E-03  0.54806463565E-04  0.17130000000E+03  0.17130000000E+03 0. -1.
      622    1    1    2    0    0  0.54662572247E-03 -0.74966814014E-04  0.38808361054E+01  0.38808876796E+01  0.20000000000E-01 0. -1.
</event>
<event>
 5   0  0.3603037E+08  0.9118800E+02  0.7818608E-02  0.1180000E+00
       11   -1    0    0    0    0  0.00000000000E+00  0.00000000000E+00  0.39999999673E+01  0.40000000000E+01  0.51109989000E-03 0. -1.
     -623   -1    0    0    0    0  0.00000000000E+00  0.00000000000E+00  0.12525980253E-10  0.17130000000E+03  0.17130000000E+03 0.  1.
       11    1    1    2    0    0  0.70206204194E-02  0.24377957897E-02  0.21829611533E+01  0.21829738638E+01  0.51109989000E-03 0. -1.
     -623    1    1    2    0    0 -0.58896004427E-04 -0.11593453991E-03  0.13757220915E-03  0.17130000000E+03  0.17130000000E+03 0.  1.
      622    1    1    2    0    0 -0.69617244149E-02 -0.23218612498E-02  0.18169012418E+01  0.18170261361E+01  0.20000000000E-01 0. -1.
</event>
<event>
 5   0  0.3603037E+08  0.9118800E+02  0.7818608E-02  0.1180000E+00
       11   -1    0    0    0    0  0.00000000000E+00  0.00000000000E+00  0.39999999673E+01  0.40000000000E+01  0.51109989000E-03 0.  1.
     -623   -1    0    0    0    0  0.00000000000E+00  0.00000000000E+00  0.12525980253E-10  0.17130000000E+03  0.17130000000E+03 0.  1.
       11    1    1    2    0    0 -0.12703953405E-02 -0.10613029327E-03  0.34218455673E+00  0.34218731311E+00  0.51109989000E-03 0.  1.
     -623    1    1    2    0    0  0.58099358367E-04  0.78646940191E-03  0.57667627924E-04  0.17130000000E+03  0.17130000000E+03 0.  1.
      622    1    1    2    0    0  0.12122959822E-02 -0.68033910863E-03  0.36577577430E+01  0.36578126851E+01  0.20000000000E-01 0.  1.
</event>
<event>
 5   0  0.3603037E+08  0.9118800E+02  0.7818608E-02  0.1180000E+00
       11   -1    0    0    0    0  0.00000000000E+00  0.00000000000E+00  0.39999999673E+01  0.40000000000E+01  0.51109989000E-03 0.  1.
     -623   -1    0    0    0    0  0.00000000000E+00  0.00000000000E+00  0.12525980253E-10  0.17130000000E+03  0.17130000000E+03 0. -1.
       11    1    1    2    0    0 -0.17243979718E-03 -0.39840111784E-03  0.31151699453E+00  0.31151771629E+00  0.51109989000E-03 0.  1.
     -623    1    1    2    0    0 -0.14467008872E-03 -0.45001688462E-04  0.54952721121E-04  0.17130000000E+03  0.17130000000E+03 0. -1.
      622    1    1    2    0    0  0.31710988591E-03  0.44340280631E-03  0.36884280201E+01  0.36884822836E+01  0.20000000000E-01 0.  1.
</event>
<event>
 5   0  0.3603037E+08  0.9118800E+02  0.7818608E-02  0.1180000E+00
       11   -1    0    0    0    0  0.00000000000E+00  0.00000000000E+00  0.39999999673E+01  0.40000000000E+01  0.51109989000E-03 0.  1.
     -623   -1    0    0    0    0  0.00000000000E+00  0.00000000000E+00  0.12525980253E-10  0.17130000000E+03  0.17130000000E+03 0. -1.
       11    1    1    2    0    0  0.77501034462E-03  0.29954816130E-04  0.12654928898E-01  0.12688971012E-01  0.51109989000E-03 0.  1.
     -623    1    1    2    0    0 -0.10291274292E-02 -0.16744202752E-02  0.84527413770E-04  0.17130000001E+03  0.17130000000E+03 0. -1.
      622    1    1    2    0    0  0.25411708457E-03  0.16444654591E-02  0.39872605110E+01  0.39873110177E+01  0.20000000000E-01 0.  1.
</event>
<event>
 5   0  0.3603037E+08  0.9118800E+02  0.7818608E-02  0.1180000E+00
       11   -1    0    0    0    0  0.00000000000E+00  0.00000000000E+00  0.39999999673E+01  0.40000000000E+01  0.51109989000E-03 0.  1.
     -623   -1    0    0    0    0  0.00000000000E+00  0.00000000000E+00  0.12525980253E-10  0.17130000000E+03  0.17130000000E+03 0. -1.
       11    1    1    2    0    0  0.24087095089E-03  0.13158518829E-01  0.23631235897E+00  0.23667910102E+00  0.51109989000E-03 0.  1.
     -623    1    1    2    0    0  0.18569637551E-02 -0.73497595679E-02  0.42509035519E-03  0.17130000017E+03  0.17130000000E+03 0. -1.
      622    1    1    2    0    0 -0.20978347060E-02 -0.58087592607E-02  0.37632625180E+01  0.37633207307E+01  0.20000000000E-01 0.  1.
</event>
<event>
 5   0  0.3603037E+08  0.9118800E+02  0.7818608E-02  0.1180000E+00
       11   -1    0    0    0    0  0.00000000000E+00  0.00000000000E+00  0.39999999673E+01  0.40000000000E+01  0.51109989000E-03 0. -1.
     -623   -1    0    0    0    0  0.00000000000E+00  0.00000000000E+00  0.12525980253E-10  0.17130000000E+03  0.17130000000E+03 0.  1.
       11    1    1    2    0    0 -0.25366302716E-02 -0.63999591813E-02  0.19131019687E+01  0.19131144236E+01  0.51109989000E-03 0. -1.
     -623    1    1    2    0    0  0.61748738977E-02  0.89172891655E-02  0.11329444198E-03  0.17130000034E+03  0.17130000000E+03 0.  1.
      622    1    1    2    0    0 -0.36382436261E-02 -0.25173299842E-02  0.20867847042E+01  0.20868852329E+01  0.20000000000E-01 0.  1.
</event>
<event>
 5   0  0.3603037E+08  0.9118800E+02  0.7818608E-02  0.1180000E+00
       11   -1    0    0    0    0  0.00000000000E+00  0.00000000000E+00  0.39999999673E+01  0.40000000000E+01  0.51109989000E-03 0.  1.
     -623   -1    0    0    0    0  0.00000000000E+00  0.00000000000E+00  0.12525980253E-10  0.17130000000E+03  0.17130000000E+03 0. -1.
       11    1    1    2    0    0 -0.27034675162E-03  0.19706303241E-02  0.29869140847E+00  0.29869846867E+00  0.51109989000E-03 0.  1.
     -623    1    1    2    0    0  0.64263408488E-03  0.42045310204E-03  0.61855802962E-04  0.17130000000E+03  0.17130000000E+03 0. -1.
      622    1    1    2    0    0 -0.37228733325E-03 -0.23910834262E-02  0.37012467031E+01  0.37013015296E+01  0.20000000000E-01 0.  1.
</event>
<event>
 5   0  0.3603037E+08  0.9118800E+02  0.7818608E-02  0.1180000E+00
       11   -1    0    0    0    0  0.00000000000E+00  0.00000000000E+00  0.39999999673E+01  0.40000000000E+01  0.51109989000E-03 0. -1.
     -623   -1    0    0    0    0  0.00000000000E+00  0.00000000000E+00  0.12525980253E-10  0.17130000000E+03  0.17130000000E+03 0. -1.
       11    1    1    2    0    0  0.41282251378E-02 -0.23599688881E-01  0.10808478872E+01  0.10811135019E+01  0.51109989000E-03 0. -1.
     -623    1    1    2    0    0 -0.16840050427E-02  0.34993012643E-02  0.40438138670E-03  0.17130000004E+03  0.17130000000E+03 0. -1.
      622    1    1    2    0    0 -0.24442200950E-02  0.20100387617E-01  0.29187476988E+01  0.29188864536E+01  0.20000000000E-01 0. -1.
</event>
<event>
 5   0  0.3603037E+08  0.9118800E+02  0.7818608E-02  0.1180000E+00
       11   -1    0    0    0    0  0.00000000000E+00  0.00000000000E+00  0.39999999673E+01  0.40000000000E+01  0.51109989000E-03 0. -1.
     -623   -1    0    0    0    0  0.00000000000E+00  0.00000000000E+00  0.12525980253E-10  0.17130000000E+03  0.17130000000E+03 0.  1.
       11    1    1    2    0    0  0.15807664074E-02  0.12514492354E-01  0.14888528472E+01  0.14889063682E+01  0.51109989000E-03 0. -1.
     -623    1    1    2    0    0 -0.10937820319E-02 -0.16717141843E-02  0.15660525194E-03  0.17130000001E+03  0.17130000000E+03 0.  1.
      622    1    1    2    0    0 -0.48698437546E-03 -0.10842778169E-01  0.25109905149E+01  0.25110936201E+01  0.20000000000E-01 0.  0.
</event>
<event>
 5   0  0.3603037E+08  0.9118800E+02  0.7818608E-02  0.1180000E+00
       11   -1    0    0    0    0  0.00000000000E+00  0.00000000000E+00  0.39999999673E+01  0.40000000000E+01  0.51109989000E-03 0. -1.
     -623   -1    0    0    0    0  0.00000000000E+00  0.00000000000E+00  0.12525980253E-10  0.17130000000E+03  0.17130000000E+03 0.  1.
       11    1    1    2    0    0 -0.39945110844E-02  0.14679467117E-01  0.12370449883E+01  0.12371386370E+01  0.51109989000E-03 0. -1.
     -623    1    1    2    0    0 -0.17170958630E-02 -0.10333069285E-02  0.20562279858E-03  0.17130000001E+03  0.17130000000E+03 0.  1.
      622    1    1    2    0    0  0.57116069474E-02 -0.13646160189E-01  0.27627493562E+01  0.27628613511E+01  0.20000000000E-01 0. -1.
</event>
<event>
 5   0  0.3603037E+08  0.9118800E+02  0.7818608E-02  0.1180000E+00
       11   -1    0    0    0    0  0.00000000000E+00  0.00000000000E+00  0.39999999673E+01  0.40000000000E+01  0.51109989000E-03 0. -1.
     -623   -1    0    0    0    0  0.00000000000E+00  0.00000000000E+00  0.12525980253E-10  0.17130000000E+03  0.17130000000E+03 0. -1.
       11    1    1    2    0    0 -0.88470127367E-03 -0.75876318436E-03  0.11245545880E+01  0.11245553082E+01  0.51109989000E-03 0. -1.
     -623    1    1    2    0    0 -0.59544182228E-03  0.20493195451E-02  0.70926676512E-04  0.17130000001E+03  0.17130000000E+03 0. -1.
      622    1    1    2    0    0  0.14801430960E-02 -0.12905563608E-02  0.28753744526E+01  0.28754446785E+01  0.20000000000E-01 0. -1.
</event>
<event>
 5   0  0.3603037E+08  0.9118800E+02  0.7818608E-02  0.1180000E+00
       11   -1    0    0    0    0  0.00000000000E+00  0.00000000000E+00  0.39999999673E+01  0.40000000000E+01  0.51109989000E-03 0. -1.
     -623   -1    0    0    0    0  0.00000000000E+00  0.00000000000E+00  0.12525980253E-10  0.17130000000E+03  0.17130000000E+03 0. -1.
       11    1    1    2    0    0  0.12639552856E-01  0.16765025056E-03  0.29090407082E+01  0.29090682168E+01  0.51109989000E-03 0. -1.
     -623    1    1    2    0    0 -0.12822146758E-02  0.43005271216E-03  0.27012047016E-03  0.17130000001E+03  0.17130000000E+03 0. -1.
      622    1    1    2    0    0 -0.11357338180E-01 -0.59770296272E-03  0.10906891386E+01  0.10909317777E+01  0.20000000000E-01 0. -1.
</event>
<event>
 5   0  0.3603037E+08  0.9118800E+02  0.7818608E-02  0.1180000E+00
       11   -1    0    0    0    0  0.00000000000E+00  0.00000000000E+00  0.39999999673E+01  0.40000000000E+01  0.51109989000E-03 0.  1.
     -623   -1    0    0    0    0  0.00000000000E+00  0.00000000000E+00  0.12525980253E-10  0.17130000000E+03  0.17130000000E+03 0.  1.
       11    1    1    2    0    0  0.70883936687E-03  0.83038618383E-03  0.21274273540E-02  0.24452329544E-02  0.51109989000E-03 0.  1.
     -623    1    1    2    0    0 -0.21190612817E-03  0.38150721530E-03  0.36801939606E-03  0.17130000000E+03  0.17130000000E+03 0.  1.
      622    1    1    2    0    0 -0.49693323870E-03 -0.12118933991E-02  0.39975045206E+01  0.39975547661E+01  0.20000000000E-01 0.  1.
</event>
<event>
 5   0  0.3603037E+08  0.9118800E+02  0.7818608E-02  0.1180000E+00
       11   -1    0    0    0    0  0.00000000000E+00  0.00000000000E+00  0.39999999673E+01  0.40000000000E+01  0.51109989000E-03 0. -1.
     -623   -1    0    0    0    0  0.00000000000E+00  0.00000000000E+00  0.12525980253E-10  0.17130000000E+03  0.17130000000E+03 0. -1.
       11    1    1    2    0    0  0.10329540395E-02  0.12633164605E-02  0.15020540351E+00  0.15021513714E+00  0.51109989000E-03 0. -1.
     -623    1    1    2    0    0 -0.28794849681E-05 -0.74816331409E-04  0.61973595342E-04  0.17130000000E+03  0.17130000000E+03 0. -1.
      622    1    1    2    0    0 -0.10300745546E-02 -0.11885001291E-02  0.38497325903E+01  0.38497848628E+01  0.20000000000E-01 0. -1.
</event>
<event>
 5   0  0.3603037E+08  0.9118800E+02  0.7818608E-02  0.1180000E+00
       11   -1    0    0    0    0  0.00000000000E+00  0.00000000000E+00  0.39999999673E+01  0.40000000000E+01  0.51109989000E-03 0.  1.
     -623   -1    0    0    0    0  0.00000000000E+00  0.00000000000E+00  0.12525980253E-10  0.17130000000E+03  0.17130000000E+03 0.  1.
       11    1    1    2    0    0  0.52810661369E-02  0.42322915492E-02  0.17723059703E+01  0.17723189655E+01  0.51109989000E-03 0.  1.
     -623    1    1    2    0    0  0.11897712369E-01  0.19503692090E-01  0.29697471038E-03  0.17130000152E+03  0.17130000000E+03 0.  1.
      622    1    1    2    0    0 -0.17178778506E-01 -0.23735983639E-01  0.22273970223E+01  0.22276795107E+01  0.20000000000E-01 0.  0.
</event>
<event>
 5   0  0.3603037E+08  0.9118800E+02  0.7818608E-02  0.1180000E+00
       11   -1    0    0    0    0  0.00000000000E+00  0.00000000000E+00  0.39999999673E+01  0.40000000000E+01  0.51109989000E-03 0. -1.
     -623   -1    0    0    0    0  0.00000000000E+00  0.00000000000E+00  0.12525980253E-10  0.17130000000E+03  0.17130000000E+03 0. -1.
       11    1    1    2    0    0 -0.69873395125E-02 -0.11187681369E-01  0.23585492936E+01  0.23585862330E+01  0.51109989000E-03 0. -1.
     -623    1    1    2    0    0  0.22110204638E-02  0.56791798868E-02  0.17505968384E-03  0.17130000011E+03  0.17130000000E+03 0. -1.
      622    1    1    2    0    0  0.47763190488E-02  0.55085014818E-02  0.16412756141E+01  0.16414136585E+01  0.20000000000E-01 0.  0.
</event>
<event>
 5   0  0.3603037E+08  0.9118800E+02  0.7818608E-02  0.1180000E+00
       11   -1    0    0    0    0  0.00000000000E+00  0.00000000000E+00  0.39999999673E+01  0.40000000000E+01  0.51109989000E-03 0.  1.
     -623   -1    0    0    0    0  0.00000000000E+00  0.00000000000E+00  0.12525980253E-10  0.17130000000E+03  0.17130000000E+03 0.  1.
       11    1    1    2    0    0 -0.26927790653E-02 -0.14134685092E-01  0.98377962826E+00  0.98388498239E+00  0.51109989000E-03 0.  1.
     -623    1    1    2    0    0  0.32367502980E-02  0.16594260556E-02  0.19752124908E-03  0.17130000004E+03  0.17130000000E+03 0.  1.
      622    1    1    2    0    0 -0.54397123267E-03  0.12475259036E-01  0.30160228179E+01  0.30161149789E+01  0.20000000000E-01 0.  1.
</event>
<event>
 5   0  0.3603037E+08  0.9118800E+02  0.7818608E-02  0.1180000E+00
       11   -1    0    0    0    0  0.00000000000E+00  0.00000000000E+00  0.39999999673E+01  0.40000000000E+01  0.51109989000E-03 0.  1.
     -623   -1    0    0    0    0  0.00000000000E+00  0.00000000000E+00  0.12525980253E-10  0.17130000000E+03  0.17130000000E+03 0.  1.
       11    1    1    2    0    0  0.24807146097E-02  0.25425743813E-02  0.27918848447E+01  0.27918871514E+01  0.51109989000E-03 0.  1.
     -623    1    1    2    0    0  0.15865636565E-02 -0.52007016628E-02  0.17769136189E-03  0.17130000009E+03  0.17130000000E+03 0.  1.
      622    1    1    2    0    0 -0.40672782661E-02  0.26581272815E-02  0.12079374313E+01  0.12081127622E+01  0.20000000000E-01 0.  1.
</event>
<event>
 5   0  0.3603037E+08  0.9118800E+02  0.7818608E-02  0.1180000E+00
       11   -1    0    0    0    0  0.00000000000E+00  0.00000000000E+00  0.39999999673E+01  0.40000000000E+01  0.51109989000E-03 0. -1.
     -623   -1    0    0    0    0  0.00000000000E+00  0.00000000000E+00  0.12525980253E-10  0.17130000000E+03  0.17130000000E+03 0. -1.
       11    1    1    2    0    0 -0.14533226910E-02 -0.19746954119E-02  0.10554227752E+00  0.10557199029E+00  0.51109989000E-03 0. -1.
     -623    1    1    2    0    0 -0.62756831834E-04  0.30525187152E-03  0.81689129358E-04  0.17130000000E+03  0.17130000000E+03 0. -1.
      622    1    1    2    0    0  0.15160795228E-02  0.16694435404E-02  0.38943760007E+01  0.38944280094E+01  0.20000000000E-01 0. -1.
</event>
<event>
 5   0  0.3603037E+08  0.9118800E+02  0.7818608E-02  0.1180000E+00
       11   -1    0    0    0    0  0.00000000000E+00  0.00000000000E+00  0.39999999673E+01  0.40000000000E+01  0.51109989000E-03 0. -1.
     -623   -1    0    0    0    0  0.00000000000E+00  0.00000000000E+00  0.12525980253E-10  0.17130000000E+03  0.17130000000E+03 0. -1.
       11    1    1    2    0    0 -0.52925895477E-02 -0.55474595364E-02  0.80654248698E-01  0.81019472135E-01  0.51109989000E-03 0. -1.
     -623    1    1    2    0    0 -0.33112029280E-03 -0.18285047886E-02  0.42721177125E-03  0.17130000001E+03  0.17130000000E+03 0. -1.
      622    1    1    2    0    0  0.56237098405E-02  0.73759643251E-02  0.39189185069E+01  0.39189805173E+01  0.20000000000E-01 0. -1.
</event>
<event>
 5   0  0.3603037E+08  0.9118800E+02  0.7818608E-02  0.1180000E+00
       11   -1    0    0    0    0  0.00000000000E+00  0.00000000000E+00  0.39999999673E+01  0.40000000000E+01  0.51109989000E-03 0.  1.
     -623   -1    0    0    0    0  0.00000000000E+00  0.00000000000E+00  0.12525980253E-10  0.17130000000E+03  0.17130000000E+03 0. -1.
       11    1    1    2    0    0 -0.18484427247E-02 -0.53425161186E-03  0.11742104817E-01  0.11909677222E-01  0.51109989000E-03 0.  1.
     -623    1    1    2    0    0  0.34538021402E-03  0.76908043317E-03  0.21798176953E-03  0.17130000000E+03  0.17130000000E+03 0. -1.
      622    1    1    2    0    0  0.15030625107E-02 -0.23482882131E-03  0.39880398808E+01  0.39880903206E+01  0.20000000000E-01 0.  1.
</event>
<event>
 5   0  0.3603037E+08  0.9118800E+02  0.7818608E-02  0.1180000E+00
       11   -1    0    0    0    0  0.00000000000E+00  0.00000000000E+00  0.39999999673E+01  0.40000000000E+01  0.51109989000E-03 0.  1.
     -623   -1    0    0    0    0  0.00000000000E+00  0.00000000000E+00  0.12525980253E-10  0.17130000000E+03  0.17130000000E+03 0.  1.
       11    1    1    2    0    0  0.58806198919E-03 -0.53203238436E-02  0.25592332045E+00  0.25597980161E+00  0.51109989000E-03 0.  1.
     -623    1    1    2    0    0 -0.50665043695E-03 -0.10932250730E-03  0.11380627231E-03  0.17130000000E+03  0.17130000000E+03 0.  1.
      622    1    1    2    0    0 -0.81411552244E-04  0.54296463510E-02  0.37439628406E+01  0.37440201976E+01  0.20000000000E-01 0.  1.
</event>
<event>
 5   0  0.3603037E+08  0.9118800E+02  0.7818608E-02  0.1180000E+00
       11   -1    0    0    0    0  0.00000000000E+00  0.00000000000E+00  0.39999999673E+01  0.40000000000E+01  0.51109989000E-03 0.  1.
     -623   -1    0    0    0    0  0.00000000000E+00  0.00000000000E+00  0.12525980253E-10  0.17130000000E+03  0.17130000000E+03 0. -1.
       11    1    1    2    0    0  0.27480598655E-03 -0.22097006080E-02  0.29592362677E+00  0.29593244566E+00  0.51109989000E-03 0.  1.
     -623    1    1    2    0    0 -0.12038266520E-03  0.17100411682E-04  0.63433576724E-04  0.17130000000E+03  0.17130000000E+03 0. -1.
      622    1    1    2    0    0 -0.15442332135E-03  0.21926001963E-02  0.37040129070E+01  0.37040675543E+01  0.20000000000E-01 0.  1.
</event>
<event>
 5   0  0.3603037E+08  0.9118800E+02  0.7818608E-02  0.1180000E+00
       11   -1    0    0    0    0  0.00000000000E+00  0.00000000000E+00  0.39999999673E+01  0.40000000000E+01  0.51109989000E-03 0.  1.
     -623   -1    0    0    0    0  0.00000000000E+00  0.00000000000E+00  0.12525980253E-10  0.17130000000E+03  0.17130000000E+03 0. -1.
       11    1    1    2    0    0  0.48720957429E-02  0.52929981056E-03  0.35692594911E+00  0.35695995832E+00  0.51109989000E-03 0.  1.
     -623    1    1    2    0    0  0.68390805680E-03  0.24625222283E-03  0.93197108559E-04  0.17130000000E+03  0.17130000000E+03 0. -1.
      622    1    1    2    0    0 -0.55560037997E-02 -0.77555203340E-03  0.36429808211E+01  0.36430400401E+01  0.20000000000E-01 0.  1.
</event>
<event>
 5   0  0.3603037E+08  0.9118800E+02  0.7818608E-02  0.1180000E+00
       11   -1    0    0    0    0  0.00000000000E+00  0.00000000000E+00  0.39999999673E+01  0.40000000000E+01  0.51109989000E-03 0. -1.
     -623   -1    0    0    0    0  0.00000000000E+00  0.00000000000E+00  0.12525980253E-10  0.17130000000E+03  0.17130000000E+03 0. -1.
       11    1    1    2    0    0  0.57368375519E-02  0.11157660022E-01  0.53878928895E-01  0.55322733875E-01  0.51109989000E-03 0. -1.
     -623    1    1    2    0    0 -0.56812827159E-03 -0.52151961585E-02  0.15024232217E-02  0.17130000009E+03  0.17130000000E+03 0. -1.
      622    1    1    2    0    0 -0.51687092803E-02 -0.59424638634E-02  0.39446186152E+01  0.39446771792E+01  0.20000000000E-01 0. -1.
</event>
<event>
 5   0  0.3603037E+08  0.9118800E+02  0.7818608E-02  0.1180000E+00
       11   -1    0    0    0    0  0.00000000000E+00  0.00000000000E+00  0.39999999673E+01  0.40000000000E+01  0.51109989000E-03 0.  1.
     -623   -1    0    0    0    0  0.00000000000E+00  0.00000000000E+00  0.12525980253E-10  0.17130000000E+03  0.17130000000E+03 0.  1.
       11    1    1    2    0    0 -0.86023830187E-02  0.21390804225E-01  0.26969306638E+01  0.26970292609E+01  0.51109989000E-03 0.  1.
     -623    1    1    2    0    0  0.56761933595E-02 -0.36011460655E-02  0.37695013338E-03  0.17130000013E+03  0.17130000000E+03 0.  1.
      622    1    1    2    0    0  0.29261896592E-02 -0.17789658159E-01  0.13026923534E+01  0.13029706068E+01  0.20000000000E-01 0.  1.
</event>
<event>
 5   0  0.3603037E+08  0.9118800E+02  0.7818608E-02  0.1180000E+00
       11   -1    0    0    0    0  0.00000000000E+00  0.00000000000E+00  0.39999999673E+01  0.40000000000E+01  0.51109989000E-03 0. -1.
     -623   -1    0    0    0    0  0.00000000000E+00  0.00000000000E+00  0.12525980253E-10  0.17130000000E+03  0.17130000000E+03 0. -1.
       11    1    1    2    0    0  0.13323814980E-02  0.30890537151E-02  0.12844029849E+00  0.12848536489E+00  0.51109989000E-03 0. -1.
     -623    1    1    2    0    0 -0.46981778723E-04  0.14263224601E-03  0.98255775996E-04  0.17130000000E+03  0.17130000000E+03 0. -1.
      622    1    1    2    0    0 -0.12853997192E-02 -0.32316859611E-02  0.38714614131E+01  0.38715146350E+01  0.20000000000E-01 0. -1.
</event>
<event>
 5   0  0.3603037E+08  0.9118800E+02  0.7818608E-02  0.1180000E+00
       11   -1    0    0    0    0  0.00000000000E+00  0.00000000000E+00  0.39999999673E+01  0.40000000000E+01  0.51109989000E-03 0.  1.
     -623   -1    0    0    0    0  0.00000000000E+00  0.00000000000E+00  0.12525980253E-10  0.17130000000E+03  0.17130000000E+03 0. -1.
       11    1    1    2    0    0  0.67235547772E-02 -0.39340878214E-02  0.31925256347E-01  0.32865885818E-01  0.51109989000E-03 0.  1.
     -623    1    1    2    0    0 -0.48280435076E-02 -0.27400612773E-02  0.99717132010E-03  0.17130000009E+03  0.17130000000E+03 0. -1.
      622    1    1    2    0    0 -0.18955112696E-02  0.66741490987E-02  0.39670775397E+01  0.39671340213E+01  0.20000000000E-01 0.  1.
</event>
<event>
 5   0  0.3603037E+08  0.9118800E+02  0.7818608E-02  0.1180000E+00
       11   -1    0    0    0    0  0.00000000000E+00  0.00000000000E+00  0.39999999673E+01  0.40000000000E+01  0.51109989000E-03 0. -1.
     -623   -1    0    0    0    0  0.00000000000E+00  0.00000000000E+00  0.12525980253E-10  0.17130000000E+03  0.17130000000E+03 0.  1.
       11    1    1    2    0    0 -0.24022958305E-01  0.31504136291E-01  0.26918291553E+01  0.26921207394E+01  0.51109989000E-03 0. -1.
     -623    1    1    2    0    0  0.10518840282E-01 -0.25470262794E-02  0.83520665482E-03  0.17130000034E+03  0.17130000000E+03 0.  1.
      622    1    1    2    0    0  0.13504118023E-01 -0.28957110012E-01  0.13073356054E+01  0.13078789167E+01  0.20000000000E-01 0. -1.
</event>
<event>
 5   0  0.3603037E+08  0.9118800E+02  0.7818608E-02  0.1180000E+00
       11   -1    0    0    0    0  0.00000000000E+00  0.00000000000E+00  0.39999999673E+01  0.40000000000E+01  0.51109989000E-03 0. -1.
     -623   -1    0    0    0    0  0.00000000000E+00  0.00000000000E+00  0.12525980253E-10  0.17130000000E+03  0.17130000000E+03 0.  1.
       11    1    1    2    0    0 -0.12494159932E-02  0.41192278219E-04  0.28501687418E-01  0.28533666860E-01  0.51109989000E-03 0. -1.
     -623    1    1    2    0    0 -0.12668323918E-03  0.28356570544E-03  0.82558344872E-04  0.17130000000E+03  0.17130000000E+03 0.  1.
      622    1    1    2    0    0  0.13760992324E-02 -0.32475798366E-03  0.39714157216E+01  0.39714663328E+01  0.20000000000E-01 0. -1.
</event>
<event>
 5   0  0.3603037E+08  0.9118800E+02  0.7818608E-02  0.1180000E+00
       11   -1    0    0    0    0  0.00000000000E+00  0.00000000000E+00  0.39999999673E+01  0.40000000000E+01  0.51109989000E-03 0. -1.
     -623   -1    0    0    0    0  0.00000000000E+00  0.00000000000E+00  0.12525980253E-10  0.17130000000E+03  0.17130000000E+03 0. -1.
       11    1    1    2    0    0  0.84510854694E-05 -0.62177948276E-02  0.10377106462E+01  0.10377294000E+01  0.51109989000E-03 0. -1.
     -623    1    1    2    0    0 -0.72244595711E-03  0.30743942505E-03  0.92221863705E-04  0.17130000000E+03  0.17130000000E+03 0. -1.
      622    1    1    2    0    0  0.71399487164E-03  0.59103554026E-02  0.29621970993E+01  0.29622705982E+01  0.20000000000E-01 0. -1.
</event>
<event>
 5   0  0.3603037E+08  0.9118800E+02  0.7818608E-02  0.1180000E+00
       11   -1    0    0    0    0  0.00000000000E+00  0.00000000000E+00  0.39999999673E+01  0.40000000000E+01  0.51109989000E-03 0.  1.
     -623   -1    0    0    0    0  0.00000000000E+00  0.00000000000E+00  0.12525980253E-10  0.17130000000E+03  0.17130000000E+03 0. -1.
       11    1    1    2    0    0 -0.51711106229E-03  0.88179714290E-02  0.53026762899E+00  0.53034144058E+00  0.51109989000E-03 0.  1.
     -623    1    1    2    0    0 -0.22121293759E-02 -0.89030218784E-03  0.14156903427E-03  0.17130000002E+03  0.17130000000E+03 0. -1.
      622    1    1    2    0    0  0.27292404382E-02 -0.79276692411E-02  0.34695907693E+01  0.34696585428E+01  0.20000000000E-01 0.  1.
</event>
<event>
 5   0  0.3603037E+08  0.9118800E+02  0.7818608E-02  0.1180000E+00
       11   -1    0    0    0    0  0.00000000000E+00  0.00000000000E+00  0.39999999673E+01  0.40000000000E+01  0.51109989000E-03 0.  1.
     -623   -1    0    0    0    0  0.00000000000E+00  0.00000000000E+00  0.12525980253E-10  0.17130000000E+03  0.17130000000E+03 0. -1.
       11    1    1    2    0    0  0.22523610613E-01  0.17616495446E-01  0.23960336724E+01  0.23962043473E+01  0.51109989000E-03 0.  1.
     -623    1    1    2    0    0 -0.30738960200E-01 -0.31290934486E-01  0.38031402221E-03  0.17130000562E+03  0.17130000000E+03 0. -1.
      622    1    1    2    0    0  0.82153495870E-02  0.13674439040E-01  0.16035859810E+01  0.16037900363E+01  0.20000000000E-01 0.  1.
</event>
<event>
 5   0  0.3603037E+08  0.9118800E+02  0.7818608E-02  0.1180000E+00
       11   -1    0    0    0    0  0.00000000000E+00  0.00000000000E+00  0.39999999673E+01  0.40000000000E+01  0.51109989000E-03 0.  1.
     -623   -1    0    0    0    0  0.00000000000E+00  0.00000000000E+00  0.12525980253E-10  0.17130000000E+03  0.17130000000E+03 0.  1.
       11    1    1    2    0    0 -0.34911508065E-02  0.13217002956E-03  0.16693311119E+00  0.16697044779E+00  0.51109989000E-03 0.  1.
     -623    1    1    2    0    0 -0.20453611468E-03  0.18982419673E-03  0.91277796918E-04  0.17130000000E+03  0.17130000000E+03 0.  1.
      622    1    1    2    0    0  0.36956869212E-02 -0.32199422629E-03  0.38329755784E+01  0.38330295520E+01  0.20000000000E-01 0.  1.
</event>
<event>
 5   0  0.3603037E+08  0.9118800E+02  0.7818608E-02  0.1180000E+00
       11   -1    0    0    0    0  0.00000000000E+00  0.00000000000E+00  0.39999999673E+01  0.40000000000E+01  0.51109989000E-03 0. -1.
     -623   -1    0    0    0    0  0.00000000000E+00  0.00000000000E+00  0.12525980253E-10  0.17130000000E+03  0.17130000000E+03 0.  1.
       11    1    1    2    0    0 -0.12157461515E-02  0.89510059275E-05  0.16859966758E+00  0.16860482569E+00  0.51109989000E-03 0. -1.
     -623    1    1    2    0    0 -0.18105479284E-03  0.12728559115E-02  0.57800008393E-04  0.17130000000E+03  0.17130000000E+03 0.  1.
      622    1    1    2    0    0  0.13968009443E-02 -0.12818069174E-02  0.38313424998E+01  0.38313951695E+01  0.20000000000E-01 0. -1.
</event>
<event>
 5   0  0.3603037E+08  0.9118800E+02  0.7818608E-02  0.1180000E+00
       11   -1    0    0    0    0  0.00000000000E+00  0.00000000000E+00  0.39999999673E+01  0.40000000000E+01  0.51109989000E-03 0. -1.
     -623   -1    0    0    0    0  0.00000000000E+00  0.00000000000E+00  0.12525980253E-10  0.17130000000E+03  0.17130000000E+03 0. -1.
       11    1    1    2    0    0 -0.92952590046E-03 -0.31045451244E-03  0.56801384473E-01  0.56812136902E-01  0.51109989000E-03 0. -1.
     -623    1    1    2    0    0 -0.32242789155E-03  0.87678542383E-04  0.61645878139E-04  0.17130000000E+03  0.17130000000E+03 0. -1.
      622    1    1    2    0    0  0.12519537920E-02  0.22277597006E-03  0.39431369370E+01  0.39431878628E+01  0.20000000000E-01 0. -1.
</event>
<event>
 5   0  0.3603037E+08  0.9118800E+02  0.7818608E-02  0.1180000E+00
       11   -1    0    0    0    0  0.00000000000E+00  0.00000000000E+00  0.39999999673E+01  0.40000000000E+01  0.51109989000E-03 0.  1.
     -623   -1    0    0    0    0  0.00000000000E+00  0.00000000000E+00  0.12525980253E-10  0.17130000000E+03  0.17130000000E+03 0.  1.
       11    1    1    2    0    0  0.14112079984E-01  0.30418976279E-01  0.77385697161E+00  0.77458333228E+00  0.51109989000E-03 0.  1.
     -623    1    1    2    0    0  0.15010265906E-02 -0.14261786282E-02  0.95645369926E-03  0.17130000002E+03  0.17130000000E+03 0.  1.
      622    1    1    2    0    0 -0.15613106574E-01 -0.28992797650E-01  0.32251865420E+01  0.32254166525E+01  0.20000000000E-01 0.  1.
</event>
<event>
 5   0  0.3603037E+08  0.9118800E+02  0.7818608E-02  0.1180000E+00
       11   -1    0    0    0    0  0.00000000000E+00  0.00000000000E+00  0.39999999673E+01  0.40000000000E+01  0.51109989000E-03 0. -1.
     -623   -1    0    0    0    0  0.00000000000E+00  0.00000000000E+00  0.12525980253E-10  0.17130000000E+03  0.17130000000E+03 0. -1.
       11    1    1    2    0    0 -0.77321723975E-02 -0.22821924718E-02  0.47228662820E+00  0.47235570843E+00  0.51109989000E-03 0. -1.
     -623    1    1    2    0    0 -0.15470246379E-03  0.15251733763E-03  0.13520279644E-03  0.17130000000E+03  0.17130000000E+03 0. -1.
      622    1    1    2    0    0  0.78868748613E-02  0.21296751342E-02  0.35275781364E+01  0.35276442914E+01  0.20000000000E-01 0.  0.
</event>
<event>
 5   0  0.3603037E+08  0.9118800E+02  0.7818608E-02  0.1180000E+00
       11   -1    0    0    0    0  0.00000000000E+00  0.00000000000E+00  0.39999999673E+01  0.40000000000E+01  0.51109989000E-03 0. -1.
     -623   -1    0    0    0    0  0.00000000000E+00  0.00000000000E+00  0.12525980253E-10  0.17130000000E+03  0.17130000000E+03 0. -1.
       11    1    1    2    0    0  0.22000996931E-01  0.11518029448E-01  0.23684183646E+01  0.23685486104E+01  0.51109989000E-03 0. -1.
     -623    1    1    2    0    0 -0.25870856417E-03 -0.30112098254E-02  0.41991401009E-03  0.17130000003E+03  0.17130000000E+03 0. -1.
      622    1    1    2    0    0 -0.21742288366E-01 -0.85068196222E-02  0.16311616888E+01  0.16314513624E+01  0.20000000000E-01 0. -1.
</event>
<event>
 5   0  0.3603037E+08  0.9118800E+02  0.7818608E-02  0.1180000E+00
       11   -1    0    0    0    0  0.00000000000E+00  0.00000000000E+00  0.39999999673E+01  0.40000000000E+01  0.51109989000E-03 0.  1.
     -623   -1    0    0    0    0  0.00000000000E+00  0.00000000000E+00  0.12525980253E-10  0.17130000000E+03  0.17130000000E+03 0. -1.
       11    1    1    2    0    0 -0.12137393739E-02  0.15856636204E-02  0.16013490953E+00  0.16014817502E+00  0.51109989000E-03 0.  1.
     -623    1    1    2    0    0 -0.31580492899E-03  0.14478200332E-03  0.66013477348E-04  0.17130000000E+03  0.17130000000E+03 0. -1.
      622    1    1    2    0    0  0.15295443029E-02 -0.17304456237E-02  0.38397990444E+01  0.38398518246E+01  0.20000000000E-01 0.  1.
</event>
<event>
 5   0  0.3603037E+08  0.9118800E+02  0.7818608E-02  0.1180000E+00
       11   -1    0    0    0    0  0.00000000000E+00  0.00000000000E+00  0.39999999673E+01  0.40000000000E+01  0.51109989000E-03 0.  1.
     -623   -1    0    0    0    0  0.00000000000E+00  0.00000000000E+00  0.12525980253E-10  0.17130000000E+03  0.17130000000E+03 0. -1.
       11    1    1    2    0    0 -0.72816905729E-02 -0.44594812741E-02  0.72744764916E-01  0.73245969419E-01  0.51109989000E-03 0.  1.
     -623    1    1    2    0    0  0.85417386792E-02 -0.54578754015E-02  0.56513161816E-03  0.17130000030E+03  0.17130000000E+03 0. -1.
      622    1    1    2    0    0 -0.12600481063E-02  0.99173566756E-02  0.39266900708E+01  0.39267537297E+01  0.20000000000E-01 0.  1.
</event>
<event>
 5   0  0.3603037E+08  0.9118800E+02  0.7818608E-02  0.1180000E+00
       11   -1    0    0    0    0  0.00000000000E+00  0.00000000000E+00  0.39999999673E+01  0.40000000000E+01  0.51109989000E-03 0. -1.
     -623   -1    0    0    0    0  0.00000000000E+00  0.00000000000E+00  0.12525980253E-10  0.17130000000E+03  0.17130000000E+03 0. -1.
       11    1    1    2    0    0 -0.16158030960E-02  0.74379433862E-02  0.12571678059E+01  0.12571909510E+01  0.51109989000E-03 0. -1.
     -623    1    1    2    0    0 -0.18366839052E-03 -0.16792463867E-03  0.10625701339E-03  0.17130000000E+03  0.17130000000E+03 0. -1.
      622    1    1    2    0    0  0.17994714865E-02 -0.72700187476E-02  0.27427259044E+01  0.27428090488E+01  0.20000000000E-01 0. -1.
</event>
<event>
 5   0  0.3603037E+08  0.9118800E+02  0.7818608E-02  0.1180000E+00
       11   -1    0    0    0    0  0.00000000000E+00  0.00000000000E+00  0.39999999673E+01  0.40000000000E+01  0.51109989000E-03 0. -1.
     -623   -1    0    0    0    0  0.00000000000E+00  0.00000000000E+00  0.12525980253E-10  0.17130000000E+03  0.17130000000E+03 0.  1.
       11    1    1    2    0    0 -0.45165067925E-02 -0.10773458393E-03  0.16150241096E-01  0.16778019850E-01  0.51109989000E-03 0. -1.
     -623    1    1    2    0    0  0.25676344628E-02 -0.56768767967E-03  0.67851260056E-03  0.17130000002E+03  0.17130000000E+03 0.  1.
      622    1    1    2    0    0  0.19488723297E-02  0.67542226360E-03  0.39831712137E+01  0.39832219586E+01  0.20000000000E-01 0. -1.
</event>
<event>
 5   0  0.3603037E+08  0.9118800E+02  0.7818608E-02  0.1180000E+00
       11   -1    0    0    0    0  0.00000000000E+00  0.00000000000E+00  0.39999999673E+01  0.40000000000E+01  0.51109989000E-03 0.  1.
     -623   -1    0    0    0    0  0.00000000000E+00  0.00000000000E+00  0.12525980253E-10  0.17130000000E+03  0.17130000000E+03 0.  1.
       11    1    1    2    0    0 -0.10323024221E-02  0.33207150020E-02  0.28329944936E-01  0.28547150434E-01  0.51109989000E-03 0.  1.
     -623    1    1    2    0    0  0.37625321757E-03  0.37829865792E-04  0.26900752888E-03  0.17130000000E+03  0.17130000000E+03 0.  1.
      622    1    1    2    0    0  0.65604920451E-03 -0.33585448678E-02  0.39714010149E+01  0.39714528489E+01  0.20000000000E-01 0.  1.
</event>
<event>
 5   0  0.3603037E+08  0.9118800E+02  0.7818608E-02  0.1180000E+00
       11   -1    0    0    0    0  0.00000000000E+00  0.00000000000E+00  0.39999999673E+01  0.40000000000E+01  0.51109989000E-03 0.  1.
     -623   -1    0    0    0    0  0.00000000000E+00  0.00000000000E+00  0.12525980253E-10  0.17130000000E+03  0.17130000000E+03 0. -1.
       11    1    1    2    0    0 -0.54068769019E-02 -0.78023742821E-02  0.52617067861E+00  0.52625654923E+00  0.51109989000E-03 0.  1.
     -623    1    1    2    0    0 -0.11973327983E-02  0.25026953973E-02  0.15375655390E-03  0.17130000002E+03  0.17130000000E+03 0. -1.
      622    1    1    2    0    0  0.66042097003E-02  0.52996788849E-02  0.34736755322E+01  0.34737434282E+01  0.20000000000E-01 0.  1.
</event>
<event>
 5   0  0.3603037E+08  0.9118800E+02  0.7818608E-02  0.1180000E+00
       11   -1    0    0    0    0  0.00000000000E+00  0.00000000000E+00  0.39999999673E+01  0.40000000000E+01  0.51109989000E-03 0.  1.
     -623   -1    0    0    0    0  0.00000000000E+00  0.00000000000E+00  0.12525980253E-10  0.17130000000E+03  0.17130000000E+03 0. -1.
       11    1    1    2    0    0  0.83118538523E-04 -0.10154946943E-02  0.77408726417E-02  0.78243510150E-02  0.51109989000E-03 0.  1.
     -623    1    1    2    0    0 -0.14683083970E-02  0.16517462050E-03  0.13388134403E-03  0.17130000001E+03  0.17130000000E+03 0. -1.
      622    1    1    2    0    0  0.13851898585E-02  0.85032007381E-03  0.39921252134E+01  0.39921756426E+01  0.20000000000E-01 0.  1.
</event>
<event>
 5   0  0.3603037E+08  0.9118800E+02  0.7818608E-02  0.1180000E+00
       11   -1    0    0    0    0  0.00000000000E+00  0.00000000000E+00  0.39999999673E+01  0.40000000000E+01  0.51109989000E-03 0.  1.
     -623   -1    0    0    0    0  0.00000000000E+00  0.00000000000E+00  0.12525980253E-10  0.17130000000E+03  0.17130000000E+03 0. -1.
       11    1    1    2    0    0  0.13724671209E-01 -0.87602929872E-02  0.17402060585E+01  0.17402823037E+01  0.51109989000E-03 0.  1.
     -623    1    1    2    0    0 -0.27143820523E-02 -0.10385195586E-02  0.21281677040E-03  0.17130000002E+03  0.17130000000E+03 0. -1.
      622    1    1    2    0    0 -0.11010289157E-01  0.97988125458E-02  0.22595810920E+01  0.22597176715E+01  0.20000000000E-01 0. -1.
</event>
<event>
 5   0  0.3603037E+08  0.9118800E+02  0.7818608E-02  0.1180000E+00
       11   -1    0    0    0    0  0.00000000000E+00  0.00000000000E+00  0.39999999673E+01  0.40000000000E+01  0.51109989000E-03 0.  1.
     -623   -1    0    0    0    0  0.00000000000E+00  0.00000000000E+00  0.12525980253E-10  0.17130000000E+03  0.17130000000E+03 0.  1.
       11    1    1    2    0    0 -0.19176707408E-01  0.33335802853E-02  0.10581786238E+01  0.10583577466E+01  0.51109989000E-03 0.  1.
     -623    1    1    2    0    0 -0.18536138425E-04 -0.15074979082E-02  0.31028393554E-03  0.17130000001E+03  0.17130000000E+03 0.  1.
      622    1    1    2    0    0  0.19195243546E-01 -0.18260823772E-02  0.29415110597E+01  0.29416422465E+01  0.20000000000E-01 0.  1.
</event>
<event>
 5   0  0.3603037E+08  0.9118800E+02  0.7818608E-02  0.1180000E+00
       11   -1    0    0    0    0  0.00000000000E+00  0.00000000000E+00  0.39999999673E+01  0.40000000000E+01  0.51109989000E-03 0.  1.
     -623   -1    0    0    0    0  0.00000000000E+00  0.00000000000E+00  0.12525980253E-10  0.17130000000E+03  0.17130000000E+03 0. -1.
       11    1    1    2    0    0 -0.34295942952E-03 -0.49456222445E-03  0.52734300475E+00  0.52734359586E+00  0.51109989000E-03 0.  1.
     -623    1    1    2    0    0  0.12963769362E-03  0.11389537256E-02  0.58221931504E-04  0.17130000000E+03  0.17130000000E+03 0. -1.
      622    1    1    2    0    0  0.21332173589E-03 -0.64439150117E-03  0.34725987407E+01  0.34726564003E+01  0.20000000000E-01 0.  1.
</event>
<event>
 5   0  0.3603037E+08  0.9118800E+02  0.7818608E-02  0.1180000E+00
       11   -1    0    0    0    0  0.00000000000E+00  0.00000000000E+00  0.39999999673E+01  0.40000000000E+01  0.51109989000E-03 0.  1.
     -623   -1    0    0    0    0  0.00000000000E+00  0.00000000000E+00  0.12525980253E-10  0.17130000000E+03  0.17130000000E+03 0. -1.
       11    1    1    2    0    0 -0.44355627850E-02 -0.54968857145E-02  0.22264872057E+00  0.22276131613E+00  0.51109989000E-03 0.  1.
     -623    1    1    2    0    0  0.28636628922E-03  0.10473729660E-01  0.17139023409E-03  0.17130000032E+03  0.17130000000E+03 0. -1.
      622    1    1    2    0    0  0.41491964958E-02 -0.49768439457E-02  0.37771798566E+01  0.37772383634E+01  0.20000000000E-01 0.  1.
</event>
<event>
 5   0  0.3603037E+08  0.9118800E+02  0.7818608E-02  0.1180000E+00
       11   -1    0    0    0    0  0.00000000000E+00  0.00000000000E+00  0.39999999673E+01  0.40000000000E+01  0.51109989000E-03 0.  1.
     -623   -1    0    0    0    0  0.00000000000E+00  0.00000000000E+00  0.12525980253E-10  0.17130000000E+03  0.17130000000E+03 0.  1.
       11    1    1    2    0    0  0.80704105795E-03  0.45256070867E-03  0.50686781137E-01  0.50697802030E-01  0.51109989000E-03 0.  1.
     -623    1    1    2    0    0  0.36862154065E-03 -0.18954694786E-02  0.62079915971E-04  0.17130000001E+03  0.17130000000E+03 0.  1.
      622    1    1    2    0    0 -0.11756625986E-02  0.14429087700E-02  0.39492511063E+01  0.39493021871E+01  0.20000000000E-01 0.  1.
</event>
<event>
 5   0  0.3603037E+08  0.9118800E+02  0.7818608E-02  0.1180000E+00
       11   -1    0    0    0    0  0.00000000000E+00  0.00000000000E+00  0.39999999673E+01  0.40000000000E+01  0.51109989000E-03 0.  1.
     -623   -1    0    0    0    0  0.00000000000E+00  0.00000000000E+00  0.12525980253E-10  0.17130000000E+03  0.17130000000E+03 0.  1.
       11    1    1    2    0    0 -0.19634492336E-01 -0.75400872027E-03  0.22933403168E+01  0.22934245468E+01  0.51109989000E-03 0.  1.
     -623    1    1    2    0    0 -0.11458198325E-01  0.10371069584E-01  0.51248452742E-03  0.17130000070E+03  0.17130000000E+03 0.  1.
      622    1    1    2    0    0  0.31092690660E-01 -0.96170608633E-02  0.17061471660E+01  0.17065747553E+01  0.20000000000E-01 0.  0.
</event>
<event>
 5   0  0.3603037E+08  0.9118800E+02  0.7818608E-02  0.1180000E+00
       11   -1    0    0    0    0  0.00000000000E+00  0.00000000000E+00  0.39999999673E+01  0.40000000000E+01  0.51109989000E-03 0.  1.
     -623   -1    0    0    0    0  0.00000000000E+00  0.00000000000E+00  0.12525980253E-10  0.17130000000E+03  0.17130000000E+03 0. -1.
       11    1    1    2    0    0  0.50994662209E-02  0.65318078896E-02  0.74254383601E+00  0.74259024953E+00  0.51109989000E-03 0.  1.
     -623    1    1    2    0    0 -0.70216149763E-02  0.89500895682E-03  0.11696000082E-03  0.17130000015E+03  0.17130000000E+03 0. -1.
      622    1    1    2    0    0  0.19221487554E-02 -0.74268168464E-02  0.32573391713E+01  0.32574096042E+01  0.20000000000E-01 0.  1.
</event>
<event>
 5   0  0.3603037E+08  0.9118800E+02  0.7818608E-02  0.1180000E+00
       11   -1    0    0    0    0  0.00000000000E+00  0.00000000000E+00  0.39999999673E+01  0.40000000000E+01  0.51109989000E-03 0.  1.
     -623   -1    0    0    0    0  0.00000000000E+00  0.00000000000E+00  0.12525980253E-10  0.17130000000E+03  0.17130000000E+03 0. -1.
       11    1    1    2    0    0  0.64724018826E-03 -0.76247293379E-03  0.19780613930E-01  0.19812475668E-01  0.51109989000E-03 0.  1.
     -623    1    1    2    0    0  0.11429589123E-03  0.15860961717E-03  0.82197098443E-04  0.17130000000E+03  0.17130000000E+03 0. -1.
      622    1    1    2    0    0 -0.76153607948E-03  0.60386331662E-03  0.39801371563E+01  0.39801875242E+01  0.20000000000E-01 0.  1.
</event>
<event>
 5   0  0.3603037E+08  0.9118800E+02  0.7818608E-02  0.1180000E+00
       11   -1    0    0    0    0  0.00000000000E+00  0.00000000000E+00  0.39999999673E+01  0.40000000000E+01  0.51109989000E-03 0.  1.
     -623   -1    0    0    0    0  0.00000000000E+00  0.00000000000E+00  0.12525980253E-10  0.17130000000E+03  0.17130000000E+03 0. -1.
       11    1    1    2    0    0 -0.19375797695E-02 -0.25066429950E-02  0.34206391864E+01  0.34206406918E+01  0.51109989000E-03 0.  1.
     -623    1    1    2    0    0 -0.41525578428E-03 -0.18157622733E-02  0.36770948613E-03  0.17130000001E+03  0.17130000000E+03 0. -1.
      622    1    1    2    0    0  0.23528355538E-02  0.43224052683E-02  0.57899307144E+00  0.57935929767E+00  0.20000000000E-01 0.  1.
</event>
<event>
 5   0  0.3603037E+08  0.9118800E+02  0.7818608E-02  0.1180000E+00
       11   -1    0    0    0    0  0.00000000000E+00  0.00000000000E+00  0.39999999673E+01  0.40000000000E+01  0.51109989000E-03 0. -1.
     -623   -1    0    0    0    0  0.00000000000E+00  0.00000000000E+00  0.12525980253E-10  0.17130000000E+03  0.17130000000E+03 0.  1.
       11    1    1    2    0    0 -0.14135150767E-01 -0.21443224115E-01  0.39162552295E+00  0.39246710155E+00  0.51109989000E-03 0. -1.
     -623    1    1    2    0    0  0.72555734357E-02 -0.26706949240E-02  0.98431794682E-03  0.17130000018E+03  0.17130000000E+03 0.  1.
      622    1    1    2    0    0  0.68795773308E-02  0.24113919039E-01  0.36073901265E+01  0.36075327211E+01  0.20000000000E-01 0. -1.
</event>
<event>
 5   0  0.3603037E+08  0.9118800E+02  0.7818608E-02  0.1180000E+00
       11   -1    0    0    0    0  0.00000000000E+00  0.00000000000E+00  0.39999999673E+01  0.40000000000E+01  0.51109989000E-03 0.  1.
     -623   -1    0    0    0    0  0.00000000000E+00  0.00000000000E+00  0.12525980253E-10  0.17130000000E+03  0.17130000000E+03 0.  1.
       11    1    1    2    0    0  0.91547287166E-02  0.18961372040E-01  0.69474084820E+00  0.69506003342E+00  0.51109989000E-03 0.  1.
     -623    1    1    2    0    0 -0.45326966700E-02 -0.12286993316E-01  0.39014140882E-03  0.17130000050E+03  0.17130000000E+03 0.  1.
      622    1    1    2    0    0 -0.46220320466E-02 -0.66743787236E-02  0.33048689778E+01  0.33049394655E+01  0.20000000000E-01 0.  1.
</event>
<event>
 5   0  0.3603037E+08  0.9118800E+02  0.7818608E-02  0.1180000E+00
       11   -1    0    0    0    0  0.00000000000E+00  0.00000000000E+00  0.39999999673E+01  0.40000000000E+01  0.51109989000E-03 0.  1.
     -623   -1    0    0    0    0  0.00000000000E+00  0.00000000000E+00  0.12525980253E-10  0.17130000000E+03  0.17130000000E+03 0.  1.
       11    1    1    2    0    0 -0.76544974286E-03 -0.17470754777E-02  0.12105363113E-01  0.12265366836E-01  0.51109989000E-03 0.  1.
     -623    1    1    2    0    0 -0.65794976519E-03  0.72556163745E-03  0.21051299536E-03  0.17130000000E+03  0.17130000000E+03 0.  1.
      622    1    1    2    0    0  0.14233995081E-02  0.10215138402E-02  0.39876840913E+01  0.39877346302E+01  0.20000000000E-01 0.  1.
</event>
<event>
 5   0  0.3603037E+08  0.9118800E+02  0.7818608E-02  0.1180000E+00
       11   -1    0    0    0    0  0.00000000000E+00  0.00000000000E+00  0.39999999673E+01  0.40000000000E+01  0.51109989000E-03 0. -1.
     -623   -1    0    0    0    0  0.00000000000E+00  0.00000000000E+00  0.12525980253E-10  0.17130000000E+03  0.17130000000E+03 0. -1.
       11    1    1    2    0    0  0.22797163152E-02 -0.80147034254E-02  0.14491939029E+00  0.14515964826E+00  0.51109989000E-03 0. -1.
     -623    1    1    2    0    0  0.61673809398E-02  0.17198131060E-02  0.30662342315E-03  0.17130000012E+03  0.17130000000E+03 0. -1.
      622    1    1    2    0    0 -0.84470972550E-02  0.62948903195E-02  0.38547739536E+01  0.38548402318E+01  0.20000000000E-01 0. -1.
</event>
<event>
 5   0  0.3603037E+08  0.9118800E+02  0.7818608E-02  0.1180000E+00
       11   -1    0    0    0    0  0.00000000000E+00  0.00000000000E+00  0.39999999673E+01  0.40000000000E+01  0.51109989000E-03 0. -1.
     -623   -1    0    0    0    0  0.00000000000E+00  0.00000000000E+00  0.12525980253E-10  0.17130000000E+03  0.17130000000E+03 0. -1.
       11    1    1    2    0    0 -0.29208509815E-04  0.75097977583E-03  0.21459833834E-01  0.21479071544E-01  0.51109989000E-03 0. -1.
     -623    1    1    2    0    0  0.34982523423E-03 -0.30357309956E-03  0.69514041707E-04  0.17130000000E+03  0.17130000000E+03 0. -1.
      622    1    1    2    0    0 -0.32061672441E-03 -0.44740667627E-03  0.39784706195E+01  0.39785209278E+01  0.20000000000E-01 0. -1.
</event>
<event>
 5   0  0.3603037E+08  0.9118800E+02  0.7818608E-02  0.1180000E+00
       11   -1    0    0    0    0  0.00000000000E+00  0.00000000000E+00  0.39999999673E+01  0.40000000000E+01  0.51109989000E-03 0. -1.
     -623   -1    0    0    0    0  0.00000000000E+00  0.00000000000E+00  0.12525980253E-10  0.17130000000E+03  0.17130000000E+03 0.  1.
       11    1    1    2    0    0  0.79104279696E-02 -0.11286673261E-01  0.21110936200E+01  0.21111386732E+01  0.51109989000E-03 0. -1.
     -623    1    1    2    0    0 -0.19519345184E-03  0.31195202250E-02  0.18435179235E-03  0.17130000003E+03  0.17130000000E+03 0.  1.
      622    1    1    2    0    0 -0.77152345178E-02  0.81671530363E-02  0.18887219956E+01  0.18888612982E+01  0.20000000000E-01 0. -1.
</event>
<event>
 5   0  0.3603037E+08  0.9118800E+02  0.7818608E-02  0.1180000E+00
       11   -1    0    0    0    0  0.00000000000E+00  0.00000000000E+00  0.39999999673E+01  0.40000000000E+01  0.51109989000E-03 0. -1.
     -623   -1    0    0    0    0  0.00000000000E+00  0.00000000000E+00  0.12525980253E-10  0.17130000000E+03  0.17130000000E+03 0. -1.
       11    1    1    2    0    0  0.21736422150E-03 -0.43997504789E-03  0.10784898121E+00  0.10785130873E+00  0.51109989000E-03 0. -1.
     -623    1    1    2    0    0  0.21384212451E-02  0.13971577262E-02  0.54530414871E-04  0.17130000002E+03  0.17130000000E+03 0. -1.
      622    1    1    2    0    0 -0.23557854666E-02 -0.95718267832E-03  0.38920964557E+01  0.38921486722E+01  0.20000000000E-01 0. -1.
</event>
<event>
 5   0  0.3603037E+08  0.9118800E+02  0.7818608E-02  0.1180000E+00
       11   -1    0    0    0    0  0.00000000000E+00  0.00000000000E+00  0.39999999673E+01  0.40000000000E+01  0.51109989000E-03 0.  1.
     -623   -1    0    0    0    0  0.00000000000E+00  0.00000000000E+00  0.12525980253E-10  0.17130000000E+03  0.17130000000E+03 0.  1.
       11    1    1    2    0    0 -0.32284138666E-03  0.17331226987E-02  0.31812090009E-01  0.31865000120E-01  0.51109989000E-03 0.  1.
     -623    1    1    2    0    0 -0.12194140798E-03 -0.46885817184E-03  0.10350634834E-03  0.17130000000E+03  0.17130000000E+03 0.  1.
      622    1    1    2    0    0  0.44478279464E-03 -0.12642645269E-02  0.39680843710E+01  0.39681349992E+01  0.20000000000E-01 0.  1.
</event>
<event>
 5   0  0.3603037E+08  0.9118800E+02  0.7818608E-02  0.1180000E+00
       11   -1    0    0    0    0  0.00000000000E+00  0.00000000000E+00  0.39999999673E+01  0.40000000000E+01  0.51109989000E-03 0. -1.
     -623   -1    0    0    0    0  0.00000000000E+00  0.00000000000E+00  0.12525980253E-10  0.17130000000E+03  0.17130000000E+03 0.  1.
       11    1    1    2    0    0 -0.30739641064E-02 -0.80937010538E-03  0.59541413425E+00  0.59542283868E+00  0.51109989000E-03 0. -1.
     -623    1    1    2    0    0 -0.62994309785E-04 -0.62287735779E-03  0.69164381109E-04  0.17130000000E+03  0.17130000000E+03 0.  1.
      622    1    1    2    0    0  0.31369584162E-02  0.14322474632E-02  0.34045166687E+01  0.34045771602E+01  0.20000000000E-01 0. -1.
</event>
<event>
 5   0  0.3603037E+08  0.9118800E+02  0.7818608E-02  0.1180000E+00
       11   -1    0    0    0    0  0.00000000000E+00  0.00000000000E+00  0.39999999673E+01  0.40000000000E+01  0.51109989000E-03 0.  1.
     -623   -1    0    0    0    0  0.00000000000E+00  0.00000000000E+00  0.12525980253E-10  0.17130000000E+03  0.17130000000E+03 0. -1.
       11    1    1    2    0    0  0.72901758100E-02  0.72098009151E-02  0.17630586527E+01  0.17630885406E+01  0.51109989000E-03 0.  1.
     -623    1    1    2    0    0 -0.10955369377E-03  0.21454416293E-03  0.14311322103E-03  0.17130000000E+03  0.17130000000E+03 0. -1.
      622    1    1    2    0    0 -0.71806221162E-02 -0.74243450781E-02  0.22367982014E+01  0.22369114591E+01  0.20000000000E-01 0. -1.
</event>
<event>
 5   0  0.3603037E+08  0.9118800E+02  0.7818608E-02  0.1180000E+00
       11   -1    0    0    0    0  0.00000000000E+00  0.00000000000E+00  0.39999999673E+01  0.40000000000E+01  0.51109989000E-03 0.  1.
     -623   -1    0    0    0    0  0.00000000000E+00  0.00000000000E+00  0.12525980253E-10  0.17130000000E+03  0.17130000000E+03 0.  1.
       11    1    1    2    0    0 -0.63872608384E-02  0.24739622719E-02  0.12487443003E+00  0.12506319238E+00  0.51109989000E-03 0.  1.
     -623    1    1    2    0    0  0.15416959307E-03 -0.35368948155E-03  0.24593773174E-03  0.17130000000E+03  0.17130000000E+03 0.  1.
      622    1    1    2    0    0  0.62330912453E-02 -0.21202727903E-02  0.38748795996E+01  0.38749368070E+01  0.20000000000E-01 0.  1.
</event>
<event>
 5   0  0.3603037E+08  0.9118800E+02  0.7818608E-02  0.1180000E+00
       11   -1    0    0    0    0  0.00000000000E+00  0.00000000000E+00  0.39999999673E+01  0.40000000000E+01  0.51109989000E-03 0.  1.
     -623   -1    0    0    0    0  0.00000000000E+00  0.00000000000E+00  0.12525980253E-10  0.17130000000E+03  0.17130000000E+03 0. -1.
       11    1    1    2    0    0  0.28116623990E-02 -0.58420227893E-02  0.35217604948E+00  0.35223609373E+00  0.51109989000E-03 0.  1.
     -623    1    1    2    0    0 -0.94518969458E-03  0.15380060472E-02  0.11786640894E-03  0.17130000001E+03  0.17130000000E+03 0. -1.
      622    1    1    2    0    0 -0.18664727044E-02  0.43040167421E-02  0.36477060515E+01  0.36477638967E+01  0.20000000000E-01 0.  0.
</event>
<event>
 5   0  0.3603037E+08  0.9118800E+02  0.7818608E-02  0.1180000E+00
       11   -1    0    0    0    0  0.00000000000E+00  0.00000000000E+00  0.39999999673E+01  0.40000000000E+01  0.51109989000E-03 0. -1.
     -623   -1    0    0    0    0  0.00000000000E+00  0.00000000000E+00  0.12525980253E-10  0.17130000000E+03  0.17130000000E+03 0.  1.
       11    1    1    2    0    0  0.15764091198E-02  0.41761179244E-02  0.15827482271E+00  0.15833857948E+00  0.51109989000E-03 0. -1.
     -623    1    1    2    0    0 -0.68004185727E-03  0.69538912788E-03  0.11898142197E-03  0.17130000000E+03  0.17130000000E+03 0.  1.
      622    1    1    2    0    0 -0.89636726258E-03 -0.48715070523E-02  0.38416061632E+01  0.38416614177E+01  0.20000000000E-01 0. -1.
</event>
<event>
 5   0  0.3603037E+08  0.9118800E+02  0.7818608E-02  0.1180000E+00
       11   -1    0    0    0    0  0.00000000000E+00  0.00000000000E+00  0.39999999673E+01  0.40000000000E+01  0.51109989000E-03 0. -1.
     -623   -1    0    0    0    0  0.00000000000E+00  0.00000000000E+00  0.12525980253E-10  0.17130000000E+03  0.17130000000E+03 0.  1.
       11    1    1    2    0    0 -0.82819363712E-03 -0.20189458406E-04  0.70617449902E-01  0.70624158510E-01  0.51109989000E-03 0. -1.
     -623    1    1    2    0    0 -0.22112054080E-03 -0.60840309692E-04  0.57716073211E-04  0.17130000000E+03  0.17130000000E+03 0.  1.
      622    1    1    2    0    0  0.10493141779E-02  0.81029768098E-04  0.39293248014E+01  0.39293758413E+01  0.20000000000E-01 0. -1.
</event>
<event>
 5   0  0.3603037E+08  0.9118800E+02  0.7818608E-02  0.1180000E+00
       11   -1    0    0    0    0  0.00000000000E+00  0.00000000000E+00  0.39999999673E+01  0.40000000000E+01  0.51109989000E-03 0. -1.
     -623   -1    0    0    0    0  0.00000000000E+00  0.00000000000E+00  0.12525980253E-10  0.17130000000E+03  0.17130000000E+03 0. -1.
       11    1    1    2    0    0  0.16195547140E-02 -0.61473580059E-03  0.15532016078E-01  0.15636674889E-01  0.51109989000E-03 0. -1.
     -623    1    1    2    0    0 -0.12789503139E-02 -0.31544532056E-03  0.15495098664E-03  0.17130000001E+03  0.17130000000E+03 0. -1.
      622    1    1    2    0    0 -0.34060440010E-03  0.93018112116E-03  0.39843130003E+01  0.39843633200E+01  0.20000000000E-01 0. -1.
</event>
<event>
 5   0  0.3603037E+08  0.9118800E+02  0.7818608E-02  0.1180000E+00
       11   -1    0    0    0    0  0.00000000000E+00  0.00000000000E+00  0.39999999673E+01  0.40000000000E+01  0.51109989000E-03 0.  1.
     -623   -1    0    0    0    0  0.00000000000E+00  0.00000000000E+00  0.12525980253E-10  0.17130000000E+03  0.17130000000E+03 0.  1.
       11    1    1    2    0    0 -0.33290397658E-02 -0.33397946055E-02  0.22947859595E+01  0.22947908615E+01  0.51109989000E-03 0.  1.
     -623    1    1    2    0    0  0.86274009216E-02 -0.62862771694E-03  0.13522959812E-03  0.17130000022E+03  0.17130000000E+03 0.  1.
      622    1    1    2    0    0 -0.52983611558E-02  0.39684223225E-02  0.17050787783E+01  0.17052089201E+01  0.20000000000E-01 0.  1.
</event>
<event>
 5   0  0.3603037E+08  0.9118800E+02  0.7818608E-02  0.1180000E+00
       11   -1    0    0    0    0  0.00000000000E+00  0.00000000000E+00  0.39999999673E+01  0.40000000000E+01  0.51109989000E-03 0. -1.
     -623   -1    0    0    0    0  0.00000000000E+00  0.00000000000E+00  0.12525980253E-10  0.17130000000E+03  0.17130000000E+03 0. -1.
       11    1    1    2    0    0 -0.54863416737E-02  0.31134486893E-02  0.83771262590E+00  0.83773653276E+00  0.51109989000E-03 0. -1.
     -623    1    1    2    0    0  0.13113997476E-03  0.45291795282E-04  0.93232949766E-04  0.17130000000E+03  0.17130000000E+03 0. -1.
      622    1    1    2    0    0  0.53552016990E-02 -0.31587404845E-02  0.31621941085E+01  0.31622634672E+01  0.20000000000E-01 0.  1.
</event>
<event>
 5   0  0.3603037E+08  0.9118800E+02  0.7818608E-02  0.1180000E+00
       11   -1    0    0    0    0  0.00000000000E+00  0.00000000000E+00  0.39999999673E+01  0.40000000000E+01  0.51109989000E-03 0. -1.
     -623   -1    0    0    0    0  0.00000000000E+00  0.00000000000E+00  0.12525980253E-10  0.17130000000E+03  0.17130000000E+03 0.  1.
       11    1    1    2    0    0 -0.41105836829E-02 -0.54662709978E-02  0.31354137472E+00  0.31361637696E+00  0.51109989000E-03 0. -1.
     -623    1    1    2    0    0 -0.25919516372E-03  0.45741469740E-03  0.13521747999E-03  0.17130000000E+03  0.17130000000E+03 0.  1.
      622    1    1    2    0    0  0.43697788466E-02  0.50088563004E-02  0.36863233752E+01  0.36863836222E+01  0.20000000000E-01 0. -1.
</event>
<event>
 5   0  0.3603037E+08  0.9118800E+02  0.7818608E-02  0.1180000E+00
       11   -1    0    0    0    0  0.00000000000E+00  0.00000000000E+00  0.39999999673E+01  0.40000000000E+01  0.51109989000E-03 0.  1.
     -623   -1    0    0    0    0  0.00000000000E+00  0.00000000000E+00  0.12525980253E-10  0.17130000000E+03  0.17130000000E+03 0. -1.
       11    1    1    2    0    0 -0.13990042763E-02 -0.13038766607E-02  0.25145888011E+00  0.25146667158E+00  0.51109989000E-03 0.  1.
     -623    1    1    2    0    0 -0.21642366439E-03 -0.32149177917E-04  0.61699741800E-04  0.17130000000E+03  0.17130000000E+03 0. -1.
      622    1    1    2    0    0  0.16154279407E-02  0.13360258386E-02  0.37484793875E+01  0.37485333283E+01  0.20000000000E-01 0.  0.
</event>
<event>
 5   0  0.3603037E+08  0.9118800E+02  0.7818608E-02  0.1180000E+00
       11   -1    0    0    0    0  0.00000000000E+00  0.00000000000E+00  0.39999999673E+01  0.40000000000E+01  0.51109989000E-03 0. -1.
     -623   -1    0    0    0    0  0.00000000000E+00  0.00000000000E+00  0.12525980253E-10  0.17130000000E+03  0.17130000000E+03 0. -1.
       11    1    1    2    0    0  0.64887174455E-02 -0.81297774091E-02  0.48440614034E+00  0.48451807681E+00  0.51109989000E-03 0. -1.
     -623    1    1    2    0    0  0.38667127678E-03 -0.27057403172E-03  0.18555625924E-03  0.17130000000E+03  0.17130000000E+03 0. -1.
      622    1    1    2    0    0 -0.68753887223E-02  0.84003514408E-02  0.35154082708E+01  0.35154819224E+01  0.20000000000E-01 0. -1.
</event>
<event>
 5   0  0.3603037E+08  0.9118800E+02  0.7818608E-02  0.1180000E+00
       11   -1    0    0    0    0  0.00000000000E+00  0.00000000000E+00  0.39999999673E+01  0.40000000000E+01  0.51109989000E-03 0. -1.
     -623   -1    0    0    0    0  0.00000000000E+00  0.00000000000E+00  0.12525980253E-10  0.17130000000E+03  0.17130000000E+03 0. -1.
       11    1    1    2    0    0  0.58473598877E-02 -0.37462311955E-03  0.36969425360E+00  0.36974103684E+00  0.51109989000E-03 0. -1.
     -623    1    1    2    0    0 -0.28895314337E-04 -0.19385829412E-02  0.10725441546E-03  0.17130000001E+03  0.17130000000E+03 0. -1.
      622    1    1    2    0    0 -0.58184645734E-02  0.23132060608E-02  0.36301984593E+01  0.36302589522E+01  0.20000000000E-01 0. -1.
</event>
<event>
 5   0  0.3603037E+08  0.9118800E+02  0.7818608E-02  0.1180000E+00
       11   -1    0    0    0    0  0.00000000000E+00  0.00000000000E+00  0.39999999673E+01  0.40000000000E+01  0.51109989000E-03 0. -1.
     -623   -1    0    0    0    0  0.00000000000E+00  0.00000000000E+00  0.12525980253E-10  0.17130000000E+03  0.17130000000E+03 0.  1.
       11    1    1    2    0    0 -0.23592289665E-02 -0.18609904550E-01  0.31528184084E+00  0.31583982474E+00  0.51109989000E-03 0. -1.
     -623    1    1    2    0    0 -0.14571534143E-02 -0.77012389977E-03  0.66519818971E-03  0.17130000001E+03  0.17130000000E+03 0.  1.
      622    1    1    2    0    0  0.38163823808E-02  0.19380028450E-01  0.36840529283E+01  0.36841601660E+01  0.20000000000E-01 0. -1.
</event>
<event>
 5   0  0.3603037E+08  0.9118800E+02  0.7818608E-02  0.1180000E+00
       11   -1    0    0    0    0  0.00000000000E+00  0.00000000000E+00  0.39999999673E+01  0.40000000000E+01  0.51109989000E-03 0.  1.
     -623   -1    0    0    0    0  0.00000000000E+00  0.00000000000E+00  0.12525980253E-10  0.17130000000E+03  0.17130000000E+03 0. -1.
       11    1    1    2    0    0 -0.17810662408E-02 -0.14849899670E-02  0.89206823102E-02  0.92313155628E-02  0.51109989000E-03 0.  1.
     -623    1    1    2    0    0  0.16063893888E-02 -0.63613666777E-03  0.36129320778E-03  0.17130000001E+03  0.17130000000E+03 0. -1.
      622    1    1    2    0    0  0.17467685203E-03  0.21211266348E-02  0.39907179918E+01  0.39907686753E+01  0.20000000000E-01 0.  1.
</event>
<event>
 5   0  0.3603037E+08  0.9118800E+02  0.7818608E-02  0.1180000E+00
       11   -1    0    0    0    0  0.00000000000E+00  0.00000000000E+00  0.39999999673E+01  0.40000000000E+01  0.51109989000E-03 0.  1.
     -623   -1    0    0    0    0  0.00000000000E+00  0.00000000000E+00  0.12525980253E-10  0.17130000000E+03  0.17130000000E+03 0.  1.
       11    1    1    2    0    0 -0.13620888378E-02  0.20776875832E-02  0.27463226210E+00  0.27464397441E+00  0.51109989000E-03 0.  1.
     -623    1    1    2    0    0  0.34796504090E-03  0.64567675187E-03  0.66501269919E-04  0.17130000000E+03  0.17130000000E+03 0.  1.
      622    1    1    2    0    0  0.10141237970E-02 -0.27233643351E-02  0.37253012040E+01  0.37253560240E+01  0.20000000000E-01 0.  1.
</event>
<event>
 5   0  0.3603037E+08  0.9118800E+02  0.7818608E-02  0.1180000E+00
       11   -1    0    0    0    0  0.00000000000E+00  0.00000000000E+00  0.39999999673E+01  0.40000000000E+01  0.51109989000E-03 0. -1.
     -623   -1    0    0    0    0  0.00000000000E+00  0.00000000000E+00  0.12525980253E-10  0.17130000000E+03  0.17130000000E+03 0. -1.
       11    1    1    2    0    0  0.23772905008E-03 -0.32029281571E-02  0.47277921188E-01  0.47389643556E-01  0.51109989000E-03 0. -1.
     -623    1    1    2    0    0 -0.22981014992E-03  0.96600485163E-04  0.16351042800E-03  0.17130000000E+03  0.17130000000E+03 0. -1.
      622    1    1    2    0    0 -0.79189001613E-05  0.31063276720E-02  0.39525585357E+01  0.39526103562E+01  0.20000000000E-01 0. -1.
</event>
<event>
 5   0  0.3603037E+08  0.9118800E+02  0.7818608E-02  0.1180000E+00
       11   -1    0    0    0    0  0.00000000000E+00  0.00000000000E+00  0.39999999673E+01  0.40000000000E+01  0.51109989000E-03 0. -1.
     -623   -1    0    0    0    0  0.00000000000E+00  0.00000000000E+00  0.12525980253E-10  0.17130000000E+03  0.17130000000E+03 0.  1.
       11    1    1    2    0    0 -0.28098270761E-02  0.26350482168E-02  0.93169004511E-01  0.93250003920E-01  0.51109989000E-03 0. -1.
     -623    1    1    2    0    0  0.61044507165E-03 -0.26935407269E-03  0.13349727468E-03  0.17130000000E+03  0.17130000000E+03 0.  1.
      622    1    1    2    0    0  0.21993820044E-02 -0.23656941441E-02  0.39066974656E+01  0.39067499947E+01  0.20000000000E-01 0.  0.
</event>
<event>
 5   0  0.3603037E+08  0.9118800E+02  0.7818608E-02  0.1180000E+00
       11   -1    0    0    0    0  0.00000000000E+00  0.00000000000E+00  0.39999999673E+01  0.40000000000E+01  0.51109989000E-03 0. -1.
     -623   -1    0    0    0    0  0.00000000000E+00  0.00000000000E+00  0.12525980253E-10  0.17130000000E+03  0.17130000000E+03 0.  1.
       11    1    1    2    0    0 -0.18156252717E-02 -0.11288739924E-01  0.72307890054E-01  0.73208089234E-01  0.51109989000E-03 0. -1.
     -623    1    1    2    0    0  0.52740956976E-02 -0.30830077625E-02  0.97903395668E-03  0.17130000011E+03  0.17130000000E+03 0.  1.
      622    1    1    2    0    0 -0.34584704259E-02  0.14371747686E-01  0.39267130433E+01  0.39267917990E+01  0.20000000000E-01 0. -1.
</event>
<event>
 5   0  0.3603037E+08  0.9118800E+02  0.7818608E-02  0.1180000E+00
       11   -1    0    0    0    0  0.00000000000E+00  0.00000000000E+00  0.39999999673E+01  0.40000000000E+01  0.51109989000E-03 0. -1.
     -623   -1    0    0    0    0  0.00000000000E+00  0.00000000000E+00  0.12525980253E-10  0.17130000000E+03  0.17130000000E+03 0. -1.
       11    1    1    2    0    0  0.14014083488E-02 -0.53064633460E-03  0.28430239987E-01  0.28474291887E-01  0.51109989000E-03 0. -1.
     -623    1    1    2    0    0 -0.16296699356E-02  0.20698271896E-02  0.94703165073E-04  0.17130000002E+03  0.17130000000E+03 0. -1.
      622    1    1    2    0    0  0.22826158679E-03 -0.15391808550E-02  0.39714750242E+01  0.39715256878E+01  0.20000000000E-01 0. -1.
</event>
<event>
 5   0  0.3603037E+08  0.9118800E+02  0.7818608E-02  0.1180000E+00
       11   -1    0    0    0    0  0.00000000000E+00  0.00000000000E+00  0.39999999673E+01  0.40000000000E+01  0.51109989000E-03 0. -1.
     -623   -1    0    0    0    0  0.00000000000E+00  0.00000000000E+00  0.12525980253E-10  0.17130000000E+03  0.17130000000E+03 0.  1.
       11    1    1    2    0    0 -0.67934681477E-02 -0.57999396816E-02  0.82565868956E+00  0.82570716563E+00  0.51109989000E-03 0. -1.
     -623    1    1    2    0    0  0.29109116613E-03 -0.37148000905E-04  0.12347746954E-03  0.17130000000E+03  0.17130000000E+03 0.  1.
      622    1    1    2    0    0  0.65023769816E-02  0.58370876825E-02  0.31742178003E+01  0.31742928341E+01  0.20000000000E-01 0. -1.
</event>
<event>
 5   0  0.3603037E+08  0.9118800E+02  0.7818608E-02  0.1180000E+00
       11   -1    0    0    0    0  0.00000000000E+00  0.00000000000E+00  0.39999999673E+01  0.40000000000E+01  0.51109989000E-03 0.  1.
     -623   -1    0    0    0    0  0.00000000000E+00  0.00000000000E+00  0.12525980253E-10  0.17130000000E+03  0.17130000000E+03 0.  1.
       11    1    1    2    0    0 -0.13121691815E-01  0.32419172197E-02  0.84927553900E+00  0.84938324165E+00  0.51109989000E-03 0.  1.
     -623    1    1    2    0    0  0.84085137748E-02  0.11960703648E-01  0.21197926871E-03  0.17130000062E+03  0.17130000000E+03 0.  1.
      622    1    1    2    0    0  0.47131780402E-02 -0.15202620868E-01  0.31505124491E+01  0.31506161343E+01  0.20000000000E-01 0.  1.
</event>
<event>
 5   0  0.3603037E+08  0.9118800E+02  0.7818608E-02  0.1180000E+00
       11   -1    0    0    0    0  0.00000000000E+00  0.00000000000E+00  0.39999999673E+01  0.40000000000E+01  0.51109989000E-03 0. -1.
     -623   -1    0    0    0    0  0.00000000000E+00  0.00000000000E+00  0.12525980253E-10  0.17130000000E+03  0.17130000000E+03 0. -1.
       11    1    1    2    0    0 -0.61856386971E-02 -0.31539782602E-02  0.75970742763E+00  0.75973932801E+00  0.51109989000E-03 0. -1.
     -623    1    1    2    0    0 -0.17129706366E-03 -0.11596092280E-03  0.10147772127E-03  0.17130000000E+03  0.17130000000E+03 0. -1.
      622    1    1    2    0    0  0.63569357608E-02  0.32699391830E-02  0.32401910620E+01  0.32402606718E+01  0.20000000000E-01 0.  0.
</event>
<event>
 5   0  0.3603037E+08  0.9118800E+02  0.7818608E-02  0.1180000E+00
       11   -1    0    0    0    0  0.00000000000E+00  0.00000000000E+00  0.39999999673E+01  0.40000000000E+01  0.51109989000E-03 0. -1.
     -623   -1    0    0    0    0  0.00000000000E+00  0.00000000000E+00  0.12525980253E-10  0.17130000000E+03  0.17130000000E+03 0. -1.
       11    1    1    2    0    0 -0.64480300382E-02 -0.53826339319E-01  0.19354352677E+01  0.19361944087E+01  0.51109989000E-03 0. -1.
     -623    1    1    2    0    0 -0.20008768384E-01  0.31924104738E-01  0.11459999019E-02  0.17130000415E+03  0.17130000000E+03 0. -1.
      622    1    1    2    0    0  0.26456798422E-01  0.21902234581E-01  0.20634186998E+01  0.20638014441E+01  0.20000000000E-01 0.  0.
</event>
<event>
 5   0  0.3603037E+08  0.9118800E+02  0.7818608E-02  0.1180000E+00
       11   -1    0    0    0    0  0.00000000000E+00  0.00000000000E+00  0.39999999673E+01  0.40000000000E+01  0.51109989000E-03 0.  1.
     -623   -1    0    0    0    0  0.00000000000E+00  0.00000000000E+00  0.12525980253E-10  0.17130000000E+03  0.17130000000E+03 0. -1.
       11    1    1    2    0    0 -0.35443189787E-02  0.48447231237E-02  0.22836382901E+00  0.22844328215E+00  0.51109989000E-03 0.  1.
     -623    1    1    2    0    0  0.51939265886E-02  0.26514037403E-02  0.14035899974E-03  0.17130000010E+03  0.17130000000E+03 0. -1.
      622    1    1    2    0    0 -0.16496076099E-02 -0.74961268640E-02  0.37714957794E+01  0.37715566185E+01  0.20000000000E-01 0.  1.
</event>
<event>
 5   0  0.3603037E+08  0.9118800E+02  0.7818608E-02  0.1180000E+00
       11   -1    0    0    0    0  0.00000000000E+00  0.00000000000E+00  0.39999999673E+01  0.40000000000E+01  0.51109989000E-03 0. -1.
     -623   -1    0    0    0    0  0.00000000000E+00  0.00000000000E+00  0.12525980253E-10  0.17130000000E+03  0.17130000000E+03 0.  1.
       11    1    1    2    0    0 -0.10648584782E-01 -0.21390693999E-03  0.18124442837E+00  0.18155782040E+00  0.51109989000E-03 0. -1.
     -623    1    1    2    0    0 -0.27582529749E-03  0.62131936081E-03  0.38138803961E-03  0.17130000000E+03  0.17130000000E+03 0.  1.
      622    1    1    2    0    0  0.10924410080E-01 -0.40741242082E-03  0.38183741510E+01  0.38184421778E+01  0.20000000000E-01 0. -1.
</event>
<event>
 5   0  0.3603037E+08  0.9118800E+02  0.7818608E-02  0.1180000E+00
       11   -1    0    0    0    0  0.00000000000E+00  0.00000000000E+00  0.39999999673E+01  0.40000000000E+01  0.51109989000E-03 0. -1.
     -623   -1    0    0    0    0  0.00000000000E+00  0.00000000000E+00  0.12525980253E-10  0.17130000000E+03  0.17130000000E+03 0. -1.
       11    1    1    2    0    0 -0.10962103039E-01  0.16525438008E-01  0.10857428811E+01  0.10859240871E+01  0.51109989000E-03 0. -1.
     -623    1    1    2    0    0  0.53308435485E-03 -0.35785419375E-03  0.31332180293E-03  0.17130000000E+03  0.17130000000E+03 0. -1.
      622    1    1    2    0    0  0.10429018685E-01 -0.16167583814E-01  0.29139437645E+01  0.29140759114E+01  0.20000000000E-01 0.  0.
</event>
<event>
 5   0  0.3603037E+08  0.9118800E+02  0.7818608E-02  0.1180000E+00
       11   -1    0    0    0    0  0.00000000000E+00  0.00000000000E+00  0.39999999673E+01  0.40000000000E+01  0.51109989000E-03 0.  1.
     -623   -1    0    0    0    0  0.00000000000E+00  0.00000000000E+00  0.12525980253E-10  0.17130000000E+03  0.17130000000E+03 0.  1.
       11    1    1    2    0    0 -0.18809419240E-02 -0.35558721004E-02  0.80837030891E-01  0.80938674028E-01  0.51109989000E-03 0.  1.
     -623    1    1    2    0    0  0.53181476307E-03 -0.42369929439E-03  0.15489763138E-03  0.17130000000E+03  0.17130000000E+03 0.  1.
      622    1    1    2    0    0  0.13491271609E-02  0.39795713948E-02  0.39190080388E+01  0.39190613246E+01  0.20000000000E-01 0.  1.
</event>
<event>
 5   0  0.3603037E+08  0.9118800E+02  0.7818608E-02  0.1180000E+00
       11   -1    0    0    0    0  0.00000000000E+00  0.00000000000E+00  0.39999999673E+01  0.40000000000E+01  0.51109989000E-03 0. -1.
     -623   -1    0    0    0    0  0.00000000000E+00  0.00000000000E+00  0.12525980253E-10  0.17130000000E+03  0.17130000000E+03 0. -1.
       11    1    1    2    0    0 -0.28220206273E-02 -0.26804171972E-02  0.36273524750E+00  0.36275648779E+00  0.51109989000E-03 0. -1.
     -623    1    1    2    0    0 -0.55397817517E-03  0.40124997014E-02  0.78053386446E-04  0.17130000005E+03  0.17130000000E+03 0. -1.
      622    1    1    2    0    0  0.33759988025E-02 -0.13320825042E-02  0.36371866665E+01  0.36372434643E+01  0.20000000000E-01 0. -1.
</event>
<event>
 5   0  0.3603037E+08  0.9118800E+02  0.7818608E-02  0.1180000E+00
       11   -1    0    0    0    0  0.00000000000E+00  0.00000000000E+00  0.39999999673E+01  0.40000000000E+01  0.51109989000E-03 0.  1.
     -623   -1    0    0    0    0  0.00000000000E+00  0.00000000000E+00  0.12525980253E-10  0.17130000000E+03  0.17130000000E+03 0.  1.
       11    1    1    2    0    0  0.34280217666E-01  0.12955546713E-01  0.12601222135E+01  0.12606550812E+01  0.51109989000E-03 0.  1.
     -623    1    1    2    0    0  0.94483770386E-03 -0.11941696899E-03  0.86242218631E-03  0.17130000000E+03  0.17130000000E+03 0.  1.
      622    1    1    2    0    0 -0.35225055370E-01 -0.12836129744E-01  0.27390153317E+01  0.27393449140E+01  0.20000000000E-01 0.  0.
</event>
<event>
 5   0  0.3603037E+08  0.9118800E+02  0.7818608E-02  0.1180000E+00
       11   -1    0    0    0    0  0.00000000000E+00  0.00000000000E+00  0.39999999673E+01  0.40000000000E+01  0.51109989000E-03 0.  1.
     -623   -1    0    0    0    0  0.00000000000E+00  0.00000000000E+00  0.12525980253E-10  0.17130000000E+03  0.17130000000E+03 0. -1.
       11    1    1    2    0    0  0.11605298131E-02 -0.12752309145E-02  0.29290341110E+00  0.29290893209E+00  0.51109989000E-03 0.  1.
     -623    1    1    2    0    0  0.74634931131E-03 -0.54498731139E-03  0.60379228877E-04  0.17130000000E+03  0.17130000000E+03 0. -1.
      622    1    1    2    0    0 -0.19068791244E-02  0.18202182259E-02  0.37070361770E+01  0.37070910654E+01  0.20000000000E-01 0.  1.
</event>
<event>
 5   0  0.3603037E+08  0.9118800E+02  0.7818608E-02  0.1180000E+00
       11   -1    0    0    0    0  0.00000000000E+00  0.00000000000E+00  0.39999999673E+01  0.40000000000E+01  0.51109989000E-03 0. -1.
     -623   -1    0    0    0    0  0.00000000000E+00  0.00000000000E+00  0.12525980253E-10  0.17130000000E+03  0.17130000000E+03 0. -1.
       11    1    1    2    0    0 -0.28130299942E-02  0.80715093617E-03  0.10659241819E+01  0.10659283219E+01  0.51109989000E-03 0. -1.
     -623    1    1    2    0    0 -0.13987386514E-03  0.23560811434E-03  0.73944303178E-04  0.17130000000E+03  0.17130000000E+03 0. -1.
      622    1    1    2    0    0  0.29529038593E-02 -0.10427590505E-02  0.29340018412E+01  0.29340716779E+01  0.20000000000E-01 0. -1.
</event>
<event>
 5   0  0.3603037E+08  0.9118800E+02  0.7818608E-02  0.1180000E+00
       11   -1    0    0    0    0  0.00000000000E+00  0.00000000000E+00  0.39999999673E+01  0.40000000000E+01  0.51109989000E-03 0.  1.
     -623   -1    0    0    0    0  0.00000000000E+00  0.00000000000E+00  0.12525980253E-10  0.17130000000E+03  0.17130000000E+03 0. -1.
       11    1    1    2    0    0  0.59556151022E-02 -0.12469589326E-02  0.47539484233E-01  0.47930032762E-01  0.51109989000E-03 0.  1.
     -623    1    1    2    0    0 -0.72858001457E-03  0.52194876349E-03  0.44464873085E-03  0.17130000000E+03  0.17130000000E+03 0. -1.
      622    1    1    2    0    0 -0.52270350876E-02  0.72501016916E-03  0.39520158344E+01  0.39520699643E+01  0.20000000000E-01 0.  1.
</event>
<event>
 5   0  0.3603037E+08  0.9118800E+02  0.7818608E-02  0.1180000E+00
       11   -1    0    0    0    0  0.00000000000E+00  0.00000000000E+00  0.39999999673E+01  0.40000000000E+01  0.51109989000E-03 0. -1.
     -623   -1    0    0    0    0  0.00000000000E+00  0.00000000000E+00  0.12525980253E-10  0.17130000000E+03  0.17130000000E+03 0. -1.
       11    1    1    2    0    0  0.21097462790E-02  0.15854954791E-01  0.19421225142E+01  0.19421884440E+01  0.51109989000E-03 0. -1.
     -623    1    1    2    0    0  0.30029316993E-02 -0.11058406426E-02  0.22233129135E-03  0.17130000003E+03  0.17130000000E+03 0. -1.
      622    1    1    2    0    0 -0.51126779783E-02 -0.14749114148E-01  0.20576551218E+01  0.20578115259E+01  0.20000000000E-01 0. -1.
</event>
<event>
 5   0  0.3603037E+08  0.9118800E+02  0.7818608E-02  0.1180000E+00
       11   -1    0    0    0    0  0.00000000000E+00  0.00000000000E+00  0.39999999673E+01  0.40000000000E+01  0.51109989000E-03 0.  1.
     -623   -1    0    0    0    0  0.00000000000E+00  0.00000000000E+00  0.12525980253E-10  0.17130000000E+03  0.17130000000E+03 0.  1.
       11    1    1    2    0    0 -0.81084375490E-02 -0.11349479871E-02  0.22527597361E+01  0.22527746725E+01  0.51109989000E-03 0.  1.
     -623    1    1    2    0    0 -0.13542481475E-02 -0.48978335906E-03  0.15576227325E-03  0.17130000001E+03  0.17130000000E+03 0.  1.
      622    1    1    2    0    0  0.94626856965E-02  0.16247313462E-02  0.17470844689E+01  0.17472253214E+01  0.20000000000E-01 0.  0.
</event>
<event>
 5   0  0.3603037E+08  0.9118800E+02  0.7818608E-02  0.1180000E+00
       11   -1    0    0    0    0  0.00000000000E+00  0.00000000000E+00  0.39999999673E+01  0.40000000000E+01  0.51109989000E-03 0. -1.
     -623   -1    0    0    0    0  0.00000000000E+00  0.00000000000E+00  0.12525980253E-10  0.17130000000E+03  0.17130000000E+03 0. -1.
       11    1    1    2    0    0 -0.64355858756E-03  0.17261954561E-02  0.14786841790E+00  0.14788077682E+00  0.51109989000E-03 0. -1.
     -623    1    1    2    0    0 -0.29145362736E-03 -0.11744282272E-03  0.64695815602E-04  0.17130000000E+03  0.17130000000E+03 0. -1.
      622    1    1    2    0    0  0.93501221492E-03 -0.16087526333E-02  0.38520668536E+01  0.38521192229E+01  0.20000000000E-01 0. -1.
</event>
<event>
 5   0  0.3603037E+08  0.9118800E+02  0.7818608E-02  0.1180000E+00
       11   -1    0    0    0    0  0.00000000000E+00  0.00000000000E+00  0.39999999673E+01  0.40000000000E+01  0.51109989000E-03 0. -1.
     -623   -1    0    0    0    0  0.00000000000E+00  0.00000000000E+00  0.12525980253E-10  0.17130000000E+03  0.17130000000E+03 0.  1.
       11    1    1    2    0    0 -0.11642467894E-02 -0.14640941729E-02  0.50905331221E-01  0.50942251728E-01  0.51109989000E-03 0. -1.
     -623    1    1    2    0    0 -0.93997291422E-03  0.13005461449E-02  0.88104725075E-04  0.17130000001E+03  0.17130000000E+03 0.  1.
      622    1    1    2    0    0  0.21042197036E-02  0.16354802803E-03  0.39490065314E+01  0.39490577407E+01  0.20000000000E-01 0. -1.
</event>
<event>
 5   0  0.3603037E+08  0.9118800E+02  0.7818608E-02  0.1180000E+00
       11   -1    0    0    0    0  0.00000000000E+00  0.00000000000E+00  0.39999999673E+01  0.40000000000E+01  0.51109989000E-03 0. -1.
     -623   -1    0    0    0    0  0.00000000000E+00  0.00000000000E+00  0.12525980253E-10  0.17130000000E+03  0.17130000000E+03 0. -1.
       11    1    1    2    0    0 -0.44388717465E-02  0.17790934278E-02  0.50461578408E-01  0.50690244363E-01  0.51109989000E-03 0. -1.
     -623    1    1    2    0    0  0.40004755249E-02 -0.41414654093E-02  0.28010330283E-03  0.17130000010E+03  0.17130000000E+03 0. -1.
      622    1    1    2    0    0  0.43839622162E-03  0.23623719815E-02  0.39492582856E+01  0.39493096586E+01  0.20000000000E-01 0. -1.
</event>
<event>
 5   0  0.3603037E+08  0.9118800E+02  0.7818608E-02  0.1180000E+00
       11   -1    0    0    0    0  0.00000000000E+00  0.00000000000E+00  0.39999999673E+01  0.40000000000E+01  0.51109989000E-03 0.  1.
     -623   -1    0    0    0    0  0.00000000000E+00  0.00000000000E+00  0.12525980253E-10  0.17130000000E+03  0.17130000000E+03 0.  1.
       11    1    1    2    0    0  0.38726171749E-03 -0.95760790941E-04  0.16068695773E-01  0.16081770616E-01  0.51109989000E-03 0.  1.
     -623    1    1    2    0    0 -0.83972069538E-04 -0.71065783400E-04  0.63259437666E-04  0.17130000000E+03  0.17130000000E+03 0.  1.
      622    1    1    2    0    0 -0.30328964795E-03  0.16682657434E-03  0.39838680121E+01  0.39839182293E+01  0.20000000000E-01 0.  1.
</event>
<event>
 5   0  0.3603037E+08  0.9118800E+02  0.7818608E-02  0.1180000E+00
       11   -1    0    0    0    0  0.00000000000E+00  0.00000000000E+00  0.39999999673E+01  0.40000000000E+01  0.51109989000E-03 0.  1.
     -623   -1    0    0    0    0  0.00000000000E+00  0.00000000000E+00  0.12525980253E-10  0.17130000000E+03  0.17130000000E+03 0. -1.
       11    1    1    2    0    0  0.15273386516E-02  0.56839831814E-02  0.11069662048E+01  0.11069819692E+01  0.51109989000E-03 0.  1.
     -623    1    1    2    0    0 -0.43500363983E-03  0.97842807322E-03  0.92745898266E-04  0.17130000000E+03  0.17130000000E+03 0. -1.
      622    1    1    2    0    0 -0.10923350117E-02 -0.66624112546E-02  0.28929410167E+01  0.28930180274E+01  0.20000000000E-01 0.  1.
</event>
<event>
 5   0  0.3603037E+08  0.9118800E+02  0.7818608E-02  0.1180000E+00
       11   -1    0    0    0    0  0.00000000000E+00  0.00000000000E+00  0.39999999673E+01  0.40000000000E+01  0.51109989000E-03 0.  1.
     -623   -1    0    0    0    0  0.00000000000E+00  0.00000000000E+00  0.12525980253E-10  0.17130000000E+03  0.17130000000E+03 0.  1.
       11    1    1    2    0    0  0.72659118748E-03  0.49317770240E-03  0.15398865401E+00  0.15399200610E+00  0.51109989000E-03 0.  1.
     -623    1    1    2    0    0  0.64836466020E-04  0.29045149739E-04  0.55438687624E-04  0.17130000000E+03  0.17130000000E+03 0.  1.
      622    1    1    2    0    0 -0.79142765350E-03 -0.52222285213E-03  0.38459558747E+01  0.38460079939E+01  0.20000000000E-01 0.  1.
</event>
<event>
 5   0  0.3603037E+08  0.9118800E+02  0.7818608E-02  0.1180000E+00
       11   -1    0    0    0    0  0.00000000000E+00  0.00000000000E+00  0.39999999673E+01  0.40000000000E+01  0.51109989000E-03 0. -1.
     -623   -1    0    0    0    0  0.00000000000E+00  0.00000000000E+00  0.12525980253E-10  0.17130000000E+03  0.17130000000E+03 0. -1.
       11    1    1    2    0    0 -0.58624523531E-02 -0.62337988632E-03  0.62463012459E-01  0.62742697557E-01  0.51109989000E-03 0. -1.
     -623    1    1    2    0    0  0.19560470415E-02  0.55620568924E-03  0.33240045672E-03  0.17130000001E+03  0.17130000000E+03 0. -1.
      622    1    1    2    0    0  0.39064053115E-02  0.67174197075E-04  0.39372045544E+01  0.39372572900E+01  0.20000000000E-01 0. -1.
</event>
<event>
 5   0  0.3603037E+08  0.9118800E+02  0.7818608E-02  0.1180000E+00
       11   -1    0    0    0    0  0.00000000000E+00  0.00000000000E+00  0.39999999673E+01  0.40000000000E+01  0.51109989000E-03 0.  1.
     -623   -1    0    0    0    0  0.00000000000E+00  0.00000000000E+00  0.12525980253E-10  0.17130000000E+03  0.17130000000E+03 0. -1.
       11    1    1    2    0    0 -0.54458986922E-02 -0.59623400849E-02  0.18930871356E+01  0.18931044270E+01  0.51109989000E-03 0.  1.
     -623    1    1    2    0    0  0.16993157207E-02 -0.15854481492E-02  0.12905478679E-03  0.17130000002E+03  0.17130000000E+03 0. -1.
      622    1    1    2    0    0  0.37465829715E-02  0.75477882341E-02  0.21067837770E+01  0.21068955572E+01  0.20000000000E-01 0.  1.
</event>
<event>
 5   0  0.3603037E+08  0.9118800E+02  0.7818608E-02  0.1180000E+00
       11   -1    0    0    0    0  0.00000000000E+00  0.00000000000E+00  0.39999999673E+01  0.40000000000E+01  0.51109989000E-03 0. -1.
     -623   -1    0    0    0    0  0.00000000000E+00  0.00000000000E+00  0.12525980253E-10  0.17130000000E+03  0.17130000000E+03 0.  1.
       11    1    1    2    0    0  0.83837873034E-03  0.42161882032E-03  0.44163149520E-02  0.45437539547E-02  0.51109989000E-03 0. -1.
     -623    1    1    2    0    0 -0.11545072186E-02 -0.15647805835E-02  0.17765071416E-03  0.17130000001E+03  0.17130000000E+03 0.  1.
      622    1    1    2    0    0  0.31612848826E-03  0.11431617632E-02  0.39954060017E+01  0.39954562349E+01  0.20000000000E-01 0. -1.
</event>
<event>
 5   0  0.3603037E+08  0.9118800E+02  0.7818608E-02  0.1180000E+00
       11   -1    0    0    0    0  0.00000000000E+00  0.00000000000E+00  0.39999999673E+01  0.40000000000E+01  0.51109989000E-03 0.  1.
     -623   -1    0    0    0    0  0.00000000000E+00  0.00000000000E+00  0.12525980253E-10  0.17130000000E+03  0.17130000000E+03 0.  1.
       11    1    1    2    0    0 -0.27981654265E-03 -0.84595550117E-03  0.35213146332E+00  0.35213296156E+00  0.51109989000E-03 0.  1.
     -623    1    1    2    0    0  0.24897805948E-03 -0.37643250983E-03  0.56498122307E-04  0.17130000000E+03  0.17130000000E+03 0.  1.
      622    1    1    2    0    0  0.30838483173E-04  0.12223880110E-02  0.36478120059E+01  0.36478670378E+01  0.20000000000E-01 0.  1.
</event>
<event>
 5   0  0.3603037E+08  0.9118800E+02  0.7818608E-02  0.1180000E+00
       11   -1    0    0    0    0  0.00000000000E+00  0.00000000000E+00  0.39999999673E+01  0.40000000000E+01  0.51109989000E-03 0. -1.
     -623   -1    0    0    0    0  0.00000000000E+00  0.00000000000E+00  0.12525980253E-10  0.17130000000E+03  0.17130000000E+03 0.  1.
       11    1    1    2    0    0  0.43254656877E-01  0.55289556496E-01  0.82664148552E+00  0.82961696415E+00  0.51109989000E-03 0. -1.
     -623    1    1    2    0    0  0.34567786243E-02 -0.78774030209E-02  0.37375115429E-02  0.17130000026E+03  0.17130000000E+03 0.  1.
      622    1    1    2    0    0 -0.46711435501E-01 -0.47412153476E-01  0.31696209703E+01  0.31703827791E+01  0.20000000000E-01 0. -1.
</event>
<event>
 5   0  0.3603037E+08  0.9118800E+02  0.7818608E-02  0.1180000E+00
       11   -1    0    0    0    0  0.00000000000E+00  0.00000000000E+00  0.39999999673E+01  0.40000000000E+01  0.51109989000E-03 0. -1.
     -623   -1    0    0    0    0  0.00000000000E+00  0.00000000000E+00  0.12525980253E-10  0.17130000000E+03  0.17130000000E+03 0. -1.
       11    1    1    2    0    0 -0.78600248030E-02 -0.40832332569E-02  0.12894889181E+00  0.12925374542E+00  0.51109989000E-03 0. -1.
     -623    1    1    2    0    0  0.64998961020E-02 -0.13251159365E-02  0.36063715419E-03  0.17130000013E+03  0.17130000000E+03 0. -1.
      622    1    1    2    0    0  0.13601287011E-02  0.54083491935E-02  0.38706904384E+01  0.38707461258E+01  0.20000000000E-01 0. -1.
</event>
<event>
 5   0  0.3603037E+08  0.9118800E+02  0.7818608E-02  0.1180000E+00
       11   -1    0    0    0    0  0.00000000000E+00  0.00000000000E+00  0.39999999673E+01  0.40000000000E+01  0.51109989000E-03 0. -1.
     -623   -1    0    0    0    0  0.00000000000E+00  0.00000000000E+00  0.12525980253E-10  0.17130000000E+03  0.17130000000E+03 0.  1.
       11    1    1    2    0    0 -0.95621557540E-04 -0.11806188248E-04  0.56376671983E-01  0.56379070999E-01  0.51109989000E-03 0. -1.
     -623    1    1    2    0    0  0.58723837254E-03 -0.17509856270E-02  0.53516111040E-04  0.17130000001E+03  0.17130000000E+03 0.  1.
      622    1    1    2    0    0 -0.49161681500E-03  0.17627918152E-02  0.39435697793E+01  0.39436209190E+01  0.20000000000E-01 0. -1.
</event>
<event>
 5   0  0.3603037E+08  0.9118800E+02  0.7818608E-02  0.1180000E+00
       11   -1    0    0    0    0  0.00000000000E+00  0.00000000000E+00  0.39999999673E+01  0.40000000000E+01  0.51109989000E-03 0. -1.
     -623   -1    0    0    0    0  0.00000000000E+00  0.00000000000E+00  0.12525980253E-10  0.17130000000E+03  0.17130000000E+03 0.  1.
       11    1    1    2    0    0  0.97632273961E-06 -0.35731426343E-03  0.26867631579E-01  0.26874867855E-01  0.51109989000E-03 0. -1.
     -623    1    1    2    0    0  0.23713690860E-03  0.11649620071E-03  0.57556810394E-04  0.17130000000E+03  0.17130000000E+03 0.  1.
      622    1    1    2    0    0 -0.23811323134E-03  0.24081806272E-03  0.39730747790E+01  0.39731251319E+01  0.20000000000E-01 0. -1.
</event>
<event>
 5   0  0.3603037E+08  0.9118800E+02  0.7818608E-02  0.1180000E+00
       11   -1    0    0    0    0  0.00000000000E+00  0.00000000000E+00  0.39999999673E+01  0.40000000000E+01  0.51109989000E-03 0.  1.
     -623   -1    0    0    0    0  0.00000000000E+00  0.00000000000E+00  0.12525980253E-10  0.17130000000E+03  0.17130000000E+03 0. -1.
       11    1    1    2    0    0 -0.15703770087E-02  0.31040026272E-02  0.10076128494E+00  0.10082260996E+00  0.51109989000E-03 0.  1.
     -623    1    1    2    0    0  0.23516680769E-02 -0.35716990594E-03  0.11364795895E-03  0.17130000002E+03  0.17130000000E+03 0. -1.
      622    1    1    2    0    0 -0.78129106821E-03 -0.27468327213E-02  0.38991250345E+01  0.38991773735E+01  0.20000000000E-01 0.  1.
</event>
<event>
 5   0  0.3603037E+08  0.9118800E+02  0.7818608E-02  0.1180000E+00
       11   -1    0    0    0    0  0.00000000000E+00  0.00000000000E+00  0.39999999673E+01  0.40000000000E+01  0.51109989000E-03 0. -1.
     -623   -1    0    0    0    0  0.00000000000E+00  0.00000000000E+00  0.12525980253E-10  0.17130000000E+03  0.17130000000E+03 0. -1.
       11    1    1    2    0    0  0.93746497506E-02 -0.47622025001E-02  0.17985575750E+01  0.17985883838E+01  0.51109989000E-03 0. -1.
     -623    1    1    2    0    0  0.19919242315E-03 -0.20594276606E-03  0.14805457642E-03  0.17130000000E+03  0.17130000000E+03 0. -1.
      622    1    1    2    0    0 -0.95738421738E-02  0.49681452661E-02  0.22012943378E+01  0.22014116158E+01  0.20000000000E-01 0.  0.
</event>
<event>
 5   0  0.3603037E+08  0.9118800E+02  0.7818608E-02  0.1180000E+00
       11   -1    0    0    0    0  0.00000000000E+00  0.00000000000E+00  0.39999999673E+01  0.40000000000E+01  0.51109989000E-03 0.  1.
     -623   -1    0    0    0    0  0.00000000000E+00  0.00000000000E+00  0.12525980253E-10  0.17130000000E+03  0.17130000000E+03 0.  1.
       11    1    1    2    0    0  0.66193907011E-03  0.47989663828E-03  0.15737404543E-01  0.15766914328E-01  0.51109989000E-03 0.  1.
     -623    1    1    2    0    0  0.11401368197E-02 -0.17833726429E-02  0.80309194522E-04  0.17130000001E+03  0.17130000000E+03 0.  1.
      622    1    1    2    0    0 -0.18020758898E-02  0.13034760046E-02  0.39841822536E+01  0.39842330726E+01  0.20000000000E-01 0.  1.
</event>
<event>
 5   0  0.3603037E+08  0.9118800E+02  0.7818608E-02  0.1180000E+00
       11   -1    0    0    0    0  0.00000000000E+00  0.00000000000E+00  0.39999999673E+01  0.40000000000E+01  0.51109989000E-03 0. -1.
     -623   -1    0    0    0    0  0.00000000000E+00  0.00000000000E+00  0.12525980253E-10  0.17130000000E+03  0.17130000000E+03 0. -1.
       11    1    1    2    0    0  0.42901371621E-03  0.21060903156E-03  0.35590342381E+00  0.35590411168E+00  0.51109989000E-03 0. -1.
     -623    1    1    2    0    0  0.15658964307E-02 -0.24415655495E-02  0.56792476741E-04  0.17130000002E+03  0.17130000000E+03 0. -1.
      622    1    1    2    0    0 -0.19949101469E-02  0.22309565180E-02  0.36440397511E+01  0.36440958638E+01  0.20000000000E-01 0. -1.
</event>
<event>
 5   0  0.3603037E+08  0.9118800E+02  0.7818608E-02  0.1180000E+00
       11   -1    0    0    0    0  0.00000000000E+00  0.00000000000E+00  0.39999999673E+01  0.40000000000E+01  0.51109989000E-03 0. -1.
     -623   -1    0    0    0    0  0.00000000000E+00  0.00000000000E+00  0.12525980253E-10  0.17130000000E+03  0.17130000000E+03 0.  1.
       11    1    1    2    0    0 -0.19265870167E-02 -0.34783091156E-02  0.34737526681E+00  0.34739839893E+00  0.51109989000E-03 0. -1.
     -623    1    1    2    0    0 -0.29942333174E-02  0.33614521654E-02  0.81231169902E-04  0.17130000006E+03  0.17130000000E+03 0.  1.
      622    1    1    2    0    0  0.49208203341E-02  0.11685695021E-03  0.36525434694E+01  0.36526015419E+01  0.20000000000E-01 0. -1.
</event>
<event>
 5   0  0.3603037E+08  0.9118800E+02  0.7818608E-02  0.1180000E+00
       11   -1    0    0    0    0  0.00000000000E+00  0.00000000000E+00  0.39999999673E+01  0.40000000000E+01  0.51109989000E-03 0. -1.
     -623   -1    0    0    0    0  0.00000000000E+00  0.00000000000E+00  0.12525980253E-10  0.17130000000E+03  0.17130000000E+03 0.  1.
       11    1    1    2    0    0 -0.62039110336E-03 -0.71666401344E-02  0.10526543548E+01  0.10526790572E+01  0.51109989000E-03 0. -1.
     -623    1    1    2    0    0 -0.52760638017E-02 -0.18435133616E-02  0.11229111426E-03  0.17130000009E+03  0.17130000000E+03 0.  1.
      622    1    1    2    0    0  0.58964549051E-02  0.90101534960E-02  0.29472333214E+01  0.29473208516E+01  0.20000000000E-01 0. -1.
</event>
<event>
 5   0  0.3603037E+08  0.9118800E+02  0.7818608E-02  0.1180000E+00
       11   -1    0    0    0    0  0.00000000000E+00  0.00000000000E+00  0.39999999673E+01  0.40000000000E+01  0.51109989000E-03 0.  1.
     -623   -1    0    0    0    0  0.00000000000E+00  0.00000000000E+00  0.12525980253E-10  0.17130000000E+03  0.17130000000E+03 0. -1.
       11    1    1    2    0    0 -0.11418085891E-01  0.58679708126E-02  0.55575665237E+00  0.55590513907E+00  0.51109989000E-03 0.  1.
     -623    1    1    2    0    0  0.12561270188E-02  0.22079151849E-02  0.23100448029E-03  0.17130000002E+03  0.17130000000E+03 0. -1.
      622    1    1    2    0    0  0.10161958872E-01 -0.80758859974E-02  0.34440123105E+01  0.34440948419E+01  0.20000000000E-01 0.  1.
</event>
<event>
 5   0  0.3603037E+08  0.9118800E+02  0.7818608E-02  0.1180000E+00
       11   -1    0    0    0    0  0.00000000000E+00  0.00000000000E+00  0.39999999673E+01  0.40000000000E+01  0.51109989000E-03 0.  1.
     -623   -1    0    0    0    0  0.00000000000E+00  0.00000000000E+00  0.12525980253E-10  0.17130000000E+03  0.17130000000E+03 0.  1.
       11    1    1    2    0    0  0.27412154949E-02  0.45108518046E-03  0.38223884181E-01  0.38328113488E-01  0.51109989000E-03 0.  1.
     -623    1    1    2    0    0 -0.57923119879E-02 -0.38277560110E-03  0.15595466620E-03  0.17130000010E+03  0.17130000000E+03 0.  1.
      622    1    1    2    0    0  0.30510964930E-02 -0.68309579353E-04  0.39616201285E+01  0.39616717881E+01  0.20000000000E-01 0.  1.
</event>
<event>
 5   0  0.3603037E+08  0.9118800E+02  0.7818608E-02  0.1180000E+00
       11   -1    0    0    0    0  0.00000000000E+00  0.00000000000E+00  0.39999999673E+01  0.40000000000E+01  0.51109989000E-03 0.  1.
     -623   -1    0    0    0    0  0.00000000000E+00  0.00000000000E+00  0.12525980253E-10  0.17130000000E+03  0.17130000000E+03 0.  1.
       11    1    1    2    0    0  0.13085003369E-02  0.19334239620E-02  0.72649516495E-01  0.72688814605E-01  0.51109989000E-03 0.  1.
     -623    1    1    2    0    0 -0.13697167163E-03  0.14628796498E-03  0.90916770451E-04  0.17130000000E+03  0.17130000000E+03 0.  1.
      622    1    1    2    0    0 -0.11715286653E-02 -0.20797119270E-02  0.39272595341E+01  0.39273111853E+01  0.20000000000E-01 0.  1.
</event>
<event>
 5   0  0.3603037E+08  0.9118800E+02  0.7818608E-02  0.1180000E+00
       11   -1    0    0    0    0  0.00000000000E+00  0.00000000000E+00  0.39999999673E+01  0.40000000000E+01  0.51109989000E-03 0. -1.
     -623   -1    0    0    0    0  0.00000000000E+00  0.00000000000E+00  0.12525980253E-10  0.17130000000E+03  0.17130000000E+03 0.  1.
       11    1    1    2    0    0 -0.91958308401E-03  0.68020810565E-03  0.37517505647E-01  0.37538417215E-01  0.51109989000E-03 0. -1.
     -623    1    1    2    0    0  0.81755593746E-05 -0.20001861126E-03  0.71486971202E-04  0.17130000000E+03  0.17130000000E+03 0.  1.
      622    1    1    2    0    0  0.91140752464E-03 -0.48018949439E-03  0.39624109747E+01  0.39624615827E+01  0.20000000000E-01 0. -1.
</event>
<event>
 5   0  0.3603037E+08  0.9118800E+02  0.7818608E-02  0.1180000E+00
       11   -1    0    0    0    0  0.00000000000E+00  0.00000000000E+00  0.39999999673E+01  0.40000000000E+01  0.51109989000E-03 0. -1.
     -623   -1    0    0    0    0  0.00000000000E+00  0.00000000000E+00  0.12525980253E-10  0.17130000000E+03  0.17130000000E+03 0.  1.
       11    1    1    2    0    0  0.39221928427E-02 -0.16667618420E-02  0.41741954060E+00  0.41744160764E+00  0.51109989000E-03 0. -1.
     -623    1    1    2    0    0 -0.42443123590E-02  0.16144013655E-02  0.77935932822E-04  0.17130000006E+03  0.17130000000E+03 0.  1.
      622    1    1    2    0    0  0.32211951632E-03  0.52360476522E-04  0.35825024908E+01  0.35825583322E+01  0.20000000000E-01 0. -1.
</event>
<event>
 5   0  0.3603037E+08  0.9118800E+02  0.7818608E-02  0.1180000E+00
       11   -1    0    0    0    0  0.00000000000E+00  0.00000000000E+00  0.39999999673E+01  0.40000000000E+01  0.51109989000E-03 0.  1.
     -623   -1    0    0    0    0  0.00000000000E+00  0.00000000000E+00  0.12525980253E-10  0.17130000000E+03  0.17130000000E+03 0.  1.
       11    1    1    2    0    0 -0.21981217202E-02 -0.25702551418E-01  0.22900451600E+01  0.22901905050E+01  0.51109989000E-03 0.  1.
     -623    1    1    2    0    0  0.39821723985E-02  0.14792141247E-01  0.29871728934E-03  0.17130000069E+03  0.17130000000E+03 0.  1.
      622    1    1    2    0    0 -0.17840506783E-02  0.10910410171E-01  0.17096560901E+01  0.17098088098E+01  0.20000000000E-01 0.  0.
</event>
<event>
 5   0  0.3603037E+08  0.9118800E+02  0.7818608E-02  0.1180000E+00
       11   -1    0    0    0    0  0.00000000000E+00  0.00000000000E+00  0.39999999673E+01  0.40000000000E+01  0.51109989000E-03 0.  1.
     -623   -1    0    0    0    0  0.00000000000E+00  0.00000000000E+00  0.12525980253E-10  0.17130000000E+03  0.17130000000E+03 0.  1.
       11    1    1    2    0    0  0.79487715290E-02 -0.16605078082E-03  0.12617386103E+01  0.12617637626E+01  0.51109989000E-03 0.  1.
     -623    1    1    2    0    0 -0.39523171638E-02 -0.19451756497E-02  0.10194738181E-03  0.17130000006E+03  0.17130000000E+03 0.  1.
      622    1    1    2    0    0 -0.39964543652E-02  0.21112264306E-02  0.27381594097E+01  0.27382361808E+01  0.20000000000E-01 0.  1.
</event>
<event>
 5   0  0.3603037E+08  0.9118800E+02  0.7818608E-02  0.1180000E+00
       11   -1    0    0    0    0  0.00000000000E+00  0.00000000000E+00  0.39999999673E+01  0.40000000000E+01  0.51109989000E-03 0.  1.
     -623   -1    0    0    0    0  0.00000000000E+00  0.00000000000E+00  0.12525980253E-10  0.17130000000E+03  0.17130000000E+03 0. -1.
       11    1    1    2    0    0  0.34622199623E-02 -0.15353795118E-02  0.88998213051E+00  0.88999033602E+00  0.51109989000E-03 0.  1.
     -623    1    1    2    0    0  0.17612822510E-03 -0.14472322306E-03  0.75064274711E-04  0.17130000000E+03  0.17130000000E+03 0. -1.
      622    1    1    2    0    0 -0.36383481874E-02  0.16801027349E-02  0.31099427726E+01  0.31100096638E+01  0.20000000000E-01 0.  1.
</event>
<event>
 5   0  0.3603037E+08  0.9118800E+02  0.7818608E-02  0.1180000E+00
       11   -1    0    0    0    0  0.00000000000E+00  0.00000000000E+00  0.39999999673E+01  0.40000000000E+01  0.51109989000E-03 0. -1.
     -623   -1    0    0    0    0  0.00000000000E+00  0.00000000000E+00  0.12525980253E-10  0.17130000000E+03  0.17130000000E+03 0. -1.
       11    1    1    2    0    0  0.23257827552E-02 -0.60548138132E-03  0.33044086230E-02  0.41177918754E-02  0.51109989000E-03 0. -1.
     -623    1    1    2    0    0 -0.97802281088E-03  0.13762062950E-02  0.86371457265E-03  0.17130000001E+03  0.17130000000E+03 0. -1.
      622    1    1    2    0    0 -0.13477599443E-02 -0.77072491373E-03  0.39958318442E+01  0.39958821976E+01  0.20000000000E-01 0. -1.
</event>
<event>
 5   0  0.3603037E+08  0.9118800E+02  0.7818608E-02  0.1180000E+00
       11   -1    0    0    0    0  0.00000000000E+00  0.00000000000E+00  0.39999999673E+01  0.40000000000E+01  0.51109989000E-03 0. -1.
     -623   -1    0    0    0    0  0.00000000000E+00  0.00000000000E+00  0.12525980253E-10  0.17130000000E+03  0.17130000000E+03 0.  1.
       11    1    1    2    0    0 -0.77198532192E-05 -0.73779931953E-03  0.14943154414E-02  0.17431598805E-02  0.51109989000E-03 0. -1.
     -623    1    1    2    0    0  0.13120278680E-02  0.94751450572E-03  0.29906006498E-03  0.17130000001E+03  0.17130000000E+03 0.  1.
      622    1    1    2    0    0 -0.13043080147E-02 -0.20971518619E-03  0.39982065919E+01  0.39982568322E+01  0.20000000000E-01 0. -1.
</event>
<event>
 5   0  0.3603037E+08  0.9118800E+02  0.7818608E-02  0.1180000E+00
       11   -1    0    0    0    0  0.00000000000E+00  0.00000000000E+00  0.39999999673E+01  0.40000000000E+01  0.51109989000E-03 0.  1.
     -623   -1    0    0    0    0  0.00000000000E+00  0.00000000000E+00  0.12525980253E-10  0.17130000000E+03  0.17130000000E+03 0. -1.
       11    1    1    2    0    0 -0.12283719540E-01 -0.45792200570E-02  0.11042935565E+01  0.11043714860E+01  0.51109989000E-03 0.  1.
     -623    1    1    2    0    0 -0.91259344974E-02  0.77044636055E-02  0.22822265394E-03  0.17130000042E+03  0.17130000000E+03 0. -1.
      622    1    1    2    0    0  0.21409654037E-01 -0.31252435486E-02  0.28954781882E+01  0.28956280975E+01  0.20000000000E-01 0.  1.
</event>
<event>
 5   0  0.3603037E+08  0.9118800E+02  0.7818608E-02  0.1180000E+00
       11   -1    0    0    0    0  0.00000000000E+00  0.00000000000E+00  0.39999999673E+01  0.40000000000E+01  0.51109989000E-03 0.  1.
     -623   -1    0    0    0    0  0.00000000000E+00  0.00000000000E+00  0.12525980253E-10  0.17130000000E+03  0.17130000000E+03 0.  1.
       11    1    1    2    0    0  0.51073921479E-02  0.22377693056E-02  0.82099500098E-01  0.82290231525E-01  0.51109989000E-03 0.  1.
     -623    1    1    2    0    0 -0.50357143986E-02 -0.67526407302E-02  0.24455886109E-03  0.17130000021E+03  0.17130000000E+03 0.  1.
      622    1    1    2    0    0 -0.71677749345E-04  0.45148714245E-02  0.39176559084E+01  0.39177095612E+01  0.20000000000E-01 0.  1.
</event>
<event>
 5   0  0.3603037E+08  0.9118800E+02  0.7818608E-02  0.1180000E+00
       11   -1    0    0    0    0  0.00000000000E+00  0.00000000000E+00  0.39999999673E+01  0.40000000000E+01  0.51109989000E-03 0. -1.
     -623   -1    0    0    0    0  0.00000000000E+00  0.00000000000E+00  0.12525980253E-10  0.17130000000E+03  0.17130000000E+03 0.  1.
       11    1    1    2    0    0 -0.36892949832E-02  0.12056300891E-02  0.77653453154E-01  0.77752070392E-01  0.51109989000E-03 0. -1.
     -623    1    1    2    0    0 -0.36978250343E-04  0.72018201475E-03  0.15182054013E-03  0.17130000000E+03  0.17130000000E+03 0.  1.
      622    1    1    2    0    0  0.37262732335E-02 -0.19258121038E-02  0.39221946937E+01  0.39222479280E+01  0.20000000000E-01 0. -1.
</event>
<event>
 5   0  0.3603037E+08  0.9118800E+02  0.7818608E-02  0.1180000E+00
       11   -1    0    0    0    0  0.00000000000E+00  0.00000000000E+00  0.39999999673E+01  0.40000000000E+01  0.51109989000E-03 0.  1.
     -623   -1    0    0    0    0  0.00000000000E+00  0.00000000000E+00  0.12525980253E-10  0.17130000000E+03  0.17130000000E+03 0.  1.
       11    1    1    2    0    0 -0.47288798557E-04  0.10102433448E-02  0.15896665199E-01  0.15937001391E-01  0.51109989000E-03 0.  1.
     -623    1    1    2    0    0 -0.19069467169E-03 -0.26923451142E-03  0.90580240244E-04  0.17130000000E+03  0.17130000000E+03 0.  1.
      622    1    1    2    0    0  0.23798347024E-03 -0.74100883342E-03  0.39840127219E+01  0.39840629983E+01  0.20000000000E-01 0.  1.
</event>
<event>
 5   0  0.3603037E+08  0.9118800E+02  0.7818608E-02  0.1180000E+00
       11   -1    0    0    0    0  0.00000000000E+00  0.00000000000E+00  0.39999999673E+01  0.40000000000E+01  0.51109989000E-03 0.  1.
     -623   -1    0    0    0    0  0.00000000000E+00  0.00000000000E+00  0.12525980253E-10  0.17130000000E+03  0.17130000000E+03 0.  1.
       11    1    1    2    0    0 -0.29417237411E-02 -0.31543814891E-02  0.17124768653E+01  0.17124823735E+01  0.51109989000E-03 0.  1.
     -623    1    1    2    0    0 -0.15174337385E-02 -0.62793561085E-03  0.10038953780E-03  0.17130000001E+03  0.17130000000E+03 0.  1.
      622    1    1    2    0    0  0.44591574796E-02  0.37823171000E-02  0.22874227125E+01  0.22875176186E+01  0.20000000000E-01 0.  1.
</event>
<event>
 5   0  0.3603037E+08  0.9118800E+02  0.7818608E-02  0.1180000E+00
       11   -1    0    0    0    0  0.00000000000E+00  0.00000000000E+00  0.39999999673E+01  0.40000000000E+01  0.51109989000E-03 0.  1.
     -623   -1    0    0    0    0  0.00000000000E+00  0.00000000000E+00  0.12525980253E-10  0.17130000000E+03  0.17130000000E+03 0.  1.
       11    1    1    2    0    0 -0.18353296147E-01 -0.26834494765E-02  0.34225958788E+01  0.34226461774E+01  0.51109989000E-03 0.  1.
     -623    1    1    2    0    0  0.18792267103E-02 -0.78136142801E-02  0.72772023743E-03  0.17130000019E+03  0.17130000000E+03 0.  1.
      622    1    1    2    0    0  0.16474069437E-01  0.10497063757E-01  0.57667636829E+00  0.57735363258E+00  0.20000000000E-01 0.  1.
</event>
<event>
 5   0  0.3603037E+08  0.9118800E+02  0.7818608E-02  0.1180000E+00
       11   -1    0    0    0    0  0.00000000000E+00  0.00000000000E+00  0.39999999673E+01  0.40000000000E+01  0.51109989000E-03 0. -1.
     -623   -1    0    0    0    0  0.00000000000E+00  0.00000000000E+00  0.12525980253E-10  0.17130000000E+03  0.17130000000E+03 0. -1.
       11    1    1    2    0    0  0.62303380657E-02  0.65906562773E-02  0.50199866418E+00  0.50208084401E+00  0.51109989000E-03 0. -1.
     -623    1    1    2    0    0 -0.36525266310E-02 -0.13938753832E-01  0.14859873907E-03  0.17130000061E+03  0.17130000000E+03 0. -1.
      622    1    1    2    0    0 -0.25778114346E-02  0.73480975551E-02  0.34978527044E+01  0.34979185499E+01  0.20000000000E-01 0. -1.
</event>
<event>
 5   0  0.3603037E+08  0.9118800E+02  0.7818608E-02  0.1180000E+00
       11   -1    0    0    0    0  0.00000000000E+00  0.00000000000E+00  0.39999999673E+01  0.40000000000E+01  0.51109989000E-03 0. -1.
     -623   -1    0    0    0    0  0.00000000000E+00  0.00000000000E+00  0.12525980253E-10  0.17130000000E+03  0.17130000000E+03 0. -1.
       11    1    1    2    0    0  0.60937271978E-03 -0.35534858937E-03  0.15437716642E+00  0.15437962412E+00  0.51109989000E-03 0. -1.
     -623    1    1    2    0    0 -0.65313017470E-04 -0.20190548438E-04  0.54489463777E-04  0.17130000000E+03  0.17130000000E+03 0. -1.
      622    1    1    2    0    0 -0.54405970231E-03  0.37553913781E-03  0.38455683115E+01  0.38456203759E+01  0.20000000000E-01 0. -1.
</event>
<event>
 5   0  0.3603037E+08  0.9118800E+02  0.7818608E-02  0.1180000E+00
       11   -1    0    0    0    0  0.00000000000E+00  0.00000000000E+00  0.39999999673E+01  0.40000000000E+01  0.51109989000E-03 0. -1.
     -623   -1    0    0    0    0  0.00000000000E+00  0.00000000000E+00  0.12525980253E-10  0.17130000000E+03  0.17130000000E+03 0. -1.
       11    1    1    2    0    0 -0.14951795715E-02 -0.68829407017E-03  0.77106767879E-01  0.77126027926E-01  0.51109989000E-03 0. -1.
     -623    1    1    2    0    0  0.27467830865E-02  0.13352275955E-02  0.70491020213E-04  0.17130000003E+03  0.17130000000E+03 0. -1.
      622    1    1    2    0    0 -0.12516035150E-02 -0.64693352536E-03  0.39228227085E+01  0.39228739448E+01  0.20000000000E-01 0. -1.
</event>
<event>
 5   0  0.3603037E+08  0.9118800E+02  0.7818608E-02  0.1180000E+00
       11   -1    0    0    0    0  0.00000000000E+00  0.00000000000E+00  0.39999999673E+01  0.40000000000E+01  0.51109989000E-03 0.  1.
     -623   -1    0    0    0    0  0.00000000000E+00  0.00000000000E+00  0.12525980253E-10  0.17130000000E+03  0.17130000000E+03 0.  1.
       11    1    1    2    0    0  0.90391233723E-03 -0.20169851964E-02  0.11971156767E+00  0.11973306119E+00  0.51109989000E-03 0.  1.
     -623    1    1    2    0    0 -0.11330492485E-03 -0.10459309662E-03  0.73664702795E-04  0.17130000000E+03  0.17130000000E+03 0.  1.
      622    1    1    2    0    0 -0.79060741238E-03  0.21215782930E-02  0.38802147350E+01  0.38802669387E+01  0.20000000000E-01 0.  1.
</event>
<event>
 5   0  0.3603037E+08  0.9118800E+02  0.7818608E-02  0.1180000E+00
       11   -1    0    0    0    0  0.00000000000E+00  0.00000000000E+00  0.39999999673E+01  0.40000000000E+01  0.51109989000E-03 0. -1.
     -623   -1    0    0    0    0  0.00000000000E+00  0.00000000000E+00  0.12525980253E-10  0.17130000000E+03  0.17130000000E+03 0.  1.
       11    1    1    2    0    0  0.74647099716E-02  0.56423280272E-03  0.16281618032E+01  0.16281790930E+01  0.51109989000E-03 0. -1.
     -623    1    1    2    0    0 -0.34461081321E-02  0.85963354691E-02  0.12292790055E-03  0.17130000025E+03  0.17130000000E+03 0.  1.
      622    1    1    2    0    0 -0.40186018394E-02 -0.91605682718E-02  0.23717152362E+01  0.23718206566E+01  0.20000000000E-01 0.  1.
</event>
<event>
 5   0  0.3603037E+08  0.9118800E+02  0.7818608E-02  0.1180000E+00
       11   -1    0    0    0    0  0.00000000000E+00  0.00000000000E+00  0.39999999673E+01  0.40000000000E+01  0.51109989000E-03 0.  1.
     -623   -1    0    0    0    0  0.00000000000E+00  0.00000000000E+00  0.12525980253E-10  0.17130000000E+03  0.17130000000E+03 0.  1.
       11    1    1    2    0    0 -0.40474630790E-03 -0.39616561020E-02  0.59909145814E+00  0.59910491149E+00  0.51109989000E-03 0.  1.
     -623    1    1    2    0    0  0.25127904716E-04 -0.33071682095E-03  0.74959610351E-04  0.17130000000E+03  0.17130000000E+03 0.  1.
      622    1    1    2    0    0  0.37961840318E-03  0.42923729229E-02  0.34008335496E+01  0.34008950882E+01  0.20000000000E-01 0.  0.
</event>
<event>
 5   0  0.3603037E+08  0.9118800E+02  0.7818608E-02  0.1180000E+00
       11   -1    0    0    0    0  0.00000000000E+00  0.00000000000E+00  0.39999999673E+01  0.40000000000E+01  0.51109989000E-03 0. -1.
     -623   -1    0    0    0    0  0.00000000000E+00  0.00000000000E+00  0.12525980253E-10  0.17130000000E+03  0.17130000000E+03 0. -1.
       11    1    1    2    0    0  0.12884923995E-02  0.84411383662E-02  0.30276452671E+00  0.30288534610E+00  0.51109989000E-03 0. -1.
     -623    1    1    2    0    0  0.53561967313E-03  0.21693268216E-02  0.19057398453E-03  0.17130000001E+03  0.17130000000E+03 0. -1.
      622    1    1    2    0    0 -0.18241120726E-02 -0.10610465188E-01  0.36970448667E+01  0.36971146392E+01  0.20000000000E-01 0. -1.
</event>
<event>
 5   0  0.3603037E+08  0.9118800E+02  0.7818608E-02  0.1180000E+00
       11   -1    0    0    0    0  0.00000000000E+00  0.00000000000E+00  0.39999999673E+01  0.40000000000E+01  0.51109989000E-03 0. -1.
     -623   -1    0    0    0    0  0.00000000000E+00  0.00000000000E+00  0.12525980253E-10  0.17130000000E+03  0.17130000000E+03 0. -1.
       11    1    1    2    0    0  0.57406094979E-03 -0.40032167776E-02  0.16919623910E+01  0.16919673014E+01  0.51109989000E-03 0. -1.
     -623    1    1    2    0    0  0.10401881842E-03 -0.67420471692E-04  0.95222765972E-04  0.17130000000E+03  0.17130000000E+03 0. -1.
      622    1    1    2    0    0 -0.67807976821E-03  0.40706372493E-02  0.23079423536E+01  0.23080326985E+01  0.20000000000E-01 0. -1.
</event>
<event>
 5   0  0.3603037E+08  0.9118800E+02  0.7818608E-02  0.1180000E+00
       11   -1    0    0    0    0  0.00000000000E+00  0.00000000000E+00  0.39999999673E+01  0.40000000000E+01  0.51109989000E-03 0. -1.
     -623   -1    0    0    0    0  0.00000000000E+00  0.00000000000E+00  0.12525980253E-10  0.17130000000E+03  0.17130000000E+03 0.  1.
       11    1    1    2    0    0  0.12728085118E-02  0.41308821489E-02  0.85511837594E+00  0.85512945354E+00  0.51109989000E-03 0. -1.
     -623    1    1    2    0    0 -0.53753093062E-03  0.15429880929E-03  0.77647658681E-04  0.17130000000E+03  0.17130000000E+03 0.  1.
      622    1    1    2    0    0 -0.73527758116E-03 -0.42851809582E-02  0.31448039438E+01  0.31448705455E+01  0.20000000000E-01 0. -1.
</event>
<event>
 5   0  0.3603037E+08  0.9118800E+02  0.7818608E-02  0.1180000E+00
       11   -1    0    0    0    0  0.00000000000E+00  0.00000000000E+00  0.39999999673E+01  0.40000000000E+01  0.51109989000E-03 0. -1.
     -623   -1    0    0    0    0  0.00000000000E+00  0.00000000000E+00  0.12525980253E-10  0.17130000000E+03  0.17130000000E+03 0. -1.
       11    1    1    2    0    0 -0.53386106931E-04 -0.34627802286E-03  0.45458802519E-02  0.45879196536E-02  0.51109989000E-03 0. -1.
     -623    1    1    2    0    0 -0.27113361716E-03  0.23874882134E-02  0.92615968874E-04  0.17130000002E+03  0.17130000000E+03 0. -1.
      622    1    1    2    0    0  0.32451972409E-03 -0.20412101906E-02  0.39953614711E+01  0.39954120635E+01  0.20000000000E-01 0. -1.
</event>
<event>
 5   0  0.3603037E+08  0.9118800E+02  0.7818608E-02  0.1180000E+00
       11   -1    0    0    0    0  0.00000000000E+00  0.00000000000E+00  0.39999999673E+01  0.40000000000E+01  0.51109989000E-03 0.  1.
     -623   -1    0    0    0    0  0.00000000000E+00  0.00000000000E+00  0.12525980253E-10  0.17130000000E+03  0.17130000000E+03 0.  1.
       11    1    1    2    0    0 -0.16506643149E-02 -0.66900075068E-03  0.15640542161E+00  0.15641639742E+00  0.51109989000E-03 0.  1.
     -623    1    1    2    0    0  0.83705195722E-04 -0.26252634304E-04  0.63360633670E-04  0.17130000000E+03  0.17130000000E+03 0.  1.
      622    1    1    2    0    0  0.15669591192E-02  0.69525338498E-03  0.38435311851E+01  0.38435836025E+01  0.20000000000E-01 0.  1.
</event>
<event>
 5   0  0.3603037E+08  0.9118800E+02  0.7818608E-02  0.1180000E+00
       11   -1    0    0    0    0  0.00000000000E+00  0.00000000000E+00  0.39999999673E+01  0.40000000000E+01  0.51109989000E-03 0. -1.
     -623   -1    0    0    0    0  0.00000000000E+00  0.00000000000E+00  0.12525980253E-10  0.17130000000E+03  0.17130000000E+03 0.  1.
       11    1    1    2    0    0  0.80350726059E-02 -0.89559401098E-02  0.66913640707E+00  0.66924477117E+00  0.51109989000E-03 0. -1.
     -623    1    1    2    0    0 -0.12204394844E-02 -0.23916880783E-03  0.18804707365E-03  0.17130000000E+03  0.17130000000E+03 0.  1.
      622    1    1    2    0    0 -0.68146331215E-02  0.91951089177E-02  0.33306755132E+01  0.33307552242E+01  0.20000000000E-01 0. -1.
</event>
<event>
 5   0  0.3603037E+08  0.9118800E+02  0.7818608E-02  0.1180000E+00
       11   -1    0    0    0    0  0.00000000000E+00  0.00000000000E+00  0.39999999673E+01  0.40000000000E+01  0.51109989000E-03 0. -1.
     -623   -1    0    0    0    0  0.00000000000E+00  0.00000000000E+00  0.12525980253E-10  0.17130000000E+03  0.17130000000E+03 0.  1.
       11    1    1    2    0    0 -0.21905620083E-03 -0.69285525483E-04  0.10857507775E+00  0.10857652378E+00  0.51109989000E-03 0. -1.
     -623    1    1    2    0    0  0.61652013297E-04 -0.13808949394E-04  0.52812889917E-04  0.17130000000E+03  0.17130000000E+03 0.  1.
      622    1    1    2    0    0  0.15740418753E-03  0.83094474877E-04  0.38913720767E+01  0.38914234762E+01  0.20000000000E-01 0. -1.
</event>
<event>
 5   0  0.3603037E+08  0.9118800E+02  0.7818608E-02  0.1180000E+00
       11   -1    0    0    0    0  0.00000000000E+00  0.00000000000E+00  0.39999999673E+01  0.40000000000E+01  0.51109989000E-03 0. -1.
     -623   -1    0    0    0    0  0.00000000000E+00  0.00000000000E+00  0.12525980253E-10  0.17130000000E+03  0.17130000000E+03 0.  1.
       11    1    1    2    0    0 -0.17466541526E-02  0.95930609688E-03  0.21099672186E+00  0.21100675090E+00  0.51109989000E-03 0. -1.
     -623    1    1    2    0    0 -0.33324753759E-03 -0.48206435203E-02  0.65387837931E-04  0.17130000007E+03  0.17130000000E+03 0.  1.
      622    1    1    2    0    0  0.20799016902E-02  0.38613374234E-02  0.37889378577E+01  0.37889931809E+01  0.20000000000E-01 0. -1.
</event>
<event>
 5   0  0.3603037E+08  0.9118800E+02  0.7818608E-02  0.1180000E+00
       11   -1    0    0    0    0  0.00000000000E+00  0.00000000000E+00  0.39999999673E+01  0.40000000000E+01  0.51109989000E-03 0. -1.
     -623   -1    0    0    0    0  0.00000000000E+00  0.00000000000E+00  0.12525980253E-10  0.17130000000E+03  0.17130000000E+03 0.  1.
       11    1    1    2    0    0 -0.91982686527E-03 -0.17011950007E-02  0.12374799924E+01  0.12374816092E+01  0.51109989000E-03 0. -1.
     -623    1    1    2    0    0  0.37656876434E-02 -0.23841617767E-02  0.78527556848E-04  0.17130000006E+03  0.17130000000E+03 0.  1.
      622    1    1    2    0    0 -0.28458607782E-02  0.40853567774E-02  0.27624414474E+01  0.27625183328E+01  0.20000000000E-01 0. -1.
</event>
<event>
 5   0  0.3603037E+08  0.9118800E+02  0.7818608E-02  0.1180000E+00
       11   -1    0    0    0    0  0.00000000000E+00  0.00000000000E+00  0.39999999673E+01  0.40000000000E+01  0.51109989000E-03 0.  1.
     -623   -1    0    0    0    0  0.00000000000E+00  0.00000000000E+00  0.12525980253E-10  0.17130000000E+03  0.17130000000E+03 0. -1.
       11    1    1    2    0    0 -0.82947887732E-02  0.38389183616E-02  0.46965226924E+00  0.46974147788E+00  0.51109989000E-03 0.  1.
     -623    1    1    2    0    0  0.19888851146E-02 -0.38068474037E-02  0.15151562469E-03  0.17130000005E+03  0.17130000000E+03 0. -1.
      622    1    1    2    0    0  0.63059036587E-02 -0.32070957917E-04  0.35301961825E+01  0.35302584682E+01  0.20000000000E-01 0.  1.
</event>
<event>
 5   0  0.3603037E+08  0.9118800E+02  0.7818608E-02  0.1180000E+00
       11   -1    0    0    0    0  0.00000000000E+00  0.00000000000E+00  0.39999999673E+01  0.40000000000E+01  0.51109989000E-03 0.  1.
     -623   -1    0    0    0    0  0.00000000000E+00  0.00000000000E+00  0.12525980253E-10  0.17130000000E+03  0.17130000000E+03 0. -1.
       11    1    1    2    0    0  0.52413423512E-03 -0.73740953233E-03  0.13938501485E-01  0.13977179020E-01  0.51109989000E-03 0.  1.
     -623    1    1    2    0    0 -0.22547069954E-03 -0.44600547547E-04  0.88908616890E-04  0.17130000000E+03  0.17130000000E+03 0. -1.
      622    1    1    2    0    0 -0.29866353558E-03  0.78201007988E-03  0.39859725573E+01  0.39860228208E+01  0.20000000000E-01 0.  1.
</event>
<event>
 5   0  0.3603037E+08  0.9118800E+02  0.7818608E-02  0.1180000E+00
       11   -1    0    0    0    0  0.00000000000E+00  0.00000000000E+00  0.39999999673E+01  0.40000000000E+01  0.51109989000E-03 0. -1.
     -623   -1    0    0    0    0  0.00000000000E+00  0.00000000000E+00  0.12525980253E-10  0.17130000000E+03  0.17130000000E+03 0. -1.
       11    1    1    2    0    0 -0.73626821602E-03 -0.28645322198E-02  0.44769288695E+00  0.44770294827E+00  0.51109989000E-03 0. -1.
     -623    1    1    2    0    0  0.67076355673E-03  0.64134811724E-03  0.67029543691E-04  0.17130000000E+03  0.17130000000E+03 0. -1.
      622    1    1    2    0    0  0.65504659291E-04  0.22231841026E-02  0.35522400509E+01  0.35522970492E+01  0.20000000000E-01 0. -1.
</event>
<event>
 5   0  0.3603037E+08  0.9118800E+02  0.7818608E-02  0.1180000E+00
       11   -1    0    0    0    0  0.00000000000E+00  0.00000000000E+00  0.39999999673E+01  0.40000000000E+01  0.51109989000E-03 0. -1.
     -623   -1    0    0    0    0  0.00000000000E+00  0.00000000000E+00  0.12525980253E-10  0.17130000000E+03  0.17130000000E+03 0.  1.
       11    1    1    2    0    0 -0.18455440284E-02  0.59140440216E-02  0.11601229321E+01  0.11601395868E+01  0.51109989000E-03 0. -1.
     -623    1    1    2    0    0  0.15930793382E-03  0.23752993181E-03  0.94212584795E-04  0.17130000000E+03  0.17130000000E+03 0.  1.
      622    1    1    2    0    0  0.16862360946E-02 -0.61515739534E-02  0.28397828226E+01  0.28398604130E+01  0.20000000000E-01 0. -1.
</event>
<event>
 5   0  0.3603037E+08  0.9118800E+02  0.7818608E-02  0.1180000E+00
       11   -1    0    0    0    0  0.00000000000E+00  0.00000000000E+00  0.39999999673E+01  0.40000000000E+01  0.51109989000E-03 0.  1.
     -623   -1    0    0    0    0  0.00000000000E+00  0.00000000000E+00  0.12525980253E-10  0.17130000000E+03  0.17130000000E+03 0.  1.
       11    1    1    2    0    0 -0.15412605869E-02  0.29644733942E-02  0.30308780277E-01  0.30496671459E-01  0.51109989000E-03 0.  1.
     -623    1    1    2    0    0 -0.19811398947E-02 -0.19888860982E-02  0.23994890423E-03  0.17130000002E+03  0.17130000000E+03 0.  1.
      622    1    1    2    0    0  0.35224004816E-02 -0.97558729604E-03  0.39694512382E+01  0.39695033054E+01  0.20000000000E-01 0.  1.
</event>
<event>
 5   0  0.3603037E+08  0.9118800E+02  0.7818608E-02  0.1180000E+00
       11   -1    0    0    0    0  0.00000000000E+00  0.00000000000E+00  0.39999999673E+01  0.40000000000E+01  0.51109989000E-03 0. -1.
     -623   -1    0    0    0    0  0.00000000000E+00  0.00000000000E+00  0.12525980253E-10  0.17130000000E+03  0.17130000000E+03 0.  1.
       11    1    1    2    0    0 -0.23690736168E-02 -0.26615491480E-02  0.26339994612E+00  0.26342454174E+00  0.51109989000E-03 0. -1.
     -623    1    1    2    0    0 -0.36059390956E-03  0.48035945658E-03  0.79723076318E-04  0.17130000000E+03  0.17130000000E+03 0.  1.
      622    1    1    2    0    0  0.27296675263E-02  0.21811896914E-02  0.37365202982E+01  0.37365754572E+01  0.20000000000E-01 0. -1.
</event>
<event>
 5   0  0.3603037E+08  0.9118800E+02  0.7818608E-02  0.1180000E+00
       11   -1    0    0    0    0  0.00000000000E+00  0.00000000000E+00  0.39999999673E+01  0.40000000000E+01  0.51109989000E-03 0.  1.
     -623   -1    0    0    0    0  0.00000000000E+00  0.00000000000E+00  0.12525980253E-10  0.17130000000E+03  0.17130000000E+03 0. -1.
       11    1    1    2    0    0  0.93406353858E-02  0.75413499930E-02  0.52443431717E-01  0.53802362222E-01  0.51109989000E-03 0.  1.
     -623    1    1    2    0    0 -0.37857957758E-02 -0.53620647077E-02  0.14142229166E-02  0.17130000013E+03  0.17130000000E+03 0. -1.
      622    1    1    2    0    0 -0.55548396100E-02 -0.21792852853E-02  0.39461423127E+01  0.39461975062E+01  0.20000000000E-01 0.  1.
</event>
<event>
 5   0  0.3603037E+08  0.9118800E+02  0.7818608E-02  0.1180000E+00
       11   -1    0    0    0    0  0.00000000000E+00  0.00000000000E+00  0.39999999673E+01  0.40000000000E+01  0.51109989000E-03 0.  1.
     -623   -1    0    0    0    0  0.00000000000E+00  0.00000000000E+00  0.12525980253E-10  0.17130000000E+03  0.17130000000E+03 0.  1.
       11    1    1    2    0    0  0.44266300820E-02  0.50419480450E-02  0.29800179359E+00  0.29807775244E+00  0.51109989000E-03 0.  1.
     -623    1    1    2    0    0  0.14961558139E-02  0.16324709575E-02  0.14072198337E-03  0.17130000001E+03  0.17130000000E+03 0.  1.
      622    1    1    2    0    0 -0.59227858960E-02 -0.66744190025E-02  0.37018574518E+01  0.37019222332E+01  0.20000000000E-01 0.  0.
</event>
<event>
 5   0  0.3603037E+08  0.9118800E+02  0.7818608E-02  0.1180000E+00
       11   -1    0    0    0    0  0.00000000000E+00  0.00000000000E+00  0.39999999673E+01  0.40000000000E+01  0.51109989000E-03 0.  1.
     -623   -1    0    0    0    0  0.00000000000E+00  0.00000000000E+00  0.12525980253E-10  0.17130000000E+03  0.17130000000E+03 0. -1.
       11    1    1    2    0    0 -0.78539200607E-02 -0.35483495042E-02  0.10330219848E+00  0.10366233780E+00  0.51109989000E-03 0.  1.
     -623    1    1    2    0    0  0.13486447903E-02  0.11808314136E-01  0.42603616001E-03  0.17130000041E+03  0.17130000000E+03 0. -1.
      622    1    1    2    0    0  0.65052752705E-02 -0.82599646314E-02  0.38962717327E+01  0.38963372494E+01  0.20000000000E-01 0.  1.
</event>
<event>
 5   0  0.3603037E+08  0.9118800E+02  0.7818608E-02  0.1180000E+00
       11   -1    0    0    0    0  0.00000000000E+00  0.00000000000E+00  0.39999999673E+01  0.40000000000E+01  0.51109989000E-03 0.  1.
     -623   -1    0    0    0    0  0.00000000000E+00  0.00000000000E+00  0.12525980253E-10  0.17130000000E+03  0.17130000000E+03 0.  1.
       11    1    1    2    0    0 -0.20840301802E-02 -0.71894562416E-03  0.44186703643E-01  0.44244616217E-01  0.51109989000E-03 0.  1.
     -623    1    1    2    0    0  0.46295868382E-03 -0.31403095357E-03  0.10890748440E-03  0.17130000000E+03  0.17130000000E+03 0.  1.
      622    1    1    2    0    0  0.16210714963E-02  0.10329765777E-02  0.39557043562E+01  0.39557553828E+01  0.20000000000E-01 0.  1.
</event>
<event>
 5   0  0.3603037E+08  0.9118800E+02  0.7818608E-02  0.1180000E+00
       11   -1    0    0    0    0  0.00000000000E+00  0.00000000000E+00  0.39999999673E+01  0.40000000000E+01  0.51109989000E-03 0.  1.
     -623   -1    0    0    0    0  0.00000000000E+00  0.00000000000E+00  0.12525980253E-10  0.17130000000E+03  0.17130000000E+03 0. -1.
       11    1    1    2    0    0  0.89659197801E-02  0.60631311716E-02  0.10407803420E+00  0.10464056432E+00  0.51109989000E-03 0.  1.
     -623    1    1    2    0    0 -0.64708868929E-02  0.56509048101E-05  0.61949086570E-03  0.17130000012E+03  0.17130000000E+03 0. -1.
      622    1    1    2    0    0 -0.24950328872E-02 -0.60687820764E-02  0.38953024423E+01  0.38953593123E+01  0.20000000000E-01 0.  1.
</event>
<event>
 5   0  0.3603037E+08  0.9118800E+02  0.7818608E-02  0.1180000E+00
       11   -1    0    0    0    0  0.00000000000E+00  0.00000000000E+00  0.39999999673E+01  0.40000000000E+01  0.51109989000E-03 0.  1.
     -623   -1    0    0    0    0  0.00000000000E+00  0.00000000000E+00  0.12525980253E-10  0.17130000000E+03  0.17130000000E+03 0.  1.
       11    1    1    2    0    0 -0.77733011867E-02  0.30366465035E-01  0.14916937210E+01  0.14920231114E+01  0.51109989000E-03 0.  1.
     -623    1    1    2    0    0  0.14303361315E-01 -0.10918236143E-01  0.49396184794E-03  0.17130000095E+03  0.17130000000E+03 0.  1.
      622    1    1    2    0    0 -0.65300601285E-02 -0.19448228892E-01  0.25078122845E+01  0.25079759428E+01  0.20000000000E-01 0. -1.
</event>
<event>
 5   0  0.3603037E+08  0.9118800E+02  0.7818608E-02  0.1180000E+00
       11   -1    0    0    0    0  0.00000000000E+00  0.00000000000E+00  0.39999999673E+01  0.40000000000E+01  0.51109989000E-03 0.  1.
     -623   -1    0    0    0    0  0.00000000000E+00  0.00000000000E+00  0.12525980253E-10  0.17130000000E+03  0.17130000000E+03 0.  1.
       11    1    1    2    0    0 -0.73373400225E-03 -0.36392862915E-03  0.11585442028E+00  0.11585844264E+00  0.51109989000E-03 0.  1.
     -623    1    1    2    0    0 -0.35674128680E-04 -0.23809323144E-03  0.55604528498E-04  0.17130000000E+03  0.17130000000E+03 0.  1.
      622    1    1    2    0    0  0.76940813093E-03  0.60202186059E-03  0.38840899425E+01  0.38841415572E+01  0.20000000000E-01 0.  1.
</event>
<event>
 5   0  0.3603037E+08  0.9118800E+02  0.7818608E-02  0.1180000E+00
       11   -1    0    0    0    0  0.00000000000E+00  0.00000000000E+00  0.39999999673E+01  0.40000000000E+01  0.51109989000E-03 0.  1.
     -623   -1    0    0    0    0  0.00000000000E+00  0.00000000000E+00  0.12525980253E-10  0.17130000000E+03  0.17130000000E+03 0.  1.
       11    1    1    2    0    0 -0.25290599085E-02  0.78682638609E-02  0.51360212952E+00  0.51366887622E+00  0.51109989000E-03 0.  1.
     -623    1    1    2    0    0 -0.24422666138E-02  0.18154554470E-02  0.14110212623E-03  0.17130000003E+03  0.17130000000E+03 0.  1.
      622    1    1    2    0    0  0.49713265223E-02 -0.96837193079E-02  0.34862567357E+01  0.34863310967E+01  0.20000000000E-01 0.  0.
</event>
<event>
 5   0  0.3603037E+08  0.9118800E+02  0.7818608E-02  0.1180000E+00
       11   -1    0    0    0    0  0.00000000000E+00  0.00000000000E+00  0.39999999673E+01  0.40000000000E+01  0.51109989000E-03 0.  1.
     -623   -1    0    0    0    0  0.00000000000E+00  0.00000000000E+00  0.12525980253E-10  0.17130000000E+03  0.17130000000E+03 0. -1.
       11    1    1    2    0    0  0.17925590783E-01  0.19375936989E-01  0.27984218471E+00  0.28108479735E+00  0.51109989000E-03 0.  1.
     -623    1    1    2    0    0 -0.15419995612E-01  0.59285771371E-02  0.13840975120E-02  0.17130000080E+03  0.17130000000E+03 0. -1.
      622    1    1    2    0    0 -0.25055951708E-02 -0.25304514126E-01  0.37187736851E+01  0.37189144004E+01  0.20000000000E-01 0.  1.
</event>
<event>
 5   0  0.3603037E+08  0.9118800E+02  0.7818608E-02  0.1180000E+00
       11   -1    0    0    0    0  0.00000000000E+00  0.00000000000E+00  0.39999999673E+01  0.40000000000E+01  0.51109989000E-03 0. -1.
     -623   -1    0    0    0    0  0.00000000000E+00  0.00000000000E+00  0.12525980253E-10  0.17130000000E+03  0.17130000000E+03 0. -1.
       11    1    1    2    0    0  0.27494590525E-01 -0.16380603232E-01  0.75982415832E+00  0.76049805355E+00  0.51109989000E-03 0. -1.
     -623    1    1    2    0    0 -0.40562123010E-01  0.32573848703E-01  0.81033310256E-03  0.17130000790E+03  0.17130000000E+03 0. -1.
      622    1    1    2    0    0  0.13067532485E-01 -0.16193245471E-01  0.32393654759E+01  0.32394940451E+01  0.20000000000E-01 0. -1.
</event>
<event>
 5   0  0.3603037E+08  0.9118800E+02  0.7818608E-02  0.1180000E+00
       11   -1    0    0    0    0  0.00000000000E+00  0.00000000000E+00  0.39999999673E+01  0.40000000000E+01  0.51109989000E-03 0. -1.
     -623   -1    0    0    0    0  0.00000000000E+00  0.00000000000E+00  0.12525980253E-10  0.17130000000E+03  0.17130000000E+03 0.  1.
       11    1    1    2    0    0 -0.78703702982E-03  0.98526036775E-03  0.24724923959E+00  0.24725298353E+00  0.51109989000E-03 0. -1.
     -623    1    1    2    0    0  0.65873594203E-04 -0.15724912703E-04  0.57200531538E-04  0.17130000000E+03  0.17130000000E+03 0.  1.
      622    1    1    2    0    0  0.72116343561E-03 -0.96953545505E-03  0.37526935272E+01  0.37527470164E+01  0.20000000000E-01 0. -1.
</event>
<event>
 5   0  0.3603037E+08  0.9118800E+02  0.7818608E-02  0.1180000E+00
       11   -1    0    0    0    0  0.00000000000E+00  0.00000000000E+00  0.39999999673E+01  0.40000000000E+01  0.51109989000E-03 0.  1.
     -623   -1    0    0    0    0  0.00000000000E+00  0.00000000000E+00  0.12525980253E-10  0.17130000000E+03  0.17130000000E+03 0.  1.
       11    1    1    2    0    0  0.32555144632E-03 -0.51463100821E-03  0.39094232899E-01  0.39102315754E-01  0.51109989000E-03 0.  1.
     -623    1    1    2    0    0 -0.29520084898E-04 -0.10558110054E-03  0.58603806339E-04  0.17130000000E+03  0.17130000000E+03 0.  1.
      622    1    1    2    0    0 -0.29603136142E-03  0.62021210875E-03  0.39608471307E+01  0.39608976842E+01  0.20000000000E-01 0.  0.
</event>
<event>
 5   0  0.3603037E+08  0.9118800E+02  0.7818608E-02  0.1180000E+00
       11   -1    0    0    0    0  0.00000000000E+00  0.00000000000E+00  0.39999999673E+01  0.40000000000E+01  0.51109989000E-03 0. -1.
     -623   -1    0    0    0    0  0.00000000000E+00  0.00000000000E+00  0.12525980253E-10  0.17130000000E+03  0.17130000000E+03 0.  1.
       11    1    1    2    0    0  0.30423794140E-01 -0.10292576837E-03  0.19839088749E+01  0.19841422083E+01  0.51109989000E-03 0. -1.
     -623    1    1    2    0    0  0.34920577603E-03 -0.48509913091E-03  0.56751163842E-03  0.17130000000E+03  0.17130000000E+03 0.  1.
      622    1    1    2    0    0 -0.30772999916E-01  0.58802489928E-03  0.20155235809E+01  0.20158577897E+01  0.20000000000E-01 0. -1.
</event>
<event>
 5   0  0.3603037E+08  0.9118800E+02  0.7818608E-02  0.1180000E+00
       11   -1    0    0    0    0  0.00000000000E+00  0.00000000000E+00  0.39999999673E+01  0.40000000000E+01  0.51109989000E-03 0.  1.
     -623   -1    0    0    0    0  0.00000000000E+00  0.00000000000E+00  0.12525980253E-10  0.17130000000E+03  0.17130000000E+03 0. -1.
       11    1    1    2    0    0 -0.43940703497E-02  0.29258833143E-02  0.66735710397E-01  0.66946134407E-01  0.51109989000E-03 0.  1.
     -623    1    1    2    0    0 -0.11501954564E-02  0.18043934586E-03  0.26638145157E-03  0.17130000000E+03  0.17130000000E+03 0. -1.
      622    1    1    2    0    0  0.55442658062E-02 -0.31063226601E-02  0.39329978755E+01  0.39330538614E+01  0.20000000000E-01 0.  1.
</event>
<event>
 5   0  0.3603037E+08  0.9118800E+02  0.7818608E-02  0.1180000E+00
       11   -1    0    0    0    0  0.00000000000E+00  0.00000000000E+00  0.39999999673E+01  0.40000000000E+01  0.51109989000E-03 0.  1.
     -623   -1    0    0    0    0  0.00000000000E+00  0.00000000000E+00  0.12525980253E-10  0.17130000000E+03  0.17130000000E+03 0.  1.
       11    1    1    2    0    0 -0.11694884012E-02  0.99292314169E-03  0.39537081315E-01  0.39570135441E-01  0.51109989000E-03 0.  1.
     -623    1    1    2    0    0  0.47177198473E-04 -0.11996678517E-03  0.83776677954E-04  0.17130000000E+03  0.17130000000E+03 0.  1.
      622    1    1    2    0    0  0.11223112027E-02 -0.87295635652E-03  0.39603791094E+01  0.39604298645E+01  0.20000000000E-01 0.  1.
</event>
<event>
 5   0  0.3603037E+08  0.9118800E+02  0.7818608E-02  0.1180000E+00
       11   -1    0    0    0    0  0.00000000000E+00  0.00000000000E+00  0.39999999673E+01  0.40000000000E+01  0.51109989000E-03 0. -1.
     -623   -1    0    0    0    0  0.00000000000E+00  0.00000000000E+00  0.12525980253E-10  0.17130000000E+03  0.17130000000E+03 0.  1.
       11    1    1    2    0    0 -0.70715758974E-03 -0.50163852707E-05  0.16032554626E-01  0.16056279964E-01  0.51109989000E-03 0. -1.
     -623    1    1    2    0    0  0.20818198521E-07  0.25948125460E-03  0.73965624119E-04  0.17130000000E+03  0.17130000000E+03 0.  1.
      622    1    1    2    0    0  0.70713677154E-03 -0.25446486933E-03  0.39838934471E+01  0.39839437198E+01  0.20000000000E-01 0. -1.
</event>
<event>
 5   0  0.3603037E+08  0.9118800E+02  0.7818608E-02  0.1180000E+00
       11   -1    0    0    0    0  0.00000000000E+00  0.00000000000E+00  0.39999999673E+01  0.40000000000E+01  0.51109989000E-03 0.  1.
     -623   -1    0    0    0    0  0.00000000000E+00  0.00000000000E+00  0.12525980253E-10  0.17130000000E+03  0.17130000000E+03 0. -1.
       11    1    1    2    0    0  0.19062878352E-01 -0.55301188760E-02  0.18358976161E+01  0.18360049819E+01  0.51109989000E-03 0.  1.
     -623    1    1    2    0    0 -0.96025257617E-02  0.13484826946E-01  0.23585815167E-03  0.17130000080E+03  0.17130000000E+03 0. -1.
      622    1    1    2    0    0 -0.94603525904E-02 -0.79547080703E-02  0.21638664931E+01  0.21639942180E+01  0.20000000000E-01 0.  1.
</event>
<event>
 5   0  0.3603037E+08  0.9118800E+02  0.7818608E-02  0.1180000E+00
       11   -1    0    0    0    0  0.00000000000E+00  0.00000000000E+00  0.39999999673E+01  0.40000000000E+01  0.51109989000E-03 0.  1.
     -623   -1    0    0    0    0  0.00000000000E+00  0.00000000000E+00  0.12525980253E-10  0.17130000000E+03  0.17130000000E+03 0.  1.
       11    1    1    2    0    0  0.81679026192E-02 -0.32658712081E-02  0.30084682887E-01  0.31348523324E-01  0.51109989000E-03 0.  1.
     -623    1    1    2    0    0 -0.38706370467E-02 -0.11558549939E-02  0.13190456487E-02  0.17130000005E+03  0.17130000000E+03 0.  1.
      622    1    1    2    0    0 -0.42972655725E-02  0.44217262020E-02  0.39685962388E+01  0.39686514240E+01  0.20000000000E-01 0.  1.
</event>
<event>
 5   0  0.3603037E+08  0.9118800E+02  0.7818608E-02  0.1180000E+00
       11   -1    0    0    0    0  0.00000000000E+00  0.00000000000E+00  0.39999999673E+01  0.40000000000E+01  0.51109989000E-03 0.  1.
     -623   -1    0    0    0    0  0.00000000000E+00  0.00000000000E+00  0.12525980253E-10  0.17130000000E+03  0.17130000000E+03 0. -1.
       11    1    1    2    0    0  0.12495767962E-02  0.30866368296E-02  0.25395696062E+00  0.25397930592E+00  0.51109989000E-03 0.  1.
     -623    1    1    2    0    0 -0.20638494995E-02 -0.55315913557E-03  0.76661597629E-04  0.17130000001E+03  0.17130000000E+03 0. -1.
      622    1    1    2    0    0  0.81427270332E-03 -0.25334776941E-02  0.37459663451E+01  0.37460206807E+01  0.20000000000E-01 0.  1.
</event>
<event>
 5   0  0.3603037E+08  0.9118800E+02  0.7818608E-02  0.1180000E+00
       11   -1    0    0    0    0  0.00000000000E+00  0.00000000000E+00  0.39999999673E+01  0.40000000000E+01  0.51109989000E-03 0. -1.
     -623   -1    0    0    0    0  0.00000000000E+00  0.00000000000E+00  0.12525980253E-10  0.17130000000E+03  0.17130000000E+03 0.  1.
       11    1    1    2    0    0 -0.26137282632E-02  0.34820718854E-02  0.11590650756E+00  0.11598937932E+00  0.51109989000E-03 0. -1.
     -623    1    1    2    0    0 -0.16251175920E-01 -0.32340218426E-02  0.18095700665E-03  0.17130000080E+03  0.17130000000E+03 0.  1.
      622    1    1    2    0    0  0.18864904183E-01 -0.24805004274E-03  0.38839125028E+01  0.38840098192E+01  0.20000000000E-01 0.  0.
</event>
<event>
 5   0  0.3603037E+08  0.9118800E+02  0.7818608E-02  0.1180000E+00
       11   -1    0    0    0    0  0.00000000000E+00  0.00000000000E+00  0.39999999673E+01  0.40000000000E+01  0.51109989000E-03 0. -1.
     -623   -1    0    0    0    0  0.00000000000E+00  0.00000000000E+00  0.12525980253E-10  0.17130000000E+03  0.17130000000E+03 0. -1.
       11    1    1    2    0    0  0.39594859302E-02 -0.62740619460E-02  0.15824458379E+01  0.15824633116E+01  0.51109989000E-03 0. -1.
     -623    1    1    2    0    0 -0.66517660031E-03  0.45305625490E-03  0.10942606460E-03  0.17130000000E+03  0.17130000000E+03 0. -1.
      622    1    1    2    0    0 -0.32943093298E-02  0.58210056911E-02  0.24174447034E+01  0.24175366865E+01  0.20000000000E-01 0.  1.
</event>
<event>
 5   0  0.3603037E+08  0.9118800E+02  0.7818608E-02  0.1180000E+00
       11   -1    0    0    0    0  0.00000000000E+00  0.00000000000E+00  0.39999999673E+01  0.40000000000E+01  0.51109989000E-03 0. -1.
     -623   -1    0    0    0    0  0.00000000000E+00  0.00000000000E+00  0.12525980253E-10  0.17130000000E+03  0.17130000000E+03 0.  1.
       11    1    1    2    0    0 -0.10662710616E-02  0.43464354243E-02  0.28173254853E-01  0.28531069826E-01  0.51109989000E-03 0. -1.
     -623    1    1    2    0    0 -0.23231847191E-02 -0.47052155370E-02  0.40968531028E-03  0.17130000008E+03  0.17130000000E+03 0.  1.
      622    1    1    2    0    0  0.33894557807E-02  0.35878011264E-03  0.39714170272E+01  0.39714688493E+01  0.20000000000E-01 0. -1.
</event>
<event>
 5   0  0.3603037E+08  0.9118800E+02  0.7818608E-02  0.1180000E+00
       11   -1    0    0    0    0  0.00000000000E+00  0.00000000000E+00  0.39999999673E+01  0.40000000000E+01  0.51109989000E-03 0. -1.
     -623   -1    0    0    0    0  0.00000000000E+00  0.00000000000E+00  0.12525980253E-10  0.17130000000E+03  0.17130000000E+03 0. -1.
       11    1    1    2    0    0 -0.10459446294E-03 -0.12930870142E-02  0.13272065979E-01  0.13345110359E-01  0.51109989000E-03 0. -1.
     -623    1    1    2    0    0 -0.88713069865E-03  0.22440695425E-02  0.12343324819E-03  0.17130000002E+03  0.17130000000E+03 0. -1.
      622    1    1    2    0    0  0.99172516159E-03 -0.95098252832E-03  0.39866044681E+01  0.39866548726E+01  0.20000000000E-01 0. -1.
</event>
<event>
 5   0  0.3603037E+08  0.9118800E+02  0.7818608E-02  0.1180000E+00
       11   -1    0    0    0    0  0.00000000000E+00  0.00000000000E+00  0.39999999673E+01  0.40000000000E+01  0.51109989000E-03 0. -1.
     -623   -1    0    0    0    0  0.00000000000E+00  0.00000000000E+00  0.12525980253E-10  0.17130000000E+03  0.17130000000E+03 0.  1.
       11    1    1    2    0    0  0.30082339015E-02 -0.24749150317E-02  0.98153658125E+00  0.98154444435E+00  0.51109989000E-03 0. -1.
     -623    1    1    2    0    0 -0.40994085616E-04  0.13942932452E-03  0.76452336974E-04  0.17130000000E+03  0.17130000000E+03 0.  1.
      622    1    1    2    0    0 -0.29672398159E-02  0.23354857072E-02  0.30183869338E+01  0.30184555556E+01  0.20000000000E-01 0. -1.
</event>
<event>
 5   0  0.3603037E+08  0.9118800E+02  0.7818608E-02  0.1180000E+00
       11   -1    0    0    0    0  0.00000000000E+00  0.00000000000E+00  0.39999999673E+01  0.40000000000E+01  0.51109989000E-03 0. -1.
     -623   -1    0    0    0    0  0.00000000000E+00  0.00000000000E+00  0.12525980253E-10  0.17130000000E+03  0.17130000000E+03 0. -1.
       11    1    1    2    0    0 -0.15707178335E-02 -0.34707110898E-02  0.13879662919E+00  0.13884984151E+00  0.51109989000E-03 0. -1.
     -623    1    1    2    0    0  0.36489414844E-03 -0.49387882415E-03  0.10720290977E-03  0.17130000000E+03  0.17130000000E+03 0. -1.
      622    1    1    2    0    0  0.12058236850E-02  0.39645899139E-02  0.38610961353E+01  0.38611501574E+01  0.20000000000E-01 0. -1.
</event>
<event>
 5   0  0.3603037E+08  0.9118800E+02  0.7818608E-02  0.1180000E+00
       11   -1    0    0    0    0  0.00000000000E+00  0.00000000000E+00  0.39999999673E+01  0.40000000000E+01  0.51109989000E-03 0.  1.
     -623   -1    0    0    0    0  0.00000000000E+00  0.00000000000E+00  0.12525980253E-10  0.17130000000E+03  0.17130000000E+03 0. -1.
       11    1    1    2    0    0 -0.25948431876E-04 -0.67574573733E-02  0.62973692281E+00  0.62977338549E+00  0.51109989000E-03 0.  1.
     -623    1    1    2    0    0  0.64238894921E-02  0.61842856941E-02  0.10212755931E-03  0.17130000023E+03  0.17130000000E+03 0. -1.
      622    1    1    2    0    0 -0.63979410602E-02  0.57317167920E-03  0.33701609170E+01  0.33702263824E+01  0.20000000000E-01 0.  1.
</event>
<event>
 5   0  0.3603037E+08  0.9118800E+02  0.7818608E-02  0.1180000E+00
       11   -1    0    0    0    0  0.00000000000E+00  0.00000000000E+00  0.39999999673E+01  0.40000000000E+01  0.51109989000E-03 0.  1.
     -623   -1    0    0    0    0  0.00000000000E+00  0.00000000000E+00  0.12525980253E-10  0.17130000000E+03  0.17130000000E+03 0. -1.
       11    1    1    2    0    0 -0.93911673350E-03 -0.25034697005E-02  0.11568943283E+01  0.11568975310E+01  0.51109989000E-03 0.  1.
     -623    1    1    2    0    0 -0.15776754219E-02 -0.30770290879E-02  0.80142495336E-04  0.17130000003E+03  0.17130000000E+03 0. -1.
      622    1    1    2    0    0  0.25167921554E-02  0.55804987884E-02  0.28430254966E+01  0.28431024341E+01  0.20000000000E-01 0.  1.
</event>
<event>
 5   0  0.3603037E+08  0.9118800E+02  0.7818608E-02  0.1180000E+00
       11   -1    0    0    0    0  0.00000000000E+00  0.00000000000E+00  0.39999999673E+01  0.40000000000E+01  0.51109989000E-03 0. -1.
     -623   -1    0    0    0    0  0.00000000000E+00  0.00000000000E+00  0.12525980253E-10  0.17130000000E+03  0.17130000000E+03 0.  1.
       11    1    1    2    0    0 -0.47534566546E-02  0.99492925817E-02  0.19609673782E+01  0.19609984455E+01  0.51109989000E-03 0. -1.
     -623    1    1    2    0    0  0.73774036267E-02 -0.84602456940E-04  0.15483565816E-03  0.17130000016E+03  0.17130000000E+03 0.  1.
      622    1    1    2    0    0 -0.26239469722E-02 -0.98646901248E-02  0.20388777535E+01  0.20390013955E+01  0.20000000000E-01 0. -1.
</event>
<event>
 5   0  0.3603037E+08  0.9118800E+02  0.7818608E-02  0.1180000E+00
       11   -1    0    0    0    0  0.00000000000E+00  0.00000000000E+00  0.39999999673E+01  0.40000000000E+01  0.51109989000E-03 0.  1.
     -623   -1    0    0    0    0  0.00000000000E+00  0.00000000000E+00  0.12525980253E-10  0.17130000000E+03  0.17130000000E+03 0.  1.
       11    1    1    2    0    0  0.15527306959E-03 -0.24157775456E-02  0.24713288416E-01  0.24836826201E-01  0.51109989000E-03 0.  1.
     -623    1    1    2    0    0 -0.60567592476E-03  0.12502488581E-03  0.17450463518E-03  0.17130000000E+03  0.17130000000E+03 0.  1.
      622    1    1    2    0    0  0.45040285517E-03  0.22907526598E-02  0.39751121743E+01  0.39751631726E+01  0.20000000000E-01 0.  1.
</event>
<event>
 5   0  0.3603037E+08  0.9118800E+02  0.7818608E-02  0.1180000E+00
       11   -1    0    0    0    0  0.00000000000E+00  0.00000000000E+00  0.39999999673E+01  0.40000000000E+01  0.51109989000E-03 0.  1.
     -623   -1    0    0    0    0  0.00000000000E+00  0.00000000000E+00  0.12525980253E-10  0.17130000000E+03  0.17130000000E+03 0. -1.
       11    1    1    2    0    0  0.17058370548E-03  0.36874533041E-03  0.36447852577E-01  0.36453700102E-01  0.51109989000E-03 0.  1.
     -623    1    1    2    0    0 -0.28594199709E-03 -0.35016048570E-04  0.56291048747E-04  0.17130000000E+03  0.17130000000E+03 0. -1.
      622    1    1    2    0    0  0.11535829160E-03 -0.33372928184E-03  0.39634958237E+01  0.39635462996E+01  0.20000000000E-01 0.  1.
</event>
<event>
 5   0  0.3603037E+08  0.9118800E+02  0.7818608E-02  0.1180000E+00
       11   -1    0    0    0    0  0.00000000000E+00  0.00000000000E+00  0.39999999673E+01  0.40000000000E+01  0.51109989000E-03 0.  1.
     -623   -1    0    0    0    0  0.00000000000E+00  0.00000000000E+00  0.12525980253E-10  0.17130000000E+03  0.17130000000E+03 0. -1.
       11    1    1    2    0    0 -0.73655889071E-02  0.14050801455E-01  0.46397450872E+00  0.46424592931E+00  0.51109989000E-03 0.  1.
     -623    1    1    2    0    0  0.98375388186E-03  0.26196251806E-03  0.36268608565E-03  0.17130000000E+03  0.17130000000E+03 0. -1.
      622    1    1    2    0    0  0.63818350252E-02 -0.14312763973E-01  0.35356627726E+01  0.35357540673E+01  0.20000000000E-01 0.  1.
</event>
<event>
 5   0  0.3603037E+08  0.9118800E+02  0.7818608E-02  0.1180000E+00
       11   -1    0    0    0    0  0.00000000000E+00  0.00000000000E+00  0.39999999673E+01  0.40000000000E+01  0.51109989000E-03 0.  1.
     -623   -1    0    0    0    0  0.00000000000E+00  0.00000000000E+00  0.12525980253E-10  0.17130000000E+03  0.17130000000E+03 0. -1.
       11    1    1    2    0    0  0.86182842269E-02 -0.22327940118E-02  0.18436295147E+01  0.18436510811E+01  0.51109989000E-03 0.  1.
     -623    1    1    2    0    0  0.16643462940E-03  0.47730084263E-03  0.13289536129E-03  0.17130000000E+03  0.17130000000E+03 0. -1.
      622    1    1    2    0    0 -0.87847188563E-02  0.17554931691E-02  0.21562375573E+01  0.21563489181E+01  0.20000000000E-01 0.  1.
</event>
<event>
 5   0  0.3603037E+08  0.9118800E+02  0.7818608E-02  0.1180000E+00
       11   -1    0    0    0    0  0.00000000000E+00  0.00000000000E+00  0.39999999673E+01  0.40000000000E+01  0.51109989000E-03 0.  1.
     -623   -1    0    0    0    0  0.00000000000E+00  0.00000000000E+00  0.12525980253E-10  0.17130000000E+03  0.17130000000E+03 0. -1.
       11    1    1    2    0    0  0.58426934195E-02 -0.57149190718E-02  0.26563857947E+00  0.26576477097E+00  0.51109989000E-03 0. -1.
     -623    1    1    2    0    0 -0.37852455400E-02  0.11569007063E-02  0.18311217306E-03  0.17130000005E+03  0.17130000000E+03 0. -1.
      622    1    1    2    0    0 -0.20574478795E-02  0.45580183655E-02  0.37341782757E+01  0.37342351832E+01  0.20000000000E-01 0.  1.
</event>
<event>
 5   0  0.3603037E+08  0.9118800E+02  0.7818608E-02  0.1180000E+00
       11   -1    0    0    0    0  0.00000000000E+00  0.00000000000E+00  0.39999999673E+01  0.40000000000E+01  0.51109989000E-03 0.  1.
     -623   -1    0    0    0    0  0.00000000000E+00  0.00000000000E+00  0.12525980253E-10  0.17130000000E+03  0.17130000000E+03 0.  1.
       11    1    1    2    0    0  0.40760059671E-01 -0.92118264172E-02  0.20623250285E+01  0.20627484153E+01  0.51109989000E-03 0.  1.
     -623    1    1    2    0    0 -0.55491280713E-03 -0.81579585640E-02  0.10219571887E-02  0.17130000020E+03  0.17130000000E+03 0.  1.
      622    1    1    2    0    0 -0.40205146864E-01  0.17369784981E-01  0.19366529817E+01  0.19372513865E+01  0.20000000000E-01 0.  1.
</event>
<event>
 5   0  0.3603037E+08  0.9118800E+02  0.7818608E-02  0.1180000E+00
       11   -1    0    0    0    0  0.00000000000E+00  0.00000000000E+00  0.39999999673E+01  0.40000000000E+01  0.51109989000E-03 0.  1.
     -623   -1    0    0    0    0  0.00000000000E+00  0.00000000000E+00  0.12525980253E-10  0.17130000000E+03  0.17130000000E+03 0. -1.
       11    1    1    2    0    0  0.42516263029E-02 -0.19490351775E-03 -0.14802133111E-02  0.45350376985E-02  0.51109989000E-03 0.  1.
     -623    1    1    2    0    0 -0.29457671863E-02  0.11703803212E-02  0.60657446422E-02  0.17130000014E+03  0.17130000000E+03 0. -1.
      622    1    1    2    0    0 -0.13058591166E-02 -0.97547680342E-03  0.39954144360E+01  0.39954648256E+01  0.20000000000E-01 0.  1.
</event>
<event>
 5   0  0.3603037E+08  0.9118800E+02  0.7818608E-02  0.1180000E+00
       11   -1    0    0    0    0  0.00000000000E+00  0.00000000000E+00  0.39999999673E+01  0.40000000000E+01  0.51109989000E-03 0.  1.
     -623   -1    0    0    0    0  0.00000000000E+00  0.00000000000E+00  0.12525980253E-10  0.17130000000E+03  0.17130000000E+03 0.  1.
       11    1    1    2    0    0 -0.12702699772E-02 -0.17782259463E-02  0.20213944354E-01  0.20338152322E-01  0.51109989000E-03 0.  1.
     -623    1    1    2    0    0 -0.30344796654E-03  0.16629342215E-02  0.17475243060E-03  0.17130000001E+03  0.17130000000E+03 0.  1.
      622    1    1    2    0    0  0.15737179437E-02  0.11529172477E-03  0.39796112706E+01  0.39796618392E+01  0.20000000000E-01 0.  1.
</event>
<event>
 5   0  0.3603037E+08  0.9118800E+02  0.7818608E-02  0.1180000E+00
       11   -1    0    0    0    0  0.00000000000E+00  0.00000000000E+00  0.39999999673E+01  0.40000000000E+01  0.51109989000E-03 0. -1.
     -623   -1    0    0    0    0  0.00000000000E+00  0.00000000000E+00  0.12525980253E-10  0.17130000000E+03  0.17130000000E+03 0.  1.
       11    1    1    2    0    0  0.10616824082E-02 -0.28194025569E-03  0.67754801641E-01  0.67765633082E-01  0.51109989000E-03 0. -1.
     -623    1    1    2    0    0 -0.12105342038E-02  0.13494611728E-02  0.61818126327E-04  0.17130000001E+03  0.17130000000E+03 0.  1.
      622    1    1    2    0    0  0.14885179559E-03 -0.10675209171E-02  0.39321833476E+01  0.39322343573E+01  0.20000000000E-01 0. -1.
</event>
<event>
 5   0  0.3603037E+08  0.9118800E+02  0.7818608E-02  0.1180000E+00
       11   -1    0    0    0    0  0.00000000000E+00  0.00000000000E+00  0.39999999673E+01  0.40000000000E+01  0.51109989000E-03 0.  1.
     -623   -1    0    0    0    0  0.00000000000E+00  0.00000000000E+00  0.12525980253E-10  0.17130000000E+03  0.17130000000E+03 0. -1.
       11    1    1    2    0    0 -0.47101552430E-03  0.18638344562E-01  0.17200943208E+01  0.17201954376E+01  0.51109989000E-03 0.  1.
     -623    1    1    2    0    0 -0.77021717314E-02  0.35847654644E-03  0.28278950612E-03  0.17130000017E+03  0.17130000000E+03 0. -1.
      622    1    1    2    0    0  0.81731872557E-02 -0.18996821109E-01  0.22796228570E+01  0.22798043886E+01  0.20000000000E-01 0. -1.
</event>
<event>
 5   0  0.3603037E+08  0.9118800E+02  0.7818608E-02  0.1180000E+00
       11   -1    0    0    0    0  0.00000000000E+00  0.00000000000E+00  0.39999999673E+01  0.40000000000E+01  0.51109989000E-03 0.  1.
     -623   -1    0    0    0    0  0.00000000000E+00  0.00000000000E+00  0.12525980253E-10  0.17130000000E+03  0.17130000000E+03 0.  1.
       11    1    1    2    0    0  0.27128943931E-01  0.39686591963E-02  0.22260809174E+01  0.22262498157E+01  0.51109989000E-03 0.  1.
     -623    1    1    2    0    0 -0.17607318013E-01 -0.24091238879E-01  0.42393717913E-03  0.17130000260E+03  0.17130000000E+03 0.  1.
      622    1    1    2    0    0 -0.95216259179E-02  0.20122579682E-01  0.17734951128E+01  0.17737475848E+01  0.20000000000E-01 0. -1.
</event>
<event>
 5   0  0.3603037E+08  0.9118800E+02  0.7818608E-02  0.1180000E+00
       11   -1    0    0    0    0  0.00000000000E+00  0.00000000000E+00  0.39999999673E+01  0.40000000000E+01  0.51109989000E-03 0.  1.
     -623   -1    0    0    0    0  0.00000000000E+00  0.00000000000E+00  0.12525980253E-10  0.17130000000E+03  0.17130000000E+03 0. -1.
       11    1    1    2    0    0 -0.16826690441E-01  0.86383409496E-02  0.11077530849E+01  0.11079146704E+01  0.51109989000E-03 0.  1.
     -623    1    1    2    0    0  0.14106002525E-02 -0.22944479654E-02  0.27877589535E-03  0.17130000002E+03  0.17130000000E+03 0. -1.
      622    1    1    2    0    0  0.15416090189E-01 -0.63438929842E-02  0.28919681065E+01  0.28920853082E+01  0.20000000000E-01 0.  1.
</event>
<event>
 5   0  0.3603037E+08  0.9118800E+02  0.7818608E-02  0.1180000E+00
       11   -1    0    0    0    0  0.00000000000E+00  0.00000000000E+00  0.39999999673E+01  0.40000000000E+01  0.51109989000E-03 0. -1.
     -623   -1    0    0    0    0  0.00000000000E+00  0.00000000000E+00  0.12525980253E-10  0.17130000000E+03  0.17130000000E+03 0.  1.
       11    1    1    2    0    0 -0.24998914013E-03  0.95350282114E-03  0.26896453318E+00  0.26896682508E+00  0.51109989000E-03 0. -1.
     -623    1    1    2    0    0  0.10504915251E-02 -0.46493290181E-03  0.55985822397E-04  0.17130000000E+03  0.17130000000E+03 0.  1.
      622    1    1    2    0    0 -0.80050238499E-03 -0.48856991933E-03  0.37309794484E+01  0.37310331711E+01  0.20000000000E-01 0. -1.
</event>
<event>
 5   0  0.3603037E+08  0.9118800E+02  0.7818608E-02  0.1180000E+00
       11   -1    0    0    0    0  0.00000000000E+00  0.00000000000E+00  0.39999999673E+01  0.40000000000E+01  0.51109989000E-03 0.  1.
     -623   -1    0    0    0    0  0.00000000000E+00  0.00000000000E+00  0.12525980253E-10  0.17130000000E+03  0.17130000000E+03 0. -1.
       11    1    1    2    0    0  0.98336571141E-03 -0.20419428432E-03  0.49499023433E+00  0.49499151710E+00  0.51109989000E-03 0.  1.
     -623    1    1    2    0    0  0.93403473369E-04  0.19932186686E-03  0.58477357422E-04  0.17130000000E+03  0.17130000000E+03 0. -1.
      622    1    1    2    0    0 -0.10767691848E-02  0.48724174687E-05  0.35049512557E+01  0.35050084827E+01  0.20000000000E-01 0.  1.
</event>
<event>
 5   0  0.3603037E+08  0.9118800E+02  0.7818608E-02  0.1180000E+00
       11   -1    0    0    0    0  0.00000000000E+00  0.00000000000E+00  0.39999999673E+01  0.40000000000E+01  0.51109989000E-03 0.  1.
     -623   -1    0    0    0    0  0.00000000000E+00  0.00000000000E+00  0.12525980253E-10  0.17130000000E+03  0.17130000000E+03 0.  1.
       11    1    1    2    0    0 -0.22273095264E-02 -0.10841827765E-02  0.19335629122E-02  0.31837471609E-02  0.51109989000E-03 0.  1.
     -623    1    1    2    0    0  0.40041993977E-02  0.32609526223E-03  0.13007106812E-02  0.17130000005E+03  0.17130000000E+03 0.  1.
      622    1    1    2    0    0 -0.17768898713E-02  0.75808751427E-03  0.39967656938E+01  0.39968162008E+01  0.20000000000E-01 0.  1.
</event>
<event>
 5   0  0.3603037E+08  0.9118800E+02  0.7818608E-02  0.1180000E+00
       11   -1    0    0    0    0  0.00000000000E+00  0.00000000000E+00  0.39999999673E+01  0.40000000000E+01  0.51109989000E-03 0. -1.
     -623   -1    0    0    0    0  0.00000000000E+00  0.00000000000E+00  0.12525980253E-10  0.17130000000E+03  0.17130000000E+03 0. -1.
       11    1    1    2    0    0  0.74410728469E-02  0.11382348526E-01  0.12814704872E+01  0.12815427414E+01  0.51109989000E-03 0. -1.
     -623    1    1    2    0    0 -0.47330209506E-02 -0.15444210317E-01  0.15093899468E-03  0.17130000076E+03  0.17130000000E+03 0. -1.
      622    1    1    2    0    0 -0.27080518963E-02  0.40618617906E-02  0.27183785412E+01  0.27184564969E+01  0.20000000000E-01 0.  0.
</event>
<event>
 5   0  0.3603037E+08  0.9118800E+02  0.7818608E-02  0.1180000E+00
       11   -1    0    0    0    0  0.00000000000E+00  0.00000000000E+00  0.39999999673E+01  0.40000000000E+01  0.51109989000E-03 0.  1.
     -623   -1    0    0    0    0  0.00000000000E+00  0.00000000000E+00  0.12525980253E-10  0.17130000000E+03  0.17130000000E+03 0. -1.
       11    1    1    2    0    0 -0.26006750552E-02  0.12529237187E-01  0.35171463034E-01  0.37430446542E-01  0.51109989000E-03 0.  1.
     -623    1    1    2    0    0 -0.17966130258E-02 -0.93401252865E-03  0.23288563379E-02  0.17130000003E+03  0.17130000000E+03 0. -1.
      622    1    1    2    0    0  0.43972880810E-02 -0.11595224659E-01  0.39624996480E+01  0.39625695257E+01  0.20000000000E-01 0.  1.
</event>
<event>
 5   0  0.3603037E+08  0.9118800E+02  0.7818608E-02  0.1180000E+00
       11   -1    0    0    0    0  0.00000000000E+00  0.00000000000E+00  0.39999999673E+01  0.40000000000E+01  0.51109989000E-03 0. -1.
     -623   -1    0    0    0    0  0.00000000000E+00  0.00000000000E+00  0.12525980253E-10  0.17130000000E+03  0.17130000000E+03 0.  1.
       11    1    1    2    0    0 -0.21346627719E-02  0.88773287791E-02  0.34410585628E+00  0.34422734537E+00  0.51109989000E-03 0. -1.
     -623    1    1    2    0    0 -0.16323106876E-02  0.33567578197E-02  0.19861757795E-03  0.17130000004E+03  0.17130000000E+03 0.  1.
      622    1    1    2    0    0  0.37669734595E-02 -0.12234086599E-01  0.36556954935E+01  0.36557726138E+01  0.20000000000E-01 0. -1.
</event>
<event>
 5   0  0.3603037E+08  0.9118800E+02  0.7818608E-02  0.1180000E+00
       11   -1    0    0    0    0  0.00000000000E+00  0.00000000000E+00  0.39999999673E+01  0.40000000000E+01  0.51109989000E-03 0.  1.
     -623   -1    0    0    0    0  0.00000000000E+00  0.00000000000E+00  0.12525980253E-10  0.17130000000E+03  0.17130000000E+03 0.  1.
       11    1    1    2    0    0  0.69183639004E-02  0.17449260195E-02  0.45520807448E+00  0.45526427580E+00  0.51109989000E-03 0.  1.
     -623    1    1    2    0    0 -0.30865514367E-04 -0.46805658025E-03  0.11951287654E-03  0.17130000000E+03  0.17130000000E+03 0.  1.
      622    1    1    2    0    0 -0.68874983860E-02 -0.12768694392E-02  0.35446723800E+01  0.35447357235E+01  0.20000000000E-01 0.  1.
</event>
<event>
 5   0  0.3603037E+08  0.9118800E+02  0.7818608E-02  0.1180000E+00
       11   -1    0    0    0    0  0.00000000000E+00  0.00000000000E+00  0.39999999673E+01  0.40000000000E+01  0.51109989000E-03 0.  1.
     -623   -1    0    0    0    0  0.00000000000E+00  0.00000000000E+00  0.12525980253E-10  0.17130000000E+03  0.17130000000E+03 0. -1.
       11    1    1    2    0    0  0.37515818396E-01 -0.36492273871E-01  0.21947922519E+01  0.21954162278E+01  0.51109989000E-03 0.  1.
     -623    1    1    2    0    0 -0.59244149770E-02  0.14614661054E-01  0.11447146595E-02  0.17130000073E+03  0.17130000000E+03 0. -1.
      622    1    1    2    0    0 -0.31591403419E-01  0.21877612817E-01  0.18040630008E+01  0.18045830425E+01  0.20000000000E-01 0.  0.
</event>
<event>
 5   0  0.3603037E+08  0.9118800E+02  0.7818608E-02  0.1180000E+00
       11   -1    0    0    0    0  0.00000000000E+00  0.00000000000E+00  0.39999999673E+01  0.40000000000E+01  0.51109989000E-03 0. -1.
     -623   -1    0    0    0    0  0.00000000000E+00  0.00000000000E+00  0.12525980253E-10  0.17130000000E+03  0.17130000000E+03 0.  1.
       11    1    1    2    0    0 -0.34890451683E-03 -0.35665646775E-03  0.72260227946E+00  0.72260263246E+00  0.51109989000E-03 0. -1.
     -623    1    1    2    0    0  0.40068241843E-03 -0.26280230168E-03  0.61404594298E-04  0.17130000000E+03  0.17130000000E+03 0.  1.
      622    1    1    2    0    0 -0.51777901599E-04  0.61945876944E-03  0.32773362833E+01  0.32773973669E+01  0.20000000000E-01 0. -1.
</event>
<event>
 5   0  0.3603037E+08  0.9118800E+02  0.7818608E-02  0.1180000E+00
       11   -1    0    0    0    0  0.00000000000E+00  0.00000000000E+00  0.39999999673E+01  0.40000000000E+01  0.51109989000E-03 0. -1.
     -623   -1    0    0    0    0  0.00000000000E+00  0.00000000000E+00  0.12525980253E-10  0.17130000000E+03  0.17130000000E+03 0.  1.
       11    1    1    2    0    0 -0.17504736605E-02  0.41277035336E-02  0.63572713573E-01  0.63732670009E-01  0.51109989000E-03 0. -1.
     -623    1    1    2    0    0  0.11710777426E-02 -0.48973026839E-02  0.21092569681E-03  0.17130000007E+03  0.17130000000E+03 0.  1.
      622    1    1    2    0    0  0.57939591794E-03  0.76959915037E-03  0.39362163281E+01  0.39362672559E+01  0.20000000000E-01 0. -1.
</event>
<event>
 5   0  0.3603037E+08  0.9118800E+02  0.7818608E-02  0.1180000E+00
       11   -1    0    0    0    0  0.00000000000E+00  0.00000000000E+00  0.39999999673E+01  0.40000000000E+01  0.51109989000E-03 0. -1.
     -623   -1    0    0    0    0  0.00000000000E+00  0.00000000000E+00  0.12525980253E-10  0.17130000000E+03  0.17130000000E+03 0. -1.
       11    1    1    2    0    0 -0.31713849135E-01  0.67389258504E-02  0.24884974654E+01  0.24887087170E+01  0.51109989000E-03 0. -1.
     -623    1    1    2    0    0  0.89800524058E-02  0.18715431321E-01  0.73025374036E-03  0.17130000126E+03  0.17130000000E+03 0. -1.
      622    1    1    2    0    0  0.22733796729E-01 -0.25454357172E-01  0.15107722482E+01  0.15112900237E+01  0.20000000000E-01 0. -1.
</event>
<event>
 5   0  0.3603037E+08  0.9118800E+02  0.7818608E-02  0.1180000E+00
       11   -1    0    0    0    0  0.00000000000E+00  0.00000000000E+00  0.39999999673E+01  0.40000000000E+01  0.51109989000E-03 0.  1.
     -623   -1    0    0    0    0  0.00000000000E+00  0.00000000000E+00  0.12525980253E-10  0.17130000000E+03  0.17130000000E+03 0. -1.
       11    1    1    2    0    0  0.72882371626E-04 -0.17784111643E-02  0.50293250939E-01  0.50327332234E-01  0.51109989000E-03 0.  1.
     -623    1    1    2    0    0  0.93072080429E-04  0.70263636864E-04  0.85059008603E-04  0.17130000000E+03  0.17130000000E+03 0. -1.
      622    1    1    2    0    0 -0.16595445206E-03  0.17081475274E-02  0.39496216574E+01  0.39496726677E+01  0.20000000000E-01 0.  1.
</event>
<event>
 5   0  0.3603037E+08  0.9118800E+02  0.7818608E-02  0.1180000E+00
       11   -1    0    0    0    0  0.00000000000E+00  0.00000000000E+00  0.39999999673E+01  0.40000000000E+01  0.51109989000E-03 0.  1.
     -623   -1    0    0    0    0  0.00000000000E+00  0.00000000000E+00  0.12525980253E-10  0.17130000000E+03  0.17130000000E+03 0.  1.
       11    1    1    2    0    0 -0.24414268777E-03 -0.46624057418E-03  0.44064903664E-01  0.44071010237E-01  0.51109989000E-03 0.  1.
     -623    1    1    2    0    0 -0.93220602729E-03  0.16518928960E-05  0.56836011553E-04  0.17130000000E+03  0.17130000000E+03 0.  1.
      622    1    1    2    0    0  0.11763487151E-02  0.46458868128E-03  0.39558782277E+01  0.39559289872E+01  0.20000000000E-01 0.  1.
</event>
<event>
 5   0  0.3603037E+08  0.9118800E+02  0.7818608E-02  0.1180000E+00
       11   -1    0    0    0    0  0.00000000000E+00  0.00000000000E+00  0.39999999673E+01  0.40000000000E+01  0.51109989000E-03 0.  1.
     -623   -1    0    0    0    0  0.00000000000E+00  0.00000000000E+00  0.12525980253E-10  0.17130000000E+03  0.17130000000E+03 0. -1.
       11    1    1    2    0    0  0.15712415102E-02  0.12646834139E-02  0.28314022944E-01  0.28390374077E-01  0.51109989000E-03 0.  1.
     -623    1    1    2    0    0 -0.39414344523E-03  0.75184786862E-03  0.12736475403E-03  0.17130000000E+03  0.17130000000E+03 0. -1.
      622    1    1    2    0    0 -0.11770980650E-02 -0.20165312825E-02  0.39715585797E+01  0.39716096238E+01  0.20000000000E-01 0.  0.
</event>
<event>
 5   0  0.3603037E+08  0.9118800E+02  0.7818608E-02  0.1180000E+00
       11   -1    0    0    0    0  0.00000000000E+00  0.00000000000E+00  0.39999999673E+01  0.40000000000E+01  0.51109989000E-03 0.  1.
     -623   -1    0    0    0    0  0.00000000000E+00  0.00000000000E+00  0.12525980253E-10  0.17130000000E+03  0.17130000000E+03 0. -1.
       11    1    1    2    0    0  0.15587032536E-03  0.13649519744E-02  0.30927989880E-02  0.34225743883E-02  0.51109989000E-03 0.  1.
     -623    1    1    2    0    0  0.44368088630E-03 -0.59244801848E-03  0.37990754464E-03  0.17130000000E+03  0.17130000000E+03 0. -1.
      622    1    1    2    0    0 -0.59955121166E-03 -0.77250395591E-03  0.39965272608E+01  0.39965774236E+01  0.20000000000E-01 0.  1.
</event>
<event>
 5   0  0.3603037E+08  0.9118800E+02  0.7818608E-02  0.1180000E+00
       11   -1    0    0    0    0  0.00000000000E+00  0.00000000000E+00  0.39999999673E+01  0.40000000000E+01  0.51109989000E-03 0. -1.
     -623   -1    0    0    0    0  0.00000000000E+00  0.00000000000E+00  0.12525980253E-10  0.17130000000E+03  0.17130000000E+03 0. -1.
       11    1    1    2    0    0 -0.47487295088E-02 -0.63045168577E-02  0.79144565589E-01  0.79538800900E-01  0.51109989000E-03 0. -1.
     -623    1    1    2    0    0  0.50959631148E-02  0.93568331595E-02  0.44675294095E-03  0.17130000033E+03  0.17130000000E+03 0. -1.
      622    1    1    2    0    0 -0.34723360608E-03 -0.30523163019E-02  0.39204086488E+01  0.39204608672E+01  0.20000000000E-01 0. -1.
</event>
<event>
 5   0  0.3603037E+08  0.9118800E+02  0.7818608E-02  0.1180000E+00
       11   -1    0    0    0    0  0.00000000000E+00  0.00000000000E+00  0.39999999673E+01  0.40000000000E+01  0.51109989000E-03 0.  1.
     -623   -1    0    0    0    0  0.00000000000E+00  0.00000000000E+00  0.12525980253E-10  0.17130000000E+03  0.17130000000E+03 0.  1.
       11    1    1    2    0    0  0.17632147835E-02 -0.67963728856E-02  0.19806916798E+00  0.19819423841E+00  0.51109989000E-03 0.  1.
     -623    1    1    2    0    0  0.43926517069E-03 -0.15715516876E-03  0.18464256904E-03  0.17130000000E+03  0.17130000000E+03 0.  1.
      622    1    1    2    0    0 -0.22024799541E-02  0.69535280543E-02  0.38017461568E+01  0.38018057609E+01  0.20000000000E-01 0.  1.
</event>
<event>
 5   0  0.3603037E+08  0.9118800E+02  0.7818608E-02  0.1180000E+00
       11   -1    0    0    0    0  0.00000000000E+00  0.00000000000E+00  0.39999999673E+01  0.40000000000E+01  0.51109989000E-03 0.  1.
     -623   -1    0    0    0    0  0.00000000000E+00  0.00000000000E+00  0.12525980253E-10  0.17130000000E+03  0.17130000000E+03 0.  1.
       11    1    1    2    0    0 -0.17641855489E-03 -0.42461711653E-03  0.16924049087E-01  0.16938007049E-01  0.51109989000E-03 0.  1.
     -623    1    1    2    0    0  0.73188530453E-04  0.11157492433E-02  0.64203225648E-04  0.17130000000E+03  0.17130000000E+03 0.  1.
      622    1    1    2    0    0  0.10323002444E-03 -0.69113212678E-03  0.39830117150E+01  0.39830619893E+01  0.20000000000E-01 0.  1.
</event>
<event>
 5   0  0.3603037E+08  0.9118800E+02  0.7818608E-02  0.1180000E+00
       11   -1    0    0    0    0  0.00000000000E+00  0.00000000000E+00  0.39999999673E+01  0.40000000000E+01  0.51109989000E-03 0.  1.
     -623   -1    0    0    0    0  0.00000000000E+00  0.00000000000E+00  0.12525980253E-10  0.17130000000E+03  0.17130000000E+03 0.  1.
       11    1    1    2    0    0 -0.19035904470E-02  0.16059629468E-02  0.25493701888E+00  0.25494969620E+00  0.51109989000E-03 0.  1.
     -623    1    1    2    0    0  0.18998014642E-02  0.27216054737E-02  0.68581433442E-04  0.17130000003E+03  0.17130000000E+03 0.  1.
      622    1    1    2    0    0  0.37889827597E-05 -0.43275684206E-02  0.37449943670E+01  0.37450502716E+01  0.20000000000E-01 0.  1.
</event>
<event>
 5   0  0.3603037E+08  0.9118800E+02  0.7818608E-02  0.1180000E+00
       11   -1    0    0    0    0  0.00000000000E+00  0.00000000000E+00  0.39999999673E+01  0.40000000000E+01  0.51109989000E-03 0.  1.
     -623   -1    0    0    0    0  0.00000000000E+00  0.00000000000E+00  0.12525980253E-10  0.17130000000E+03  0.17130000000E+03 0.  1.
       11    1    1    2    0    0  0.30668570176E-01 -0.19102341853E-01  0.18555526392E+01  0.18559044476E+01  0.51109989000E-03 0.  1.
     -623    1    1    2    0    0 -0.31839643227E-01  0.29804593164E-01  0.47764140435E-03  0.17130000555E+03  0.17130000000E+03 0.  1.
      622    1    1    2    0    0  0.11710730510E-02 -0.10702251312E-01  0.21439696868E+01  0.21440899998E+01  0.20000000000E-01 0. -1.
</event>
<event>
 5   0  0.3603037E+08  0.9118800E+02  0.7818608E-02  0.1180000E+00
       11   -1    0    0    0    0  0.00000000000E+00  0.00000000000E+00  0.39999999673E+01  0.40000000000E+01  0.51109989000E-03 0.  1.
     -623   -1    0    0    0    0  0.00000000000E+00  0.00000000000E+00  0.12525980253E-10  0.17130000000E+03  0.17130000000E+03 0. -1.
       11    1    1    2    0    0  0.20282590731E-01 -0.46480286864E-02  0.11258910173E+01  0.11260834035E+01  0.51109989000E-03 0.  1.
     -623    1    1    2    0    0 -0.15813871602E-03 -0.90400360891E-04  0.33631557598E-03  0.17130000000E+03  0.17130000000E+03 0. -1.
      622    1    1    2    0    0 -0.20124452015E-01  0.47384290473E-02  0.28737726345E+01  0.28739165960E+01  0.20000000000E-01 0.  1.
</event>
<event>
 5   0  0.3603037E+08  0.9118800E+02  0.7818608E-02  0.1180000E+00
       11   -1    0    0    0    0  0.00000000000E+00  0.00000000000E+00  0.39999999673E+01  0.40000000000E+01  0.51109989000E-03 0.  1.
     -623   -1    0    0    0    0  0.00000000000E+00  0.00000000000E+00  0.12525980253E-10  0.17130000000E+03  0.17130000000E+03 0. -1.
       11    1    1    2    0    0  0.28460583703E-02 -0.29448141105E-02  0.98652096474E+00  0.98652959766E+00  0.51109989000E-03 0.  1.
     -623    1    1    2    0    0  0.80636830988E-04  0.14360999235E-03  0.77692991177E-04  0.17130000000E+03  0.17130000000E+03 0. -1.
      622    1    1    2    0    0 -0.29266952013E-02  0.28012041181E-02  0.30134013096E+01  0.30134704022E+01  0.20000000000E-01 0.  1.
</event>
<event>
 5   0  0.3603037E+08  0.9118800E+02  0.7818608E-02  0.1180000E+00
       11   -1    0    0    0    0  0.00000000000E+00  0.00000000000E+00  0.39999999673E+01  0.40000000000E+01  0.51109989000E-03 0. -1.
     -623   -1    0    0    0    0  0.00000000000E+00  0.00000000000E+00  0.12525980253E-10  0.17130000000E+03  0.17130000000E+03 0.  1.
       11    1    1    2    0    0  0.15102185250E-02  0.23467181215E-02  0.21501106221E-01  0.21687476459E-01  0.51109989000E-03 0. -1.
     -623    1    1    2    0    0 -0.14839171371E-02  0.10295783255E-02  0.23805296928E-03  0.17130000001E+03  0.17130000000E+03 0.  1.
      622    1    1    2    0    0 -0.26301387852E-04 -0.33762964470E-02  0.39782608082E+01  0.39783125139E+01  0.20000000000E-01 0. -1.
</event>
<event>
 5   0  0.3603037E+08  0.9118800E+02  0.7818608E-02  0.1180000E+00
       11   -1    0    0    0    0  0.00000000000E+00  0.00000000000E+00  0.39999999673E+01  0.40000000000E+01  0.51109989000E-03 0. -1.
     -623   -1    0    0    0    0  0.00000000000E+00  0.00000000000E+00  0.12525980253E-10  0.17130000000E+03  0.17130000000E+03 0. -1.
       11    1    1    2    0    0  0.32815119236E-02  0.31248398771E-04  0.39802470431E-01  0.39940795815E-01  0.51109989000E-03 0. -1.
     -623    1    1    2    0    0  0.82872646761E-03 -0.55437654088E-02  0.19485911349E-03  0.17130000009E+03  0.17130000000E+03 0. -1.
      622    1    1    2    0    0 -0.41102383912E-02  0.55125170100E-02  0.39600026378E+01  0.39600591124E+01  0.20000000000E-01 0. -1.
</event>
<event>
 5   0  0.3603037E+08  0.9118800E+02  0.7818608E-02  0.1180000E+00
       11   -1    0    0    0    0  0.00000000000E+00  0.00000000000E+00  0.39999999673E+01  0.40000000000E+01  0.51109989000E-03 0.  1.
     -623   -1    0    0    0    0  0.00000000000E+00  0.00000000000E+00  0.12525980253E-10  0.17130000000E+03  0.17130000000E+03 0. -1.
       11    1    1    2    0    0 -0.22351623225E-02  0.21878758824E-01  0.11293011586E+01  0.11295154024E+01  0.51109989000E-03 0.  1.
     -623    1    1    2    0    0  0.70160501708E-03 -0.15629925853E-02  0.35619993184E-03  0.17130000001E+03  0.17130000000E+03 0. -1.
      622    1    1    2    0    0  0.15335573054E-02 -0.20315766239E-01  0.28703426088E+01  0.28704845887E+01  0.20000000000E-01 0.  1.
</event>
<event>
 5   0  0.3603037E+08  0.9118800E+02  0.7818608E-02  0.1180000E+00
       11   -1    0    0    0    0  0.00000000000E+00  0.00000000000E+00  0.39999999673E+01  0.40000000000E+01  0.51109989000E-03 0. -1.
     -623   -1    0    0    0    0  0.00000000000E+00  0.00000000000E+00  0.12525980253E-10  0.17130000000E+03  0.17130000000E+03 0.  1.
       11    1    1    2    0    0 -0.41620240939E-02 -0.26895669146E-02  0.95397733864E-01  0.95527718817E-01  0.51109989000E-03 0. -1.
     -623    1    1    2    0    0  0.19484138636E-03  0.87631463669E-04  0.18405864450E-03  0.17130000000E+03  0.17130000000E+03 0.  1.
      622    1    1    2    0    0  0.39671827076E-02  0.26019354509E-02  0.39044181749E+01  0.39044722810E+01  0.20000000000E-01 0. -1.
</event>
<event>
 5   0  0.3603037E+08  0.9118800E+02  0.7818608E-02  0.1180000E+00
       11   -1    0    0    0    0  0.00000000000E+00  0.00000000000E+00  0.39999999673E+01  0.40000000000E+01  0.51109989000E-03 0.  1.
     -623   -1    0    0    0    0  0.00000000000E+00  0.00000000000E+00  0.12525980253E-10  0.17130000000E+03  0.17130000000E+03 0.  1.
       11    1    1    2    0    0 -0.74808873079E-02  0.10272820845E-02  0.99467275675E+00  0.99470154982E+00  0.51109989000E-03 0.  1.
     -623    1    1    2    0    0  0.30879320390E-04 -0.93038083563E-02  0.11619435314E-03  0.17130000025E+03  0.17130000000E+03 0.  1.
      622    1    1    2    0    0  0.74500079875E-02  0.82765262718E-02  0.30052110163E+01  0.30052981975E+01  0.20000000000E-01 0.  1.
</event>
<event>
 5   0  0.3603037E+08  0.9118800E+02  0.7818608E-02  0.1180000E+00
       11   -1    0    0    0    0  0.00000000000E+00  0.00000000000E+00  0.39999999673E+01  0.40000000000E+01  0.51109989000E-03 0. -1.
     -623   -1    0    0    0    0  0.00000000000E+00  0.00000000000E+00  0.12525980253E-10  0.17130000000E+03  0.17130000000E+03 0. -1.
       11    1    1    2    0    0  0.11180458092E-02 -0.31037611143E-03  0.27249241504E-01  0.27278723255E-01  0.51109989000E-03 0.  1.
     -623    1    1    2    0    0  0.20855715183E-04 -0.25145716765E-04  0.79970198391E-04  0.17130000000E+03  0.17130000000E+03 0. -1.
      622    1    1    2    0    0 -0.11389015244E-02  0.33552182820E-03  0.39726707557E+01  0.39727212767E+01  0.20000000000E-01 0. -1.
</event>
<event>
 5   0  0.3603037E+08  0.9118800E+02  0.7818608E-02  0.1180000E+00
       11   -1    0    0    0    0  0.00000000000E+00  0.00000000000E+00  0.39999999673E+01  0.40000000000E+01  0.51109989000E-03 0. -1.
     -623   -1    0    0    0    0  0.00000000000E+00  0.00000000000E+00  0.12525980253E-10  0.17130000000E+03  0.17130000000E+03 0. -1.
       11    1    1    2    0    0  0.10698160858E-02  0.12686903846E-02  0.37272757554E-01  0.37313184777E-01  0.51109989000E-03 0. -1.
     -623    1    1    2    0    0  0.87622658501E-04 -0.28311956119E-04  0.91228927658E-04  0.17130000000E+03  0.17130000000E+03 0. -1.
      622    1    1    2    0    0 -0.11574387443E-02 -0.12403784285E-02  0.39626359809E+01  0.39626868152E+01  0.20000000000E-01 0. -1.
</event>
<event>
 5   0  0.3603037E+08  0.9118800E+02  0.7818608E-02  0.1180000E+00
       11   -1    0    0    0    0  0.00000000000E+00  0.00000000000E+00  0.39999999673E+01  0.40000000000E+01  0.51109989000E-03 0. -1.
     -623   -1    0    0    0    0  0.00000000000E+00  0.00000000000E+00  0.12525980253E-10  0.17130000000E+03  0.17130000000E+03 0. -1.
       11    1    1    2    0    0  0.80600753173E-02  0.36601528486E-01  0.24737957057E+01  0.24740796454E+01  0.51109989000E-03 0. -1.
     -623    1    1    2    0    0 -0.23248425292E-01 -0.21998738916E-01  0.56345433146E-03  0.17130000299E+03  0.17130000000E+03 0. -1.
      622    1    1    2    0    0  0.15188349975E-01 -0.14602789570E-01  0.15256408073E+01  0.15259173635E+01  0.20000000000E-01 0.  1.
</event>
<event>
 5   0  0.3603037E+08  0.9118800E+02  0.7818608E-02  0.1180000E+00
       11   -1    0    0    0    0  0.00000000000E+00  0.00000000000E+00  0.39999999673E+01  0.40000000000E+01  0.51109989000E-03 0. -1.
     -623   -1    0    0    0    0  0.00000000000E+00  0.00000000000E+00  0.12525980253E-10  0.17130000000E+03  0.17130000000E+03 0. -1.
       11    1    1    2    0    0  0.91928501262E-04  0.86423511632E-03  0.23295896902E-01  0.23317705452E-01  0.51109989000E-03 0. -1.
     -623    1    1    2    0    0 -0.52306092135E-03 -0.75295347376E-03  0.72096805260E-04  0.17130000000E+03  0.17130000000E+03 0. -1.
      622    1    1    2    0    0  0.43113242009E-03 -0.11128164256E-03  0.39766319737E+01  0.39766822921E+01  0.20000000000E-01 0. -1.
</event>
<event>
 5   0  0.3603037E+08  0.9118800E+02  0.7818608E-02  0.1180000E+00
       11   -1    0    0    0    0  0.00000000000E+00  0.00000000000E+00  0.39999999673E+01  0.40000000000E+01  0.51109989000E-03 0.  1.
     -623   -1    0    0    0    0  0.00000000000E+00  0.00000000000E+00  0.12525980253E-10  0.17130000000E+03  0.17130000000E+03 0.  1.
       11    1    1    2    0    0  0.27272783798E-03  0.45067921828E-03  0.11960211095E-01  0.11982710990E-01  0.51109989000E-03 0.  1.
     -623    1    1    2    0    0 -0.14308490799E-02 -0.34293765252E-04  0.72813697513E-04  0.17130000001E+03  0.17130000000E+03 0.  1.
      622    1    1    2    0    0  0.11581212419E-02 -0.41638545303E-03  0.39879669426E+01  0.39880172830E+01  0.20000000000E-01 0.  1.
</event>
<event>
 5   0  0.3603037E+08  0.9118800E+02  0.7818608E-02  0.1180000E+00
       11   -1    0    0    0    0  0.00000000000E+00  0.00000000000E+00  0.39999999673E+01  0.40000000000E+01  0.51109989000E-03 0. -1.
     -623   -1    0    0    0    0  0.00000000000E+00  0.00000000000E+00  0.12525980253E-10  0.17130000000E+03  0.17130000000E+03 0. -1.
       11    1    1    2    0    0  0.44671262589E-03  0.49686545294E-03  0.20570781543E-01  0.20587974704E-01  0.51109989000E-03 0. -1.
     -623    1    1    2    0    0 -0.57960453416E-04  0.69409814677E-04  0.67478836712E-04  0.17130000000E+03  0.17130000000E+03 0. -1.
      622    1    1    2    0    0 -0.38875217247E-03 -0.56627526762E-03  0.39793617070E+01  0.39794120253E+01  0.20000000000E-01 0. -1.
</event>
<event>
 5   0  0.3603037E+08  0.9118800E+02  0.7818608E-02  0.1180000E+00
       11   -1    0    0    0    0  0.00000000000E+00  0.00000000000E+00  0.39999999673E+01  0.40000000000E+01  0.51109989000E-03 0. -1.
     -623   -1    0    0    0    0  0.00000000000E+00  0.00000000000E+00  0.12525980253E-10  0.17130000000E+03  0.17130000000E+03 0. -1.
       11    1    1    2    0    0  0.71601398406E-02  0.66154237608E-02  0.12003855578E+01  0.12004252497E+01  0.51109989000E-03 0. -1.
     -623    1    1    2    0    0  0.15139899380E-03 -0.44074018348E-03  0.12745770872E-03  0.17130000000E+03  0.17130000000E+03 0. -1.
      622    1    1    2    0    0 -0.73115388344E-02 -0.61746835773E-02  0.27994869519E+01  0.27995747497E+01  0.20000000000E-01 0. -1.
</event>
<event>
 5   0  0.3603037E+08  0.9118800E+02  0.7818608E-02  0.1180000E+00
       11   -1    0    0    0    0  0.00000000000E+00  0.00000000000E+00  0.39999999673E+01  0.40000000000E+01  0.51109989000E-03 0.  1.
     -623   -1    0    0    0    0  0.00000000000E+00  0.00000000000E+00  0.12525980253E-10  0.17130000000E+03  0.17130000000E+03 0. -1.
       11    1    1    2    0    0  0.12852334265E-01 -0.55671181436E-02  0.10928417803E+01  0.10929316508E+01  0.51109989000E-03 0.  1.
     -623    1    1    2    0    0 -0.42007006451E-02  0.57031533029E-02  0.17166046990E-03  0.17130000015E+03  0.17130000000E+03 0. -1.
      622    1    1    2    0    0 -0.86516336195E-02 -0.13603515935E-03  0.29069865266E+01  0.29070682027E+01  0.20000000000E-01 0.  1.
</event>
<event>
 5   0  0.3603037E+08  0.9118800E+02  0.7818608E-02  0.1180000E+00
       11   -1    0    0    0    0  0.00000000000E+00  0.00000000000E+00  0.39999999673E+01  0.40000000000E+01  0.51109989000E-03 0.  1.
     -623   -1    0    0    0    0  0.00000000000E+00  0.00000000000E+00  0.12525980253E-10  0.17130000000E+03  0.17130000000E+03 0. -1.
       11    1    1    2    0    0 -0.11045037432E-03 -0.35201762177E-02  0.11223497334E+01  0.11223553756E+01  0.51109989000E-03 0.  1.
     -623    1    1    2    0    0 -0.34260279627E-05  0.97797647660E-04  0.77149142477E-04  0.17130000000E+03  0.17130000000E+03 0. -1.
      622    1    1    2    0    0  0.11387640228E-03  0.34223785701E-02  0.28775730848E+01  0.28776446243E+01  0.20000000000E-01 0. -1.
</event>
<event>
 5   0  0.3603037E+08  0.9118800E+02  0.7818608E-02  0.1180000E+00
       11   -1    0    0    0    0  0.00000000000E+00  0.00000000000E+00  0.39999999673E+01  0.40000000000E+01  0.51109989000E-03 0. -1.
     -623   -1    0    0    0    0  0.00000000000E+00  0.00000000000E+00  0.12525980253E-10  0.17130000000E+03  0.17130000000E+03 0.  1.
       11    1    1    2    0    0  0.17308345351E-02  0.12961415220E-01  0.31930244195E+01  0.31930512365E+01  0.51109989000E-03 0. -1.
     -623    1    1    2    0    0 -0.45232999199E-02 -0.14545639204E-02  0.36164116031E-03  0.17130000007E+03  0.17130000000E+03 0.  1.
      622    1    1    2    0    0  0.27924653847E-02 -0.11506851300E-01  0.80661390669E+00  0.80694869723E+00  0.20000000000E-01 0. -1.
</event>
<event>
 5   0  0.3603037E+08  0.9118800E+02  0.7818608E-02  0.1180000E+00
       11   -1    0    0    0    0  0.00000000000E+00  0.00000000000E+00  0.39999999673E+01  0.40000000000E+01  0.51109989000E-03 0. -1.
     -623   -1    0    0    0    0  0.00000000000E+00  0.00000000000E+00  0.12525980253E-10  0.17130000000E+03  0.17130000000E+03 0. -1.
       11    1    1    2    0    0  0.17897665134E-02  0.44625259596E-02  0.95557048110E-01  0.95679298012E-01  0.51109989000E-03 0. -1.
     -623    1    1    2    0    0  0.74883967567E-03 -0.30385493811E-03  0.17648503881E-03  0.17130000000E+03  0.17130000000E+03 0. -1.
      622    1    1    2    0    0 -0.25386061891E-02 -0.41586710215E-02  0.39042664342E+01  0.39043207000E+01  0.20000000000E-01 0. -1.
</event>
<event>
 5   0  0.3603037E+08  0.9118800E+02  0.7818608E-02  0.1180000E+00
       11   -1    0    0    0    0  0.00000000000E+00  0.00000000000E+00  0.39999999673E+01  0.40000000000E+01  0.51109989000E-03 0. -1.
     -623   -1    0    0    0    0  0.00000000000E+00  0.00000000000E+00  0.12525980253E-10  0.17130000000E+03  0.17130000000E+03 0.  1.
       11    1    1    2    0    0 -0.11661784870E-02 -0.25953103310E-03  0.28956280189E-01  0.28985422385E-01  0.51109989000E-03 0. -1.
     -623    1    1    2    0    0 -0.29735805033E-04 -0.29172217143E-03  0.79693453350E-04  0.17130000000E+03  0.17130000000E+03 0.  1.
      622    1    1    2    0    0  0.11959142920E-02  0.55125320453E-03  0.39709639937E+01  0.39710145773E+01  0.20000000000E-01 0. -1.
</event>
<event>
 5   0  0.3603037E+08  0.9118800E+02  0.7818608E-02  0.1180000E+00
       11   -1    0    0    0    0  0.00000000000E+00  0.00000000000E+00  0.39999999673E+01  0.40000000000E+01  0.51109989000E-03 0. -1.
     -623   -1    0    0    0    0  0.00000000000E+00  0.00000000000E+00  0.12525980253E-10  0.17130000000E+03  0.17130000000E+03 0.  1.
       11    1    1    2    0    0  0.62998676357E-03 -0.18375503138E-02  0.95656836613E-01  0.95677923724E-01  0.51109989000E-03 0. -1.
     -623    1    1    2    0    0  0.27930030983E-02  0.25719783251E-02  0.73891779130E-04  0.17130000004E+03  0.17130000000E+03 0.  1.
      622    1    1    2    0    0 -0.34229898618E-02 -0.73442801125E-03  0.39042692390E+01  0.39043220342E+01  0.20000000000E-01 0. -1.
</event>
<event>
 5   0  0.3603037E+08  0.9118800E+02  0.7818608E-02  0.1180000E+00
       11   -1    0    0    0    0  0.00000000000E+00  0.00000000000E+00  0.39999999673E+01  0.40000000000E+01  0.51109989000E-03 0.  1.
     -623   -1    0    0    0    0  0.00000000000E+00  0.00000000000E+00  0.12525980253E-10  0.17130000000E+03  0.17130000000E+03 0. -1.
       11    1    1    2    0    0 -0.27263874215E-02  0.24038912864E-03  0.17007609248E+00  0.17009888133E+00  0.51109989000E-03 0.  1.
     -623    1    1    2    0    0 -0.14722561017E-03  0.13088450397E-03  0.76073429144E-04  0.17130000000E+03  0.17130000000E+03 0. -1.
      622    1    1    2    0    0  0.28736130317E-02 -0.37127363261E-03  0.38298478015E+01  0.38299011185E+01  0.20000000000E-01 0.  1.
</event>
<event>
 5   0  0.3603037E+08  0.9118800E+02  0.7818608E-02  0.1180000E+00
       11   -1    0    0    0    0  0.00000000000E+00  0.00000000000E+00  0.39999999673E+01  0.40000000000E+01  0.51109989000E-03 0. -1.
     -623   -1    0    0    0    0  0.00000000000E+00  0.00000000000E+00  0.12525980253E-10  0.17130000000E+03  0.17130000000E+03 0. -1.
       11    1    1    2    0    0 -0.27755074879E-03 -0.11088562146E-02  0.84668167846E-02  0.85589021166E-02  0.51109989000E-03 0.  1.
     -623    1    1    2    0    0  0.46825250945E-04  0.45006567648E-03  0.14222191528E-03  0.17130000000E+03  0.17130000000E+03 0. -1.
      622    1    1    2    0    0  0.23072549784E-03  0.65879053816E-03  0.39913909287E+01  0.39914410972E+01  0.20000000000E-01 0. -1.
</event>
<event>
 5   0  0.3603037E+08  0.9118800E+02  0.7818608E-02  0.1180000E+00
       11   -1    0    0    0    0  0.00000000000E+00  0.00000000000E+00  0.39999999673E+01  0.40000000000E+01  0.51109989000E-03 0. -1.
     -623   -1    0    0    0    0  0.00000000000E+00  0.00000000000E+00  0.12525980253E-10  0.17130000000E+03  0.17130000000E+03 0.  1.
       11    1    1    2    0    0 -0.47443545625E-03 -0.20491714275E-03  0.67533467868E-02  0.67923482575E-02  0.51109989000E-03 0. -1.
     -623    1    1    2    0    0  0.13414646151E-02  0.64794739801E-03  0.89179399710E-04  0.17130000001E+03  0.17130000000E+03 0.  1.
      622    1    1    2    0    0 -0.86702915882E-03 -0.44303025527E-03  0.39931574412E+01  0.39932076452E+01  0.20000000000E-01 0. -1.
</event>
<event>
 5   0  0.3603037E+08  0.9118800E+02  0.7818608E-02  0.1180000E+00
       11   -1    0    0    0    0  0.00000000000E+00  0.00000000000E+00  0.39999999673E+01  0.40000000000E+01  0.51109989000E-03 0.  1.
     -623   -1    0    0    0    0  0.00000000000E+00  0.00000000000E+00  0.12525980253E-10  0.17130000000E+03  0.17130000000E+03 0.  1.
       11    1    1    2    0    0  0.45346222218E-02 -0.31116109096E-02  0.30872700081E+00  0.30877640320E+00  0.51109989000E-03 0.  1.
     -623    1    1    2    0    0  0.36670268513E-02  0.16807832838E-02  0.11298947367E-03  0.17130000005E+03  0.17130000000E+03 0.  1.
      622    1    1    2    0    0 -0.82016490730E-02  0.14308276258E-02  0.36911599771E+01  0.36912235493E+01  0.20000000000E-01 0.  1.
</event>
<event>
 5   0  0.3603037E+08  0.9118800E+02  0.7818608E-02  0.1180000E+00
       11   -1    0    0    0    0  0.00000000000E+00  0.00000000000E+00  0.39999999673E+01  0.40000000000E+01  0.51109989000E-03 0.  1.
     -623   -1    0    0    0    0  0.00000000000E+00  0.00000000000E+00  0.12525980253E-10  0.17130000000E+03  0.17130000000E+03 0. -1.
       11    1    1    2    0    0 -0.29629798800E-02  0.31924742834E-02  0.11654278992E+01  0.11654361503E+01  0.51109989000E-03 0.  1.
     -623    1    1    2    0    0 -0.37637830588E-04 -0.10833222743E-03  0.82043191712E-04  0.17130000000E+03  0.17130000000E+03 0. -1.
      622    1    1    2    0    0  0.30006177106E-02 -0.30841420560E-02  0.28344900250E+01  0.28345638496E+01  0.20000000000E-01 0.  1.
</event>
<event>
 5   0  0.3603037E+08  0.9118800E+02  0.7818608E-02  0.1180000E+00
       11   -1    0    0    0    0  0.00000000000E+00  0.00000000000E+00  0.39999999673E+01  0.40000000000E+01  0.51109989000E-03 0.  1.
     -623   -1    0    0    0    0  0.00000000000E+00  0.00000000000E+00  0.12525980253E-10  0.17130000000E+03  0.17130000000E+03 0.  1.
       11    1    1    2    0    0  0.89484847282E-04  0.22460359258E-03  0.68128441301E-01  0.68130787388E-01  0.51109989000E-03 0.  1.
     -623    1    1    2    0    0  0.22061529491E-03  0.73031251571E-04  0.53203827075E-04  0.17130000000E+03  0.17130000000E+03 0.  1.
      622    1    1    2    0    0 -0.31010014219E-03 -0.29763484415E-03  0.39318183222E+01  0.39318692124E+01  0.20000000000E-01 0.  1.
</event>
<event>
 5   0  0.3603037E+08  0.9118800E+02  0.7818608E-02  0.1180000E+00
       11   -1    0    0    0    0  0.00000000000E+00  0.00000000000E+00  0.39999999673E+01  0.40000000000E+01  0.51109989000E-03 0. -1.
     -623   -1    0    0    0    0  0.00000000000E+00  0.00000000000E+00  0.12525980253E-10  0.17130000000E+03  0.17130000000E+03 0.  1.
       11    1    1    2    0    0 -0.53908719558E-02  0.44010502942E-02  0.30362576157E+00  0.30370593516E+00  0.51109989000E-03 0. -1.
     -623    1    1    2    0    0 -0.49243423173E-03  0.10475855223E-03  0.14167898090E-03  0.17130000000E+03  0.17130000000E+03 0.  1.
      622    1    1    2    0    0  0.58833061875E-02 -0.45058088464E-02  0.36962325268E+01  0.36962940640E+01  0.20000000000E-01 0.  0.
</event>
<event>
 5   0  0.3603037E+08  0.9118800E+02  0.7818608E-02  0.1180000E+00
       11   -1    0    0    0    0  0.00000000000E+00  0.00000000000E+00  0.39999999673E+01  0.40000000000E+01  0.51109989000E-03 0. -1.
     -623   -1    0    0    0    0  0.00000000000E+00  0.00000000000E+00  0.12525980253E-10  0.17130000000E+03  0.17130000000E+03 0. -1.
       11    1    1    2    0    0  0.67942247838E-03  0.61237714719E-03  0.29848482891E-01  0.29866867486E-01  0.51109989000E-03 0. -1.
     -623    1    1    2    0    0 -0.76311319925E-03 -0.12103020251E-02  0.68780316311E-04  0.17130000001E+03  0.17130000000E+03 0. -1.
      622    1    1    2    0    0  0.83690720868E-04  0.59792487795E-03  0.39700827042E+01  0.39701331265E+01  0.20000000000E-01 0. -1.
</event>
<event>
 5   0  0.3603037E+08  0.9118800E+02  0.7818608E-02  0.1180000E+00
       11   -1    0    0    0    0  0.00000000000E+00  0.00000000000E+00  0.39999999673E+01  0.40000000000E+01  0.51109989000E-03 0. -1.
     -623   -1    0    0    0    0  0.00000000000E+00  0.00000000000E+00  0.12525980253E-10  0.17130000000E+03  0.17130000000E+03 0.  1.
       11    1    1    2    0    0  0.69015955825E-03 -0.69610817063E-03  0.22932811127E-02  0.25458292985E-02  0.51109989000E-03 0. -1.
     -623    1    1    2    0    0  0.37486964652E-03  0.17821937353E-02  0.30284707233E-03  0.17130000001E+03  0.17130000000E+03 0.  1.
      622    1    1    2    0    0 -0.10650292048E-02 -0.10860855647E-02  0.39974038392E+01  0.39974541608E+01  0.20000000000E-01 0. -1.
</event>
<event>
 5   0  0.3603037E+08  0.9118800E+02  0.7818608E-02  0.1180000E+00
       11   -1    0    0    0    0  0.00000000000E+00  0.00000000000E+00  0.39999999673E+01  0.40000000000E+01  0.51109989000E-03 0.  1.
     -623   -1    0    0    0    0  0.00000000000E+00  0.00000000000E+00  0.12525980253E-10  0.17130000000E+03  0.17130000000E+03 0. -1.
       11    1    1    2    0    0  0.41354410279E-02  0.22088574026E-02  0.46962827240E+00  0.46965195239E+00  0.51109989000E-03 0.  1.
     -623    1    1    2    0    0  0.14354939751E-02 -0.28226320460E-02  0.84777666323E-04  0.17130000003E+03  0.17130000000E+03 0. -1.
      622    1    1    2    0    0 -0.55709350030E-02  0.61377464342E-03  0.35302869173E+01  0.35303480183E+01  0.20000000000E-01 0.  1.
</event>
<event>
 5   0  0.3603037E+08  0.9118800E+02  0.7818608E-02  0.1180000E+00
       11   -1    0    0    0    0  0.00000000000E+00  0.00000000000E+00  0.39999999673E+01  0.40000000000E+01  0.51109989000E-03 0. -1.
     -623   -1    0    0    0    0  0.00000000000E+00  0.00000000000E+00  0.12525980253E-10  0.17130000000E+03  0.17130000000E+03 0. -1.
       11    1    1    2    0    0 -0.17009238485E-02 -0.33595754469E-02  0.58249309905E-01  0.58373137779E-01  0.51109989000E-03 0. -1.
     -623    1    1    2    0    0  0.26477293142E-02  0.43562040905E-03  0.17575538332E-03  0.17130000002E+03  0.17130000000E+03 0. -1.
      622    1    1    2    0    0 -0.94680546571E-03  0.29239550378E-02  0.39415749021E+01  0.39416268411E+01  0.20000000000E-01 0. -1.
</event>
<event>
 5   0  0.3603037E+08  0.9118800E+02  0.7818608E-02  0.1180000E+00
       11   -1    0    0    0    0  0.00000000000E+00  0.00000000000E+00  0.39999999673E+01  0.40000000000E+01  0.51109989000E-03 0. -1.
     -623   -1    0    0    0    0  0.00000000000E+00  0.00000000000E+00  0.12525980253E-10  0.17130000000E+03  0.17130000000E+03 0. -1.
       11    1    1    2    0    0 -0.25596110845E-03  0.65055227278E-03  0.22939843521E+00  0.22940006982E+00  0.51109989000E-03 0. -1.
     -623    1    1    2    0    0 -0.69264658976E-04 -0.96523589973E-04  0.54699078283E-04  0.17130000000E+03  0.17130000000E+03 0. -1.
      622    1    1    2    0    0  0.32522576743E-03 -0.55402868281E-03  0.37705468331E+01  0.37705999301E+01  0.20000000000E-01 0. -1.
</event>
<event>
 5   0  0.3603037E+08  0.9118800E+02  0.7818608E-02  0.1180000E+00
       11   -1    0    0    0    0  0.00000000000E+00  0.00000000000E+00  0.39999999673E+01  0.40000000000E+01  0.51109989000E-03 0.  1.
     -623   -1    0    0    0    0  0.00000000000E+00  0.00000000000E+00  0.12525980253E-10  0.17130000000E+03  0.17130000000E+03 0. -1.
       11    1    1    2    0    0 -0.34319814939E-02 -0.77148633823E-02  0.15434392968E+01  0.15434624782E+01  0.51109989000E-03 0.  1.
     -623    1    1    2    0    0 -0.14599957118E-03 -0.35320771700E-03  0.12042138235E-03  0.17130000000E+03  0.17130000000E+03 0. -1.
      622    1    1    2    0    0  0.35779810651E-02  0.80680710993E-02  0.24564402492E+01  0.24565375213E+01  0.20000000000E-01 0.  0.
</event>
<event>
 5   0  0.3603037E+08  0.9118800E+02  0.7818608E-02  0.1180000E+00
       11   -1    0    0    0    0  0.00000000000E+00  0.00000000000E+00  0.39999999673E+01  0.40000000000E+01  0.51109989000E-03 0.  1.
     -623   -1    0    0    0    0  0.00000000000E+00  0.00000000000E+00  0.12525980253E-10  0.17130000000E+03  0.17130000000E+03 0.  1.
       11    1    1    2    0    0 -0.82154971543E-03  0.27529272803E-03  0.15025809517E+00  0.15026146251E+00  0.51109989000E-03 0.  1.
     -623    1    1    2    0    0 -0.21831230716E-03  0.34453222063E-03  0.55477460021E-04  0.17130000000E+03  0.17130000000E+03 0.  1.
      622    1    1    2    0    0  0.10398620226E-02 -0.61982494866E-03  0.38496863947E+01  0.38497385370E+01  0.20000000000E-01 0.  1.
</event>
<event>
 5   0  0.3603037E+08  0.9118800E+02  0.7818608E-02  0.1180000E+00
       11   -1    0    0    0    0  0.00000000000E+00  0.00000000000E+00  0.39999999673E+01  0.40000000000E+01  0.51109989000E-03 0.  1.
     -623   -1    0    0    0    0  0.00000000000E+00  0.00000000000E+00  0.12525980253E-10  0.17130000000E+03  0.17130000000E+03 0.  1.
       11    1    1    2    0    0  0.32159686480E-02  0.18895022763E-02  0.69327011818E-01  0.69429161461E-01  0.51109989000E-03 0.  1.
     -623    1    1    2    0    0 -0.17794589276E-02 -0.17508204765E-02  0.15328373647E-03  0.17130000002E+03  0.17130000000E+03 0.  1.
      622    1    1    2    0    0 -0.14365097203E-02 -0.13868179975E-03  0.39305196718E+01  0.39305708203E+01  0.20000000000E-01 0.  1.
</event>
<event>
 5   0  0.3603037E+08  0.9118800E+02  0.7818608E-02  0.1180000E+00
       11   -1    0    0    0    0  0.00000000000E+00  0.00000000000E+00  0.39999999673E+01  0.40000000000E+01  0.51109989000E-03 0.  1.
     -623   -1    0    0    0    0  0.00000000000E+00  0.00000000000E+00  0.12525980253E-10  0.17130000000E+03  0.17130000000E+03 0. -1.
       11    1    1    2    0    0 -0.23538380390E-03  0.81449604980E-04  0.44596803902E-01  0.44600428021E-01  0.51109989000E-03 0.  1.
     -623    1    1    2    0    0 -0.82529262921E-04  0.16384568904E-04  0.54169608799E-04  0.17130000000E+03  0.17130000000E+03 0. -1.
      622    1    1    2    0    0  0.31791306682E-03 -0.97834173884E-04  0.39553489938E+01  0.39553995719E+01  0.20000000000E-01 0.  1.
</event>
<event>
 5   0  0.3603037E+08  0.9118800E+02  0.7818608E-02  0.1180000E+00
       11   -1    0    0    0    0  0.00000000000E+00  0.00000000000E+00  0.39999999673E+01  0.40000000000E+01  0.51109989000E-03 0. -1.
     -623   -1    0    0    0    0  0.00000000000E+00  0.00000000000E+00  0.12525980253E-10  0.17130000000E+03  0.17130000000E+03 0.  1.
       11    1    1    2    0    0 -0.12729114161E-02 -0.30899561641E-02  0.17992706310E+01  0.17992738071E+01  0.51109989000E-03 0. -1.
     -623    1    1    2    0    0 -0.13090724862E-03  0.78114748052E-03  0.95685200971E-04  0.17130000000E+03  0.17130000000E+03 0.  1.
      622    1    1    2    0    0  0.14038186647E-02  0.23088086835E-02  0.22006336511E+01  0.22007261910E+01  0.20000000000E-01 0. -1.
</event>
<event>
 5   0  0.3603037E+08  0.9118800E+02  0.7818608E-02  0.1180000E+00
       11   -1    0    0    0    0  0.00000000000E+00  0.00000000000E+00  0.39999999673E+01  0.40000000000E+01  0.51109989000E-03 0.  1.
     -623   -1    0    0    0    0  0.00000000000E+00  0.00000000000E+00  0.12525980253E-10  0.17130000000E+03  0.17130000000E+03 0. -1.
       11    1    1    2    0    0  0.18674839445E-02 -0.50181323344E-02  0.48714091745E-01  0.49010132677E-01  0.51109989000E-03 0. -1.
     -623    1    1    2    0    0 -0.15243342418E-02  0.39255318686E-02  0.34684693207E-03  0.17130000005E+03  0.17130000000E+03 0. -1.
      622    1    1    2    0    0 -0.34314970268E-03  0.10926004658E-02  0.39509390287E+01  0.39509898152E+01  0.20000000000E-01 0.  1.
</event>
<event>
 5   0  0.3603037E+08  0.9118800E+02  0.7818608E-02  0.1180000E+00
       11   -1    0    0    0    0  0.00000000000E+00  0.00000000000E+00  0.39999999673E+01  0.40000000000E+01  0.51109989000E-03 0. -1.
     -623   -1    0    0    0    0  0.00000000000E+00  0.00000000000E+00  0.12525980253E-10  0.17130000000E+03  0.17130000000E+03 0. -1.
       11    1    1    2    0    0  0.57481061079E-02 -0.12027962335E-02  0.19736165166E+01  0.19736253198E+01  0.51109989000E-03 0. -1.
     -623    1    1    2    0    0  0.22313844656E-03  0.37088606088E-04  0.11660534201E-03  0.17130000000E+03  0.17130000000E+03 0. -1.
      622    1    1    2    0    0 -0.59712445545E-02  0.11657076274E-02  0.20262668455E+01  0.20263746800E+01  0.20000000000E-01 0.  0.
</event>
<event>
 5   0  0.3603037E+08  0.9118800E+02  0.7818608E-02  0.1180000E+00
       11   -1    0    0    0    0  0.00000000000E+00  0.00000000000E+00  0.39999999673E+01  0.40000000000E+01  0.51109989000E-03 0. -1.
     -623   -1    0    0    0    0  0.00000000000E+00  0.00000000000E+00  0.12525980253E-10  0.17130000000E+03  0.17130000000E+03 0.  1.
       11    1    1    2    0    0  0.24291258710E-04  0.10057012727E-01  0.15502411616E+01  0.15502738676E+01  0.51109989000E-03 0. -1.
     -623    1    1    2    0    0  0.41590396389E-03  0.32139680642E-03  0.13634207452E-03  0.17130000000E+03  0.17130000000E+03 0.  1.
      622    1    1    2    0    0 -0.44019522260E-03 -0.10378409533E-01  0.24496224637E+01  0.24497261316E+01  0.20000000000E-01 0. -1.
</event>
<event>
 5   0  0.3603037E+08  0.9118800E+02  0.7818608E-02  0.1180000E+00
       11   -1    0    0    0    0  0.00000000000E+00  0.00000000000E+00  0.39999999673E+01  0.40000000000E+01  0.51109989000E-03 0.  1.
     -623   -1    0    0    0    0  0.00000000000E+00  0.00000000000E+00  0.12525980253E-10  0.17130000000E+03  0.17130000000E+03 0.  1.
       11    1    1    2    0    0  0.30516556056E-02 -0.30575588714E-04  0.10554748121E+01  0.10554793478E+01  0.51109989000E-03 0.  1.
     -623    1    1    2    0    0  0.12375954371E-02 -0.20634104720E-02  0.76312287633E-04  0.17130000002E+03  0.17130000000E+03 0.  1.
      622    1    1    2    0    0 -0.42892510426E-02  0.20939860607E-02  0.29444488430E+01  0.29445206353E+01  0.20000000000E-01 0.  1.
</event>
<event>
 5   0  0.3603037E+08  0.9118800E+02  0.7818608E-02  0.1180000E+00
       11   -1    0    0    0    0  0.00000000000E+00  0.00000000000E+00  0.39999999673E+01  0.40000000000E+01  0.51109989000E-03 0. -1.
     -623   -1    0    0    0    0  0.00000000000E+00  0.00000000000E+00  0.12525980253E-10  0.17130000000E+03  0.17130000000E+03 0. -1.
       11    1    1    2    0    0  0.17356649080E-02 -0.22184304872E-02  0.52556937935E+00  0.52557717578E+00  0.51109989000E-03 0. -1.
     -623    1    1    2    0    0  0.12624391441E-03  0.83742649771E-04  0.66482547679E-04  0.17130000000E+03  0.17130000000E+03 0. -1.
      622    1    1    2    0    0 -0.18619088224E-02  0.21346878374E-02  0.34743641055E+01  0.34744228241E+01  0.20000000000E-01 0. -1.
</event>
<event>
 5   0  0.3603037E+08  0.9118800E+02  0.7818608E-02  0.1180000E+00
       11   -1    0    0    0    0  0.00000000000E+00  0.00000000000E+00  0.39999999673E+01  0.40000000000E+01  0.51109989000E-03 0. -1.
     -623   -1    0    0    0    0  0.00000000000E+00  0.00000000000E+00  0.12525980253E-10  0.17130000000E+03  0.17130000000E+03 0. -1.
       11    1    1    2    0    0  0.32599630703E-02 -0.13206090525E-01  0.48915753570E+00  0.48934689550E+00  0.51109989000E-03 0. -1.
     -623    1    1    2    0    0  0.11179660957E-01  0.61173422724E-02  0.28362472110E-03  0.17130000047E+03  0.17130000000E+03 0. -1.
      622    1    1    2    0    0 -0.14439624027E-01  0.70887482528E-02  0.35105588069E+01  0.35106526302E+01  0.20000000000E-01 0. -1.
</event>
<event>
 5   0  0.3603037E+08  0.9118800E+02  0.7818608E-02  0.1180000E+00
       11   -1    0    0    0    0  0.00000000000E+00  0.00000000000E+00  0.39999999673E+01  0.40000000000E+01  0.51109989000E-03 0.  1.
     -623   -1    0    0    0    0  0.00000000000E+00  0.00000000000E+00  0.12525980253E-10  0.17130000000E+03  0.17130000000E+03 0.  1.
       11    1    1    2    0    0 -0.31145512123E-03 -0.12499984036E-02  0.12157758637E+00  0.12158548528E+00  0.51109989000E-03 0.  1.
     -623    1    1    2    0    0  0.18735807465E-02  0.17153106752E-02  0.59795427082E-04  0.17130000002E+03  0.17130000000E+03 0.  1.
      622    1    1    2    0    0 -0.15621256253E-02 -0.46531227161E-03  0.38783625856E+01  0.38784144959E+01  0.20000000000E-01 0.  1.
</event>
<event>
 5   0  0.3603037E+08  0.9118800E+02  0.7818608E-02  0.1180000E+00
       11   -1    0    0    0    0  0.00000000000E+00  0.00000000000E+00  0.39999999673E+01  0.40000000000E+01  0.51109989000E-03 0. -1.
     -623   -1    0    0    0    0  0.00000000000E+00  0.00000000000E+00  0.12525980253E-10  0.17130000000E+03  0.17130000000E+03 0.  1.
       11    1    1    2    0    0 -0.51006030352E-02 -0.51013289611E-02  0.80770799624E+00  0.80774037172E+00  0.51109989000E-03 0. -1.
     -623    1    1    2    0    0  0.25317860481E-02  0.25530387963E-03  0.99725865484E-04  0.17130000002E+03  0.17130000000E+03 0.  1.
      622    1    1    2    0    0  0.25688169871E-02  0.48460250815E-02  0.31921922453E+01  0.31922596093E+01  0.20000000000E-01 0. -1.
</event>
<event>
 5   0  0.3603037E+08  0.9118800E+02  0.7818608E-02  0.1180000E+00
       11   -1    0    0    0    0  0.00000000000E+00  0.00000000000E+00  0.39999999673E+01  0.40000000000E+01  0.51109989000E-03 0.  1.
     -623   -1    0    0    0    0  0.00000000000E+00  0.00000000000E+00  0.12525980253E-10  0.17130000000E+03  0.17130000000E+03 0. -1.
       11    1    1    2    0    0  0.16042236769E-01 -0.87476879151E-02  0.21088012486E+01  0.21088804714E+01  0.51109989000E-03 0.  1.
     -623    1    1    2    0    0 -0.31836692488E-03  0.40539079747E-03  0.26872702167E-03  0.17130000000E+03  0.17130000000E+03 0. -1.
      622    1    1    2    0    0 -0.15723869844E-01  0.83422971176E-02  0.18909299918E+01  0.18911195276E+01  0.20000000000E-01 0.  1.
</event>
<event>
 5   0  0.3603037E+08  0.9118800E+02  0.7818608E-02  0.1180000E+00
       11   -1    0    0    0    0  0.00000000000E+00  0.00000000000E+00  0.39999999673E+01  0.40000000000E+01  0.51109989000E-03 0. -1.
     -623   -1    0    0    0    0  0.00000000000E+00  0.00000000000E+00  0.12525980253E-10  0.17130000000E+03  0.17130000000E+03 0. -1.
       11    1    1    2    0    0 -0.68672468329E-02 -0.21921892811E-01  0.17078688795E+01  0.17080234481E+01  0.51109989000E-03 0. -1.
     -623    1    1    2    0    0  0.75240408004E-02  0.13707552008E-01  0.25732708733E-03  0.17130000071E+03  0.17130000000E+03 0. -1.
      622    1    1    2    0    0 -0.65679396748E-03  0.82143408033E-02  0.22918737607E+01  0.22919758380E+01  0.20000000000E-01 0.  0.
</event>
<event>
 5   0  0.3603037E+08  0.9118800E+02  0.7818608E-02  0.1180000E+00
       11   -1    0    0    0    0  0.00000000000E+00  0.00000000000E+00  0.39999999673E+01  0.40000000000E+01  0.51109989000E-03 0. -1.
     -623   -1    0    0    0    0  0.00000000000E+00  0.00000000000E+00  0.12525980253E-10  0.17130000000E+03  0.17130000000E+03 0.  1.
       11    1    1    2    0    0 -0.58230168986E-04  0.34453667280E-02  0.12804064157E+00  0.12808802075E+00  0.51109989000E-03 0. -1.
     -623    1    1    2    0    0  0.11370622904E-02 -0.53064680837E-03  0.10025296935E-03  0.17130000000E+03  0.17130000000E+03 0.  1.
      622    1    1    2    0    0 -0.10788321215E-02 -0.29147199197E-02  0.38718590728E+01  0.38719119746E+01  0.20000000000E-01 0. -1.
</event>
<event>
 5   0  0.3603037E+08  0.9118800E+02  0.7818608E-02  0.1180000E+00
       11   -1    0    0    0    0  0.00000000000E+00  0.00000000000E+00  0.39999999673E+01  0.40000000000E+01  0.51109989000E-03 0.  1.
     -623   -1    0    0    0    0  0.00000000000E+00  0.00000000000E+00  0.12525980253E-10  0.17130000000E+03  0.17130000000E+03 0.  1.
       11    1    1    2    0    0 -0.34889432267E-01 -0.20782046849E-01  0.23247626889E+01  0.23251174136E+01  0.51109989000E-03 0.  1.
     -623    1    1    2    0    0  0.20442078765E-02  0.30962994960E-02  0.88966175338E-03  0.17130000004E+03  0.17130000000E+03 0.  1.
      622    1    1    2    0    0  0.32845224390E-01  0.17685747353E-01  0.16743476167E+01  0.16748825439E+01  0.20000000000E-01 0.  0.
</event>
<event>
 5   0  0.3603037E+08  0.9118800E+02  0.7818608E-02  0.1180000E+00
       11   -1    0    0    0    0  0.00000000000E+00  0.00000000000E+00  0.39999999673E+01  0.40000000000E+01  0.51109989000E-03 0. -1.
     -623   -1    0    0    0    0  0.00000000000E+00  0.00000000000E+00  0.12525980253E-10  0.17130000000E+03  0.17130000000E+03 0.  1.
       11    1    1    2    0    0 -0.31657915579E-02 -0.48997296669E-03  0.87804832481E+00  0.87805431736E+00  0.51109989000E-03 0. -1.
     -623    1    1    2    0    0  0.53184118607E-02 -0.15085017123E-02  0.71494208206E-04  0.17130000009E+03  0.17130000000E+03 0.  1.
      622    1    1    2    0    0 -0.21526203028E-02  0.19984746790E-02  0.31218801483E+01  0.31219455934E+01  0.20000000000E-01 0. -1.
</event>
<event>
 5   0  0.3603037E+08  0.9118800E+02  0.7818608E-02  0.1180000E+00
       11   -1    0    0    0    0  0.00000000000E+00  0.00000000000E+00  0.39999999673E+01  0.40000000000E+01  0.51109989000E-03 0. -1.
     -623   -1    0    0    0    0  0.00000000000E+00  0.00000000000E+00  0.12525980253E-10  0.17130000000E+03  0.17130000000E+03 0. -1.
       11    1    1    2    0    0 -0.27875676043E-02 -0.40113333611E-02  0.11718750584E+00  0.11729038356E+00  0.51109989000E-03 0. -1.
     -623    1    1    2    0    0  0.20146380189E-03  0.54544054100E-03  0.15676508704E-03  0.17130000000E+03  0.17130000000E+03 0. -1.
      622    1    1    2    0    0  0.25861038024E-02  0.34658928201E-02  0.38826556964E+01  0.38827096154E+01  0.20000000000E-01 0. -1.
</event>
<event>
 5   0  0.3603037E+08  0.9118800E+02  0.7818608E-02  0.1180000E+00
       11   -1    0    0    0    0  0.00000000000E+00  0.00000000000E+00  0.39999999673E+01  0.40000000000E+01  0.51109989000E-03 0. -1.
     -623   -1    0    0    0    0  0.00000000000E+00  0.00000000000E+00  0.12525980253E-10  0.17130000000E+03  0.17130000000E+03 0. -1.
       11    1    1    2    0    0 -0.88347997724E-02  0.17157725641E-01  0.21891919235E+01  0.21892770452E+01  0.51109989000E-03 0. -1.
     -623    1    1    2    0    0  0.41870202651E-03  0.17853218689E-05  0.29642087616E-03  0.17130000000E+03  0.17130000000E+03 0. -1.
      622    1    1    2    0    0  0.84160977459E-02 -0.17159510963E-01  0.18105116230E+01  0.18107229541E+01  0.20000000000E-01 0.  0.
</event>
<event>
 5   0  0.3603037E+08  0.9118800E+02  0.7818608E-02  0.1180000E+00
       11   -1    0    0    0    0  0.00000000000E+00  0.00000000000E+00  0.39999999673E+01  0.40000000000E+01  0.51109989000E-03 0. -1.
     -623   -1    0    0    0    0  0.00000000000E+00  0.00000000000E+00  0.12525980253E-10  0.17130000000E+03  0.17130000000E+03 0.  1.
       11    1    1    2    0    0  0.48343576562E-02  0.14687959544E-01  0.22921601750E+01  0.22922123890E+01  0.51109989000E-03 0. -1.
     -623    1    1    2    0    0 -0.13326852774E-01 -0.10891645650E-01  0.19549797537E-03  0.17130000086E+03  0.17130000000E+03 0.  1.
      622    1    1    2    0    0  0.84924951175E-02 -0.37963138935E-02  0.17076442944E+01  0.17077867462E+01  0.20000000000E-01 0.  1.
</event>
<event>
 5   0  0.3603037E+08  0.9118800E+02  0.7818608E-02  0.1180000E+00
       11   -1    0    0    0    0  0.00000000000E+00  0.00000000000E+00  0.39999999673E+01  0.40000000000E+01  0.51109989000E-03 0. -1.
     -623   -1    0    0    0    0  0.00000000000E+00  0.00000000000E+00  0.12525980253E-10  0.17130000000E+03  0.17130000000E+03 0.  1.
       11    1    1    2    0    0  0.16970969301E-01 -0.30282585641E-01  0.32517891847E+01  0.32519745097E+01  0.51109989000E-03 0. -1.
     -623    1    1    2    0    0 -0.13242120917E-01  0.98578128164E-02  0.74180938709E-03  0.17130000080E+03  0.17130000000E+03 0.  1.
      622    1    1    2    0    0 -0.37288483840E-02  0.20424772824E-01  0.74746897324E+00  0.74802469319E+00  0.20000000000E-01 0.  0.
</event>
<event>
 5   0  0.3603037E+08  0.9118800E+02  0.7818608E-02  0.1180000E+00
       11   -1    0    0    0    0  0.00000000000E+00  0.00000000000E+00  0.39999999673E+01  0.40000000000E+01  0.51109989000E-03 0.  1.
     -623   -1    0    0    0    0  0.00000000000E+00  0.00000000000E+00  0.12525980253E-10  0.17130000000E+03  0.17130000000E+03 0.  1.
       11    1    1    2    0    0 -0.21136594729E-02 -0.45891967331E-02  0.30714335594E-01  0.31131333321E-01  0.51109989000E-03 0.  1.
     -623    1    1    2    0    0  0.10090932083E-02 -0.94826609937E-03  0.47138060626E-03  0.17130000001E+03  0.17130000000E+03 0.  1.
      622    1    1    2    0    0  0.11045662646E-02  0.55374628325E-02  0.39688142512E+01  0.39688686604E+01  0.20000000000E-01 0.  1.
</event>
<event>
 5   0  0.3603037E+08  0.9118800E+02  0.7818608E-02  0.1180000E+00
       11   -1    0    0    0    0  0.00000000000E+00  0.00000000000E+00  0.39999999673E+01  0.40000000000E+01  0.51109989000E-03 0. -1.
     -623   -1    0    0    0    0  0.00000000000E+00  0.00000000000E+00  0.12525980253E-10  0.17130000000E+03  0.17130000000E+03 0.  1.
       11    1    1    2    0    0  0.17161890533E-02  0.26552992892E-02  0.19903677928E+00  0.19906254456E+00  0.51109989000E-03 0. -1.
     -623    1    1    2    0    0 -0.52710720060E-03  0.66439814892E-03  0.79989433763E-04  0.17130000000E+03  0.17130000000E+03 0.  1.
      622    1    1    2    0    0 -0.11890818527E-02 -0.33196974381E-02  0.38008831986E+01  0.38009374533E+01  0.20000000000E-01 0. -1.
</event>
<event>
 5   0  0.3603037E+08  0.9118800E+02  0.7818608E-02  0.1180000E+00
       11   -1    0    0    0    0  0.00000000000E+00  0.00000000000E+00  0.39999999673E+01  0.40000000000E+01  0.51109989000E-03 0.  1.
     -623   -1    0    0    0    0  0.00000000000E+00  0.00000000000E+00  0.12525980253E-10  0.17130000000E+03  0.17130000000E+03 0.  1.
       11    1    1    2    0    0 -0.74093503576E-03  0.43624777270E-02  0.92350785728E-01  0.92458147515E-01  0.51109989000E-03 0.  1.
     -623    1    1    2    0    0 -0.45445431124E-03 -0.49967652061E-03  0.16060612279E-03  0.17130000000E+03  0.17130000000E+03 0.  1.
      622    1    1    2    0    0  0.11953893470E-02 -0.38628012064E-02  0.39074885755E+01  0.39075418511E+01  0.20000000000E-01 0.  1.
</event>
<event>
 5   0  0.3603037E+08  0.9118800E+02  0.7818608E-02  0.1180000E+00
       11   -1    0    0    0    0  0.00000000000E+00  0.00000000000E+00  0.39999999673E+01  0.40000000000E+01  0.51109989000E-03 0.  1.
     -623   -1    0    0    0    0  0.00000000000E+00  0.00000000000E+00  0.12525980253E-10  0.17130000000E+03  0.17130000000E+03 0. -1.
       11    1    1    2    0    0  0.47001753453E-02 -0.43339422225E-02  0.20936219973E+00  0.20946041775E+00  0.51109989000E-03 0.  1.
     -623    1    1    2    0    0  0.11567400635E-03  0.11653941051E-03  0.15635432156E-03  0.17130000000E+03  0.17130000000E+03 0. -1.
      622    1    1    2    0    0 -0.48158493517E-02  0.42174028120E-02  0.37904814133E+01  0.37905395821E+01  0.20000000000E-01 0.  1.
</event>
<event>
 5   0  0.3603037E+08  0.9118800E+02  0.7818608E-02  0.1180000E+00
       11   -1    0    0    0    0  0.00000000000E+00  0.00000000000E+00  0.39999999673E+01  0.40000000000E+01  0.51109989000E-03 0. -1.
     -623   -1    0    0    0    0  0.00000000000E+00  0.00000000000E+00  0.12525980253E-10  0.17130000000E+03  0.17130000000E+03 0. -1.
       11    1    1    2    0    0  0.37777096773E-02 -0.55929098770E-03  0.76417901077E+00  0.76418872383E+00  0.51109989000E-03 0. -1.
     -623    1    1    2    0    0 -0.24809495064E-03  0.22341995552E-03  0.73432163463E-04  0.17130000000E+03  0.17130000000E+03 0. -1.
      622    1    1    2    0    0 -0.35296147267E-02  0.33587103218E-03  0.32357475244E+01  0.32358112758E+01  0.20000000000E-01 0. -1.
</event>
<event>
 5   0  0.3603037E+08  0.9118800E+02  0.7818608E-02  0.1180000E+00
       11   -1    0    0    0    0  0.00000000000E+00  0.00000000000E+00  0.39999999673E+01  0.40000000000E+01  0.51109989000E-03 0.  1.
     -623   -1    0    0    0    0  0.00000000000E+00  0.00000000000E+00  0.12525980253E-10  0.17130000000E+03  0.17130000000E+03 0. -1.
       11    1    1    2    0    0  0.67229496193E-03 -0.11089283225E-02  0.30413243516E+00  0.30413562935E+00  0.51109989000E-03 0.  1.
     -623    1    1    2    0    0  0.27001506124E-03 -0.54283065493E-03  0.57766804578E-04  0.17130000000E+03  0.17130000000E+03 0. -1.
      622    1    1    2    0    0 -0.94231002317E-03  0.16517589774E-02  0.36958097654E+01  0.36958643696E+01  0.20000000000E-01 0.  1.
</event>
<event>
 5   0  0.3603037E+08  0.9118800E+02  0.7818608E-02  0.1180000E+00
       11   -1    0    0    0    0  0.00000000000E+00  0.00000000000E+00  0.39999999673E+01  0.40000000000E+01  0.51109989000E-03 0.  1.
     -623   -1    0    0    0    0  0.00000000000E+00  0.00000000000E+00  0.12525980253E-10  0.17130000000E+03  0.17130000000E+03 0. -1.
       11    1    1    2    0    0 -0.15680532084E-01 -0.93908408737E-02  0.24701295220E+01  0.24701971953E+01  0.51109989000E-03 0.  1.
     -623    1    1    2    0    0  0.12097608648E-01  0.13683907019E-02  0.22404829520E-03  0.17130000043E+03  0.17130000000E+03 0. -1.
      622    1    1    2    0    0  0.35829234365E-02  0.80224501718E-02  0.15296463971E+01  0.15298023719E+01  0.20000000000E-01 0.  0.
</event>
<event>
 5   0  0.3603037E+08  0.9118800E+02  0.7818608E-02  0.1180000E+00
       11   -1    0    0    0    0  0.00000000000E+00  0.00000000000E+00  0.39999999673E+01  0.40000000000E+01  0.51109989000E-03 0. -1.
     -623   -1    0    0    0    0  0.00000000000E+00  0.00000000000E+00  0.12525980253E-10  0.17130000000E+03  0.17130000000E+03 0. -1.
       11    1    1    2    0    0  0.43244082438E-02 -0.37560360803E-02  0.17027060455E+01  0.17027157564E+01  0.51109989000E-03 0. -1.
     -623    1    1    2    0    0 -0.69834205076E-02 -0.40844724197E-02  0.11184934475E-03  0.17130000019E+03  0.17130000000E+03 0. -1.
      622    1    1    2    0    0  0.26590122638E-02  0.78405085000E-02  0.22971820725E+01  0.22972840526E+01  0.20000000000E-01 0. -1.
</event>
<event>
 5   0  0.3603037E+08  0.9118800E+02  0.7818608E-02  0.1180000E+00
       11   -1    0    0    0    0  0.00000000000E+00  0.00000000000E+00  0.39999999673E+01  0.40000000000E+01  0.51109989000E-03 0. -1.
     -623   -1    0    0    0    0  0.00000000000E+00  0.00000000000E+00  0.12525980253E-10  0.17130000000E+03  0.17130000000E+03 0. -1.
       11    1    1    2    0    0 -0.96590234789E-03 -0.30051949587E-02  0.19113478647E+00  0.19116153375E+00  0.51109989000E-03 0. -1.
     -623    1    1    2    0    0 -0.37720512761E-03 -0.85100889102E-04  0.80715385159E-04  0.17130000000E+03  0.17130000000E+03 0. -1.
      622    1    1    2    0    0  0.13431074755E-02  0.30902958478E-02  0.38087844655E+01  0.38088384658E+01  0.20000000000E-01 0. -1.
</event>
<event>
 5   0  0.3603037E+08  0.9118800E+02  0.7818608E-02  0.1180000E+00
       11   -1    0    0    0    0  0.00000000000E+00  0.00000000000E+00  0.39999999673E+01  0.40000000000E+01  0.51109989000E-03 0.  1.
     -623   -1    0    0    0    0  0.00000000000E+00  0.00000000000E+00  0.12525980253E-10  0.17130000000E+03  0.17130000000E+03 0. -1.
       11    1    1    2    0    0  0.18732107451E-01  0.46275289160E-01  0.22108673457E+01  0.22114309792E+01  0.51109989000E-03 0.  1.
     -623    1    1    2    0    0  0.68395860476E-03 -0.36067023518E-02  0.12899573906E-02  0.17130000004E+03  0.17130000000E+03 0. -1.
      622    1    1    2    0    0 -0.19416066056E-01 -0.42668586808E-01  0.17878426643E+01  0.17885689766E+01  0.20000000000E-01 0. -1.
</event>
<event>
 5   0  0.3603037E+08  0.9118800E+02  0.7818608E-02  0.1180000E+00
       11   -1    0    0    0    0  0.00000000000E+00  0.00000000000E+00  0.39999999673E+01  0.40000000000E+01  0.51109989000E-03 0.  1.
     -623   -1    0    0    0    0  0.00000000000E+00  0.00000000000E+00  0.12525980253E-10  0.17130000000E+03  0.17130000000E+03 0.  1.
       11    1    1    2    0    0  0.10334182590E-02 -0.79334322727E-03  0.90329168604E-01  0.90340009245E-01  0.51109989000E-03 0.  1.
     -623    1    1    2    0    0 -0.16405034837E-04  0.23167918680E-03  0.62136472005E-04  0.17130000000E+03  0.17130000000E+03 0.  1.
      622    1    1    2    0    0 -0.10170132242E-02  0.56166404047E-03  0.39096086623E+01  0.39096599906E+01  0.20000000000E-01 0.  1.
</event>
<event>
 5   0  0.3603037E+08  0.9118800E+02  0.7818608E-02  0.1180000E+00
       11   -1    0    0    0    0  0.00000000000E+00  0.00000000000E+00  0.39999999673E+01  0.40000000000E+01  0.51109989000E-03 0. -1.
     -623   -1    0    0    0    0  0.00000000000E+00  0.00000000000E+00  0.12525980253E-10  0.17130000000E+03  0.17130000000E+03 0. -1.
       11    1    1    2    0    0  0.24707786750E-02  0.37672626603E-02  0.12098263687E+00  0.12106757064E+00  0.51109989000E-03 0. -1.
     -623    1    1    2    0    0 -0.10985443981E-02  0.10748323391E-02  0.13973398527E-03  0.17130000001E+03  0.17130000000E+03 0. -1.
      622    1    1    2    0    0 -0.13722342769E-02 -0.48420949994E-02  0.38788775965E+01  0.38789324224E+01  0.20000000000E-01 0. -1.
</event>
<event>
 5   0  0.3603037E+08  0.9118800E+02  0.7818608E-02  0.1180000E+00
       11   -1    0    0    0    0  0.00000000000E+00  0.00000000000E+00  0.39999999673E+01  0.40000000000E+01  0.51109989000E-03 0. -1.
     -623   -1    0    0    0    0  0.00000000000E+00  0.00000000000E+00  0.12525980253E-10  0.17130000000E+03  0.17130000000E+03 0. -1.
       11    1    1    2    0    0  0.80255060495E-02 -0.32152093001E-01  0.25441740308E+01  0.25443898927E+01  0.51109989000E-03 0. -1.
     -623    1    1    2    0    0 -0.20064301636E-01  0.24429447188E-01  0.42643161914E-03  0.17130000292E+03  0.17130000000E+03 0. -1.
      622    1    1    2    0    0  0.12038795586E-01  0.77226458130E-02  0.14553995050E+01  0.14556071898E+01  0.20000000000E-01 0. -1.
</event>
<event>
 5   0  0.3603037E+08  0.9118800E+02  0.7818608E-02  0.1180000E+00
       11   -1    0    0    0    0  0.00000000000E+00  0.00000000000E+00  0.39999999673E+01  0.40000000000E+01  0.51109989000E-03 0.  1.
     -623   -1    0    0    0    0  0.00000000000E+00  0.00000000000E+00  0.12525980253E-10  0.17130000000E+03  0.17130000000E+03 0.  1.
       11    1    1    2    0    0 -0.78621500211E-02 -0.19297714400E-02  0.15317642689E+01  0.15317857468E+01  0.51109989000E-03 0.  1.
     -623    1    1    2    0    0 -0.51384792195E-03 -0.62567637941E-04  0.11749447307E-03  0.17130000000E+03  0.17130000000E+03 0.  1.
      622    1    1    2    0    0  0.83759979431E-02  0.19923390779E-02  0.24681182040E+01  0.24682142524E+01  0.20000000000E-01 0.  1.
</event>
<event>
 5   0  0.3603037E+08  0.9118800E+02  0.7818608E-02  0.1180000E+00
       11   -1    0    0    0    0  0.00000000000E+00  0.00000000000E+00  0.39999999673E+01  0.40000000000E+01  0.51109989000E-03 0.  1.
     -623   -1    0    0    0    0  0.00000000000E+00  0.00000000000E+00  0.12525980253E-10  0.17130000000E+03  0.17130000000E+03 0. -1.
       11    1    1    2    0    0 -0.31273429175E-02  0.24788157362E-02  0.83875484047E+00  0.83876448926E+00  0.51109989000E-03 0.  1.
     -623    1    1    2    0    0  0.27830145875E-04  0.27171192757E-03  0.75599558337E-04  0.17130000000E+03  0.17130000000E+03 0. -1.
      622    1    1    2    0    0  0.30995127716E-02 -0.27505276638E-02  0.31611695273E+01  0.31612355105E+01  0.20000000000E-01 0.  1.
</event>
<event>
 5   0  0.3603037E+08  0.9118800E+02  0.7818608E-02  0.1180000E+00
       11   -1    0    0    0    0  0.00000000000E+00  0.00000000000E+00  0.39999999673E+01  0.40000000000E+01  0.51109989000E-03 0. -1.
     -623   -1    0    0    0    0  0.00000000000E+00  0.00000000000E+00  0.12525980253E-10  0.17130000000E+03  0.17130000000E+03 0. -1.
       11    1    1    2    0    0 -0.12118297632E-01  0.10630974383E-01  0.12033972042E+01  0.12035052817E+01  0.51109989000E-03 0. -1.
     -623    1    1    2    0    0  0.54228228272E-03  0.64501092745E-03  0.22626040891E-03  0.17130000000E+03  0.17130000000E+03 0. -1.
      622    1    1    2    0    0  0.11576015349E-01 -0.11275985310E-01  0.27963765027E+01  0.27964947160E+01  0.20000000000E-01 0. -1.
</event>
<event>
 5   0  0.3603037E+08  0.9118800E+02  0.7818608E-02  0.1180000E+00
       11   -1    0    0    0    0  0.00000000000E+00  0.00000000000E+00  0.39999999673E+01  0.40000000000E+01  0.51109989000E-03 0.  1.
     -623   -1    0    0    0    0  0.00000000000E+00  0.00000000000E+00  0.12525980253E-10  0.17130000000E+03  0.17130000000E+03 0.  1.
       11    1    1    2    0    0 -0.43400720654E-02  0.21985580741E-02  0.22280879744E+00  0.22286249421E+00  0.51109989000E-03 0.  1.
     -623    1    1    2    0    0  0.26143214491E-03 -0.52864656160E-03  0.10918697876E-03  0.17130000000E+03  0.17130000000E+03 0.  1.
      622    1    1    2    0    0  0.40786399205E-02 -0.16699115125E-02  0.37770819829E+01  0.37771375047E+01  0.20000000000E-01 0.  1.
</event>
<event>
 5   0  0.3603037E+08  0.9118800E+02  0.7818608E-02  0.1180000E+00
       11   -1    0    0    0    0  0.00000000000E+00  0.00000000000E+00  0.39999999673E+01  0.40000000000E+01  0.51109989000E-03 0.  1.
     -623   -1    0    0    0    0  0.00000000000E+00  0.00000000000E+00  0.12525980253E-10  0.17130000000E+03  0.17130000000E+03 0. -1.
       11    1    1    2    0    0 -0.17670656477E-02  0.13685631229E-03  0.97996920541E-01  0.98014279093E-01  0.51109989000E-03 0.  1.
     -623    1    1    2    0    0  0.46242259808E-04  0.74793189321E-04  0.68967436274E-04  0.17130000000E+03  0.17130000000E+03 0. -1.
      622    1    1    2    0    0  0.17208233879E-02 -0.21164950161E-03  0.39019340794E+01  0.39019857209E+01  0.20000000000E-01 0.  1.
</event>
<event>
 5   0  0.3603037E+08  0.9118800E+02  0.7818608E-02  0.1180000E+00
       11   -1    0    0    0    0  0.00000000000E+00  0.00000000000E+00  0.39999999673E+01  0.40000000000E+01  0.51109989000E-03 0.  1.
     -623   -1    0    0    0    0  0.00000000000E+00  0.00000000000E+00  0.12525980253E-10  0.17130000000E+03  0.17130000000E+03 0.  1.
       11    1    1    2    0    0 -0.87456520048E-02  0.55339473488E-03  0.61494236487E+00  0.61500501299E+00  0.51109989000E-03 0.  1.
     -623    1    1    2    0    0  0.33962781442E-05  0.36661250991E-03  0.13311506103E-03  0.17130000000E+03  0.17130000000E+03 0.  1.
      622    1    1    2    0    0  0.87422557266E-02 -0.92000724479E-03  0.33849244874E+01  0.33849949866E+01  0.20000000000E-01 0. -1.
</event>
<event>
 5   0  0.3603037E+08  0.9118800E+02  0.7818608E-02  0.1180000E+00
       11   -1    0    0    0    0  0.00000000000E+00  0.00000000000E+00  0.39999999673E+01  0.40000000000E+01  0.51109989000E-03 0.  1.
     -623   -1    0    0    0    0  0.00000000000E+00  0.00000000000E+00  0.12525980253E-10  0.17130000000E+03  0.17130000000E+03 0.  1.
       11    1    1    2    0    0 -0.39948151961E-03 -0.52308531383E-03  0.69740698757E-01  0.69745677188E-01  0.51109989000E-03 0.  1.
     -623    1    1    2    0    0 -0.11475192570E-03  0.52280042276E-03  0.55867900012E-04  0.17130000000E+03  0.17130000000E+03 0.  1.
      622    1    1    2    0    0  0.51423344532E-03  0.28489106986E-06  0.39302034007E+01  0.39302543220E+01  0.20000000000E-01 0.  1.
</event>
<event>
 5   0  0.3603037E+08  0.9118800E+02  0.7818608E-02  0.1180000E+00
       11   -1    0    0    0    0  0.00000000000E+00  0.00000000000E+00  0.39999999673E+01  0.40000000000E+01  0.51109989000E-03 0.  1.
     -623   -1    0    0    0    0  0.00000000000E+00  0.00000000000E+00  0.12525980253E-10  0.17130000000E+03  0.17130000000E+03 0. -1.
       11    1    1    2    0    0 -0.38316254478E-04 -0.47747938615E-03  0.66659964532E-02  0.67026998954E-02  0.51109989000E-03 0.  1.
     -623    1    1    2    0    0  0.13979601803E-02  0.66992951627E-03  0.86998184446E-04  0.17130000001E+03  0.17130000000E+03 0. -1.
      622    1    1    2    0    0 -0.13596439258E-02 -0.19245013012E-03  0.39932469727E+01  0.39932972931E+01  0.20000000000E-01 0.  1.
</event>
<event>
 5   0  0.3603037E+08  0.9118800E+02  0.7818608E-02  0.1180000E+00
       11   -1    0    0    0    0  0.00000000000E+00  0.00000000000E+00  0.39999999673E+01  0.40000000000E+01  0.51109989000E-03 0. -1.
     -623   -1    0    0    0    0  0.00000000000E+00  0.00000000000E+00  0.12525980253E-10  0.17130000000E+03  0.17130000000E+03 0.  1.
       11    1    1    2    0    0 -0.91710657870E-02  0.31898578672E-04  0.10672306767E+01  0.10672702038E+01  0.51109989000E-03 0. -1.
     -623    1    1    2    0    0 -0.27114573702E-03  0.13227460922E-02  0.12320981979E-03  0.17130000001E+03  0.17130000000E+03 0.  1.
      622    1    1    2    0    0  0.94422115240E-02 -0.13546446709E-02  0.29326460809E+01  0.29327297908E+01  0.20000000000E-01 0. -1.
</event>
<event>
 5   0  0.3603037E+08  0.9118800E+02  0.7818608E-02  0.1180000E+00
       11   -1    0    0    0    0  0.00000000000E+00  0.00000000000E+00  0.39999999673E+01  0.40000000000E+01  0.51109989000E-03 0. -1.
     -623   -1    0    0    0    0  0.00000000000E+00  0.00000000000E+00  0.12525980253E-10  0.17130000000E+03  0.17130000000E+03 0.  1.
       11    1    1    2    0    0  0.55071308537E-02 -0.14776638495E-02  0.55332093823E+00  0.55335055244E+00  0.51109989000E-03 0. -1.
     -623    1    1    2    0    0 -0.45412667194E-03  0.18750397462E-02  0.91347298303E-04  0.17130000001E+03  0.17130000000E+03 0.  1.
      622    1    1    2    0    0 -0.50530041818E-02 -0.39737589668E-03  0.34465876818E+01  0.34466494367E+01  0.20000000000E-01 0. -1.
</event>
<event>
 5   0  0.3603037E+08  0.9118800E+02  0.7818608E-02  0.1180000E+00
       11   -1    0    0    0    0  0.00000000000E+00  0.00000000000E+00  0.39999999673E+01  0.40000000000E+01  0.51109989000E-03 0. -1.
     -623   -1    0    0    0    0  0.00000000000E+00  0.00000000000E+00  0.12525980253E-10  0.17130000000E+03  0.17130000000E+03 0. -1.
       11    1    1    2    0    0 -0.11154594948E-03 -0.17922424184E-02  0.96447515143E-01  0.96465584405E-01  0.51109989000E-03 0. -1.
     -623    1    1    2    0    0 -0.93047936544E-03 -0.58954749758E-03  0.70141864326E-04  0.17130000000E+03  0.17130000000E+03 0. -1.
      622    1    1    2    0    0  0.10420253149E-02  0.23817899159E-02  0.39034823104E+01  0.39035344120E+01  0.20000000000E-01 0. -1.
</event>
<event>
 5   0  0.3603037E+08  0.9118800E+02  0.7818608E-02  0.1180000E+00
       11   -1    0    0    0    0  0.00000000000E+00  0.00000000000E+00  0.39999999673E+01  0.40000000000E+01  0.51109989000E-03 0. -1.
     -623   -1    0    0    0    0  0.00000000000E+00  0.00000000000E+00  0.12525980253E-10  0.17130000000E+03  0.17130000000E+03 0. -1.
       11    1    1    2    0    0 -0.94983279772E-03 -0.34806238189E-03  0.76681768533E+00  0.76681852292E+00  0.51109989000E-03 0. -1.
     -623    1    1    2    0    0  0.78025260392E-04  0.38749662460E-03  0.62782361473E-04  0.17130000000E+03  0.17130000000E+03 0. -1.
      622    1    1    2    0    0  0.87180753733E-03 -0.39434242711E-04  0.32331194997E+01  0.32331814766E+01  0.20000000000E-01 0. -1.
</event>
<event>
 5   0  0.3603037E+08  0.9118800E+02  0.7818608E-02  0.1180000E+00
       11   -1    0    0    0    0  0.00000000000E+00  0.00000000000E+00  0.39999999673E+01  0.40000000000E+01  0.51109989000E-03 0.  1.
     -623   -1    0    0    0    0  0.00000000000E+00  0.00000000000E+00  0.12525980253E-10  0.17130000000E+03  0.17130000000E+03 0. -1.
       11    1    1    2    0    0 -0.34675021481E-04 -0.79351476126E-02  0.28537601037E+00  0.28548677077E+00  0.51109989000E-03 0.  1.
     -623    1    1    2    0    0  0.42172406949E-03  0.21549553825E-03  0.17261368547E-03  0.17130000000E+03  0.17130000000E+03 0. -1.
      622    1    1    2    0    0 -0.38704904801E-03  0.77196520743E-02  0.37144513433E+01  0.37145132285E+01  0.20000000000E-01 0.  0.
</event>
<event>
 5   0  0.3603037E+08  0.9118800E+02  0.7818608E-02  0.1180000E+00
       11   -1    0    0    0    0  0.00000000000E+00  0.00000000000E+00  0.39999999673E+01  0.40000000000E+01  0.51109989000E-03 0. -1.
     -623   -1    0    0    0    0  0.00000000000E+00  0.00000000000E+00  0.12525980253E-10  0.17130000000E+03  0.17130000000E+03 0. -1.
       11    1    1    2    0    0 -0.74543503562E-03  0.67506469427E-03  0.58169151908E-01  0.58180089731E-01  0.51109989000E-03 0. -1.
     -623    1    1    2    0    0  0.12122620530E-02  0.83934004555E-03  0.61968407918E-04  0.17130000001E+03  0.17130000000E+03 0. -1.
      622    1    1    2    0    0 -0.46682701742E-03 -0.15144047398E-02  0.39417688470E+01  0.39418199039E+01  0.20000000000E-01 0. -1.
</event>
<event>
 5   0  0.3603037E+08  0.9118800E+02  0.7818608E-02  0.1180000E+00
       11   -1    0    0    0    0  0.00000000000E+00  0.00000000000E+00  0.39999999673E+01  0.40000000000E+01  0.51109989000E-03 0. -1.
     -623   -1    0    0    0    0  0.00000000000E+00  0.00000000000E+00  0.12525980253E-10  0.17130000000E+03  0.17130000000E+03 0. -1.
       11    1    1    2    0    0  0.34356009677E-02 -0.37658379807E-02  0.39370292814E+00  0.39373625911E+00  0.51109989000E-03 0. -1.
     -623    1    1    2    0    0 -0.33345624186E-02 -0.17386058290E-02  0.93001475495E-04  0.17130000004E+03  0.17130000000E+03 0. -1.
      622    1    1    2    0    0 -0.10103854912E-03  0.55044438097E-02  0.36062040377E+01  0.36062636996E+01  0.20000000000E-01 0. -1.
</event>
<event>
 5   0  0.3603037E+08  0.9118800E+02  0.7818608E-02  0.1180000E+00
       11   -1    0    0    0    0  0.00000000000E+00  0.00000000000E+00  0.39999999673E+01  0.40000000000E+01  0.51109989000E-03 0.  1.
     -623   -1    0    0    0    0  0.00000000000E+00  0.00000000000E+00  0.12525980253E-10  0.17130000000E+03  0.17130000000E+03 0.  1.
       11    1    1    2    0    0 -0.35328342998E-02  0.11673392504E-02  0.24829218785E-01  0.25111649197E-01  0.51109989000E-03 0.  1.
     -623    1    1    2    0    0 -0.12006545577E-02  0.49899992442E-03  0.33588698628E-03  0.17130000001E+03  0.17130000000E+03 0.  1.
      622    1    1    2    0    0  0.47334888574E-02 -0.16663391748E-02  0.39748348616E+01  0.39748883455E+01  0.20000000000E-01 0.  0.
</event>
<event>
 5   0  0.3603037E+08  0.9118800E+02  0.7818608E-02  0.1180000E+00
       11   -1    0    0    0    0  0.00000000000E+00  0.00000000000E+00  0.39999999673E+01  0.40000000000E+01  0.51109989000E-03 0.  1.
     -623   -1    0    0    0    0  0.00000000000E+00  0.00000000000E+00  0.12525980253E-10  0.17130000000E+03  0.17130000000E+03 0.  1.
       11    1    1    2    0    0  0.46397693184E-02 -0.74080070225E-02  0.14621507000E+01  0.14621769171E+01  0.51109989000E-03 0.  1.
     -623    1    1    2    0    0 -0.11370856817E-02  0.21616090763E-02  0.11285112387E-03  0.17130000002E+03  0.17130000000E+03 0.  1.
      622    1    1    2    0    0 -0.35026836368E-02  0.52463979462E-02  0.25377364162E+01  0.25378230655E+01  0.20000000000E-01 0.  0.
</event>
<event>
 5   0  0.3603037E+08  0.9118800E+02  0.7818608E-02  0.1180000E+00
       11   -1    0    0    0    0  0.00000000000E+00  0.00000000000E+00  0.39999999673E+01  0.40000000000E+01  0.51109989000E-03 0.  1.
     -623   -1    0    0    0    0  0.00000000000E+00  0.00000000000E+00  0.12525980253E-10  0.17130000000E+03  0.17130000000E+03 0. -1.
       11    1    1    2    0    0  0.10830641665E-01  0.17566758602E-02  0.11426554223E+01  0.11427082147E+01  0.51109989000E-03 0.  1.
     -623    1    1    2    0    0 -0.41374824919E-02 -0.58549605569E-04  0.13115117453E-03  0.17130000005E+03  0.17130000000E+03 0. -1.
      622    1    1    2    0    0 -0.66931591736E-02 -0.16981262547E-02  0.28572133939E+01  0.28572917352E+01  0.20000000000E-01 0.  0.
</event>
<event>
 5   0  0.3603037E+08  0.9118800E+02  0.7818608E-02  0.1180000E+00
       11   -1    0    0    0    0  0.00000000000E+00  0.00000000000E+00  0.39999999673E+01  0.40000000000E+01  0.51109989000E-03 0. -1.
     -623   -1    0    0    0    0  0.00000000000E+00  0.00000000000E+00  0.12525980253E-10  0.17130000000E+03  0.17130000000E+03 0.  1.
       11    1    1    2    0    0 -0.11052559412E-02  0.78369452322E-06  0.19759535093E-01  0.19797020968E-01  0.51109989000E-03 0. -1.
     -623    1    1    2    0    0  0.16862120436E-03  0.73495856070E-05  0.87812567009E-04  0.17130000000E+03  0.17130000000E+03 0.  1.
      622    1    1    2    0    0  0.93663473682E-03 -0.81332801303E-05  0.39801526197E+01  0.39802029789E+01  0.20000000000E-01 0. -1.
</event>
<event>
 5   0  0.3603037E+08  0.9118800E+02  0.7818608E-02  0.1180000E+00
       11   -1    0    0    0    0  0.00000000000E+00  0.00000000000E+00  0.39999999673E+01  0.40000000000E+01  0.51109989000E-03 0.  1.
     -623   -1    0    0    0    0  0.00000000000E+00  0.00000000000E+00  0.12525980253E-10  0.17130000000E+03  0.17130000000E+03 0. -1.
       11    1    1    2    0    0  0.25444722776E-02  0.33961787930E-02  0.10585684484E+00  0.10594310355E+00  0.51109989000E-03 0.  1.
     -623    1    1    2    0    0 -0.42858148566E-02 -0.57361379723E-02  0.13882884430E-03  0.17130000015E+03  0.17130000000E+03 0. -1.
      622    1    1    2    0    0  0.17413425790E-02  0.23399591793E-02  0.38940042937E+01  0.38940567467E+01  0.20000000000E-01 0.  1.
</event>
<event>
 5   0  0.3603037E+08  0.9118800E+02  0.7818608E-02  0.1180000E+00
       11   -1    0    0    0    0  0.00000000000E+00  0.00000000000E+00  0.39999999673E+01  0.40000000000E+01  0.51109989000E-03 0. -1.
     -623   -1    0    0    0    0  0.00000000000E+00  0.00000000000E+00  0.12525980253E-10  0.17130000000E+03  0.17130000000E+03 0. -1.
       11    1    1    2    0    0  0.12787496376E-01  0.76049860682E-02  0.38240236776E-01  0.41035750343E-01  0.51109989000E-03 0. -1.
     -623    1    1    2    0    0 -0.10616229816E-01  0.77430227437E-02  0.28768739378E-02  0.17130000053E+03  0.17130000000E+03 0. -1.
      622    1    1    2    0    0 -0.21712665596E-02 -0.15348008812E-01  0.39588828566E+01  0.39589637215E+01  0.20000000000E-01 0. -1.
</event>
<event>
 5   0  0.3603037E+08  0.9118800E+02  0.7818608E-02  0.1180000E+00
       11   -1    0    0    0    0  0.00000000000E+00  0.00000000000E+00  0.39999999673E+01  0.40000000000E+01  0.51109989000E-03 0.  1.
     -623   -1    0    0    0    0  0.00000000000E+00  0.00000000000E+00  0.12525980253E-10  0.17130000000E+03  0.17130000000E+03 0. -1.
       11    1    1    2    0    0 -0.20634740774E-02 -0.27321941663E-02  0.51715483120E-02  0.62232582792E-02  0.51109989000E-03 0.  1.
     -623    1    1    2    0    0 -0.52727561619E-03  0.38858890555E-03  0.11032883137E-02  0.17130000000E+03  0.17130000000E+03 0. -1.
      622    1    1    2    0    0  0.25907496936E-02  0.23436052608E-02  0.39937251307E+01  0.39937767369E+01  0.20000000000E-01 0.  1.
</event>
<event>
 5   0  0.3603037E+08  0.9118800E+02  0.7818608E-02  0.1180000E+00
       11   -1    0    0    0    0  0.00000000000E+00  0.00000000000E+00  0.39999999673E+01  0.40000000000E+01  0.51109989000E-03 0.  1.
     -623   -1    0    0    0    0  0.00000000000E+00  0.00000000000E+00  0.12525980253E-10  0.17130000000E+03  0.17130000000E+03 0. -1.
       11    1    1    2    0    0  0.91915263885E-02 -0.18515604820E-02  0.15569976911E+01  0.15570260061E+01  0.51109989000E-03 0.  1.
     -623    1    1    2    0    0 -0.39092092103E-02  0.21532207723E-02  0.11593902957E-03  0.17130000006E+03  0.17130000000E+03 0. -1.
      622    1    1    2    0    0 -0.52823171782E-02 -0.30166029037E-03  0.24428863372E+01  0.24429739357E+01  0.20000000000E-01 0.  0.
</event>
<event>
 5   0  0.3603037E+08  0.9118800E+02  0.7818608E-02  0.1180000E+00
       11   -1    0    0    0    0  0.00000000000E+00  0.00000000000E+00  0.39999999673E+01  0.40000000000E+01  0.51109989000E-03 0.  1.
     -623   -1    0    0    0    0  0.00000000000E+00  0.00000000000E+00  0.12525980253E-10  0.17130000000E+03  0.17130000000E+03 0. -1.
       11    1    1    2    0    0 -0.22654495334E-02  0.33131845307E-02  0.20500588387E-01  0.20896047438E-01  0.51109989000E-03 0.  1.
     -623    1    1    2    0    0  0.96156006987E-03 -0.16073837469E-03  0.44715507238E-03  0.17130000000E+03  0.17130000000E+03 0. -1.
      622    1    1    2    0    0  0.13038894635E-02 -0.31524461560E-02  0.39790522239E+01  0.39791039492E+01  0.20000000000E-01 0.  1.
</event>
<event>
 5   0  0.3603037E+08  0.9118800E+02  0.7818608E-02  0.1180000E+00
       11   -1    0    0    0    0  0.00000000000E+00  0.00000000000E+00  0.39999999673E+01  0.40000000000E+01  0.51109989000E-03 0. -1.
     -623   -1    0    0    0    0  0.00000000000E+00  0.00000000000E+00  0.12525980253E-10  0.17130000000E+03  0.17130000000E+03 0. -1.
       11    1    1    2    0    0  0.52972575474E-03 -0.28216767908E-03  0.59213598304E-02  0.59736046995E-02  0.51109989000E-03 0. -1.
     -623    1    1    2    0    0  0.80432591092E-03  0.21476017619E-03  0.10251274439E-03  0.17130000000E+03  0.17130000000E+03 0. -1.
      622    1    1    2    0    0 -0.13340516657E-02  0.67407502886E-04  0.39939760948E+01  0.39940263932E+01  0.20000000000E-01 0. -1.
</event>
<event>
 5   0  0.3603037E+08  0.9118800E+02  0.7818608E-02  0.1180000E+00
       11   -1    0    0    0    0  0.00000000000E+00  0.00000000000E+00  0.39999999673E+01  0.40000000000E+01  0.51109989000E-03 0. -1.
     -623   -1    0    0    0    0  0.00000000000E+00  0.00000000000E+00  0.12525980253E-10  0.17130000000E+03  0.17130000000E+03 0. -1.
       11    1    1    2    0    0 -0.48998447963E-03 -0.65535221188E-02  0.17218847092E+00  0.17231459449E+00  0.51109989000E-03 0. -1.
     -623    1    1    2    0    0 -0.71472954520E-03  0.11204970248E-03  0.18395354243E-03  0.17130000000E+03  0.17130000000E+03 0. -1.
      622    1    1    2    0    0  0.12047140248E-02  0.64414724163E-02  0.38276275429E+01  0.38276854039E+01  0.20000000000E-01 0. -1.
</event>
<event>
 5   0  0.3603037E+08  0.9118800E+02  0.7818608E-02  0.1180000E+00
       11   -1    0    0    0    0  0.00000000000E+00  0.00000000000E+00  0.39999999673E+01  0.40000000000E+01  0.51109989000E-03 0. -1.
     -623   -1    0    0    0    0  0.00000000000E+00  0.00000000000E+00  0.12525980253E-10  0.17130000000E+03  0.17130000000E+03 0. -1.
       11    1    1    2    0    0  0.15205607934E-02 -0.88651919584E-03  0.15259813685E-01  0.15369487881E-01  0.51109989000E-03 0. -1.
     -623    1    1    2    0    0  0.11030482579E-03 -0.33478692585E-03  0.16035609118E-03  0.17130000000E+03  0.17130000000E+03 0. -1.
      622    1    1    2    0    0 -0.16308656192E-02  0.12213061217E-02  0.39845797976E+01  0.39846305117E+01  0.20000000000E-01 0. -1.
</event>
<event>
 5   0  0.3603037E+08  0.9118800E+02  0.7818608E-02  0.1180000E+00
       11   -1    0    0    0    0  0.00000000000E+00  0.00000000000E+00  0.39999999673E+01  0.40000000000E+01  0.51109989000E-03 0. -1.
     -623   -1    0    0    0    0  0.00000000000E+00  0.00000000000E+00  0.12525980253E-10  0.17130000000E+03  0.17130000000E+03 0.  1.
       11    1    1    2    0    0 -0.16985443489E-02 -0.34647380840E-02  0.35917480205E-01  0.36127774196E-01  0.51109989000E-03 0. -1.
     -623    1    1    2    0    0  0.12035643067E-02 -0.28231535699E-03  0.26252402271E-03  0.17130000000E+03  0.17130000000E+03 0.  1.
      622    1    1    2    0    0  0.49498004216E-03  0.37470534410E-02  0.39638199631E+01  0.39638722211E+01  0.20000000000E-01 0. -1.
</event>
<event>
 5   0  0.3603037E+08  0.9118800E+02  0.7818608E-02  0.1180000E+00
       11   -1    0    0    0    0  0.00000000000E+00  0.00000000000E+00  0.39999999673E+01  0.40000000000E+01  0.51109989000E-03 0. -1.
     -623   -1    0    0    0    0  0.00000000000E+00  0.00000000000E+00  0.12525980253E-10  0.17130000000E+03  0.17130000000E+03 0. -1.
       11    1    1    2    0    0  0.21662163708E-03 -0.57889672464E-02  0.67188849735E+00  0.67191366496E+00  0.51109989000E-03 0. -1.
     -623    1    1    2    0    0  0.28792399913E-02  0.98748281678E-04  0.91558844598E-04  0.17130000002E+03  0.17130000000E+03 0. -1.
      622    1    1    2    0    0 -0.30958616284E-02  0.56902189648E-02  0.33280199112E+01  0.33280863108E+01  0.20000000000E-01 0. -1.
</event>
<event>
 5   0  0.3603037E+08  0.9118800E+02  0.7818608E-02  0.1180000E+00
       11   -1    0    0    0    0  0.00000000000E+00  0.00000000000E+00  0.39999999673E+01  0.40000000000E+01  0.51109989000E-03 0.  1.
     -623   -1    0    0    0    0  0.00000000000E+00  0.00000000000E+00  0.12525980253E-10  0.17130000000E+03  0.17130000000E+03 0.  1.
       11    1    1    2    0    0 -0.34507554752E-01 -0.37454303131E-02  0.95343915203E+00  0.95407089749E+00  0.51109989000E-03 0.  1.
     -623    1    1    2    0    0 -0.21216308896E-03  0.82062649923E-03  0.89667475470E-03  0.17130000000E+03  0.17130000000E+03 0.  1.
      622    1    1    2    0    0  0.34719717841E-01  0.29248038139E-02  0.30456641406E+01  0.30459290981E+01  0.20000000000E-01 0.  1.
</event>
<event>
 5   0  0.3603037E+08  0.9118800E+02  0.7818608E-02  0.1180000E+00
       11   -1    0    0    0    0  0.00000000000E+00  0.00000000000E+00  0.39999999673E+01  0.40000000000E+01  0.51109989000E-03 0. -1.
     -623   -1    0    0    0    0  0.00000000000E+00  0.00000000000E+00  0.12525980253E-10  0.17130000000E+03  0.17130000000E+03 0. -1.
       11    1    1    2    0    0  0.10412728787E-02 -0.65287718527E-03  0.10929788184E-01  0.11010539867E-01  0.51109989000E-03 0. -1.
     -623    1    1    2    0    0 -0.35969664474E-03 -0.11623233351E-03  0.13099021277E-03  0.17130000000E+03  0.17130000000E+03 0. -1.
      622    1    1    2    0    0 -0.68157623391E-03  0.76910951878E-03  0.39889391890E+01  0.39889894597E+01  0.20000000000E-01 0. -1.
</event>
<event>
 5   0  0.3603037E+08  0.9118800E+02  0.7818608E-02  0.1180000E+00
       11   -1    0    0    0    0  0.00000000000E+00  0.00000000000E+00  0.39999999673E+01  0.40000000000E+01  0.51109989000E-03 0. -1.
     -623   -1    0    0    0    0  0.00000000000E+00  0.00000000000E+00  0.12525980253E-10  0.17130000000E+03  0.17130000000E+03 0. -1.
       11    1    1    2    0    0  0.28747678555E-01  0.10179341672E-01  0.14494100130E+01  0.14497309044E+01  0.51109989000E-03 0. -1.
     -623    1    1    2    0    0  0.16027409199E-01 -0.38980241140E-01  0.96023602799E-03  0.17130000519E+03  0.17130000000E+03 0. -1.
      622    1    1    2    0    0 -0.44775087754E-01  0.28800899468E-01  0.25496297183E+01  0.25502639081E+01  0.20000000000E-01 0.  1.
</event>
<event>
 5   0  0.3603037E+08  0.9118800E+02  0.7818608E-02  0.1180000E+00
       11   -1    0    0    0    0  0.00000000000E+00  0.00000000000E+00  0.39999999673E+01  0.40000000000E+01  0.51109989000E-03 0.  1.
     -623   -1    0    0    0    0  0.00000000000E+00  0.00000000000E+00  0.12525980253E-10  0.17130000000E+03  0.17130000000E+03 0. -1.
       11    1    1    2    0    0 -0.12617413937E-02 -0.41196629573E-03  0.49541129962E-01  0.49561542407E-01  0.51109989000E-03 0.  1.
     -623    1    1    2    0    0 -0.79286336636E-04  0.22391297451E-03  0.71239694359E-04  0.17130000000E+03  0.17130000000E+03 0. -1.
      622    1    1    2    0    0  0.13410277304E-02  0.18805332122E-03  0.39503875977E+01  0.39504384574E+01  0.20000000000E-01 0.  1.
</event>
<event>
 5   0  0.3603037E+08  0.9118800E+02  0.7818608E-02  0.1180000E+00
       11   -1    0    0    0    0  0.00000000000E+00  0.00000000000E+00  0.39999999673E+01  0.40000000000E+01  0.51109989000E-03 0.  1.
     -623   -1    0    0    0    0  0.00000000000E+00  0.00000000000E+00  0.12525980253E-10  0.17130000000E+03  0.17130000000E+03 0. -1.
       11    1    1    2    0    0  0.16191108971E-02  0.84549071909E-03  0.81278429978E-02  0.83462223503E-02  0.51109989000E-03 0.  1.
     -623    1    1    2    0    0 -0.21046600834E-02 -0.15635281072E-02  0.26856596319E-03  0.17130000002E+03  0.17130000000E+03 0. -1.
      622    1    1    2    0    0  0.48554918629E-03  0.71803738808E-03  0.39916035584E+01  0.39916537574E+01  0.20000000000E-01 0.  1.
</event>
<event>
 5   0  0.3603037E+08  0.9118800E+02  0.7818608E-02  0.1180000E+00
       11   -1    0    0    0    0  0.00000000000E+00  0.00000000000E+00  0.39999999673E+01  0.40000000000E+01  0.51109989000E-03 0.  1.
     -623   -1    0    0    0    0  0.00000000000E+00  0.00000000000E+00  0.12525980253E-10  0.17130000000E+03  0.17130000000E+03 0.  1.
       11    1    1    2    0    0  0.45425981384E-02  0.12194246669E-01  0.39570916999E+00  0.39592340583E+00  0.51109989000E-03 0.  1.
     -623    1    1    2    0    0  0.62520528857E-04 -0.20423556800E-02  0.28694900135E-03  0.17130000001E+03  0.17130000000E+03 0.  1.
      622    1    1    2    0    0 -0.46051186672E-02 -0.10151890989E-01  0.36040038484E+01  0.36040765817E+01  0.20000000000E-01 0.  0.
</event>
<event>
 5   0  0.3603037E+08  0.9118800E+02  0.7818608E-02  0.1180000E+00
       11   -1    0    0    0    0  0.00000000000E+00  0.00000000000E+00  0.39999999673E+01  0.40000000000E+01  0.51109989000E-03 0. -1.
     -623   -1    0    0    0    0  0.00000000000E+00  0.00000000000E+00  0.12525980253E-10  0.17130000000E+03  0.17130000000E+03 0.  1.
       11    1    1    2    0    0 -0.40922570392E-02 -0.75942476937E-03  0.82556476038E-02  0.92596021725E-02  0.51109989000E-03 0.  1.
     -623    1    1    2    0    0  0.35133920381E-02  0.62640554509E-03  0.10541228763E-02  0.17130000004E+03  0.17130000000E+03 0.  1.
      622    1    1    2    0    0  0.57886500108E-03  0.13301922427E-03  0.39906901969E+01  0.39907403574E+01  0.20000000000E-01 0. -1.
</event>
<event>
 5   0  0.3603037E+08  0.9118800E+02  0.7818608E-02  0.1180000E+00
       11   -1    0    0    0    0  0.00000000000E+00  0.00000000000E+00  0.39999999673E+01  0.40000000000E+01  0.51109989000E-03 0.  1.
     -623   -1    0    0    0    0  0.00000000000E+00  0.00000000000E+00  0.12525980253E-10  0.17130000000E+03  0.17130000000E+03 0.  1.
       11    1    1    2    0    0  0.20723565876E-02 -0.23840279154E-02  0.13869553861E+00  0.13873244719E+00  0.51109989000E-03 0.  1.
     -623    1    1    2    0    0 -0.74807812869E-04  0.13024790487E-02  0.89345918485E-04  0.17130000000E+03  0.17130000000E+03 0.  1.
      622    1    1    2    0    0 -0.19975487747E-02  0.10815488667E-02  0.38612150828E+01  0.38612675478E+01  0.20000000000E-01 0.  1.
</event>
<event>
 5   0  0.3603037E+08  0.9118800E+02  0.7818608E-02  0.1180000E+00
       11   -1    0    0    0    0  0.00000000000E+00  0.00000000000E+00  0.39999999673E+01  0.40000000000E+01  0.51109989000E-03 0.  1.
     -623   -1    0    0    0    0  0.00000000000E+00  0.00000000000E+00  0.12525980253E-10  0.17130000000E+03  0.17130000000E+03 0.  1.
       11    1    1    2    0    0 -0.17683122270E-02 -0.46553991089E-03  0.15546967521E+00  0.15548126829E+00  0.51109989000E-03 0.  1.
     -623    1    1    2    0    0  0.10666137918E-02 -0.82051514886E-03  0.63867347726E-04  0.17130000001E+03  0.17130000000E+03 0.  1.
      622    1    1    2    0    0  0.70169843517E-03  0.12860550598E-02  0.38444664248E+01  0.38445187264E+01  0.20000000000E-01 0.  1.
</event>
<event>
 5   0  0.3603037E+08  0.9118800E+02  0.7818608E-02  0.1180000E+00
       11   -1    0    0    0    0  0.00000000000E+00  0.00000000000E+00  0.39999999673E+01  0.40000000000E+01  0.51109989000E-03 0.  1.
     -623   -1    0    0    0    0  0.00000000000E+00  0.00000000000E+00  0.12525980253E-10  0.17130000000E+03  0.17130000000E+03 0.  1.
       11    1    1    2    0    0  0.71082705425E-02 -0.30425329964E-02  0.17319216627E+01  0.17319389977E+01  0.51109989000E-03 0.  1.
     -623    1    1    2    0    0 -0.84275783306E-04 -0.61861320240E-04  0.11848657859E-03  0.17130000000E+03  0.17130000000E+03 0.  1.
      622    1    1    2    0    0 -0.70239947592E-02  0.31043943166E-02  0.22679598180E+01  0.22680610023E+01  0.20000000000E-01 0.  1.
</event>
<event>
 5   0  0.3603037E+08  0.9118800E+02  0.7818608E-02  0.1180000E+00
       11   -1    0    0    0    0  0.00000000000E+00  0.00000000000E+00  0.39999999673E+01  0.40000000000E+01  0.51109989000E-03 0.  1.
     -623   -1    0    0    0    0  0.00000000000E+00  0.00000000000E+00  0.12525980253E-10  0.17130000000E+03  0.17130000000E+03 0. -1.
       11    1    1    2    0    0 -0.33397791000E-03 -0.10201994878E-03  0.25133542068E-01  0.25141163586E-01  0.51109989000E-03 0.  1.
     -623    1    1    2    0    0 -0.18578047233E-03  0.51944144091E-03  0.57962248021E-04  0.17130000000E+03  0.17130000000E+03 0. -1.
      622    1    1    2    0    0  0.51975838234E-03 -0.41742149213E-03  0.39748084630E+01  0.39748588355E+01  0.20000000000E-01 0.  1.
</event>
<event>
 5   0  0.3603037E+08  0.9118800E+02  0.7818608E-02  0.1180000E+00
       11   -1    0    0    0    0  0.00000000000E+00  0.00000000000E+00  0.39999999673E+01  0.40000000000E+01  0.51109989000E-03 0.  1.
     -623   -1    0    0    0    0  0.00000000000E+00  0.00000000000E+00  0.12525980253E-10  0.17130000000E+03  0.17130000000E+03 0.  1.
       11    1    1    2    0    0 -0.60438827131E-02  0.47603813669E-01  0.16107538815E+01  0.16114685786E+01  0.51109989000E-03 0.  1.
     -623    1    1    2    0    0 -0.50434366853E-02 -0.97181912794E-02  0.11249806544E-02  0.17130000035E+03  0.17130000000E+03 0.  1.
      622    1    1    2    0    0  0.11087319398E-01 -0.37885622390E-01  0.23881211052E+01  0.23885310678E+01  0.20000000000E-01 0.  1.
</event>
<event>
 5   0  0.3603037E+08  0.9118800E+02  0.7818608E-02  0.1180000E+00
       11   -1    0    0    0    0  0.00000000000E+00  0.00000000000E+00  0.39999999673E+01  0.40000000000E+01  0.51109989000E-03 0.  1.
     -623   -1    0    0    0    0  0.00000000000E+00  0.00000000000E+00  0.12525980253E-10  0.17130000000E+03  0.17130000000E+03 0. -1.
       11    1    1    2    0    0 -0.20269643076E-03  0.41182469774E-02  0.31248309955E-01  0.31523311082E-01  0.51109989000E-03 0.  1.
     -623    1    1    2    0    0 -0.22088161875E-02 -0.45843387227E-02  0.32620195253E-03  0.17130000008E+03  0.17130000000E+03 0. -1.
      622    1    1    2    0    0  0.24115126182E-02  0.46609174530E-03  0.39684254555E+01  0.39684766130E+01  0.20000000000E-01 0.  1.
</event>
<event>
 5   0  0.3603037E+08  0.9118800E+02  0.7818608E-02  0.1180000E+00
       11   -1    0    0    0    0  0.00000000000E+00  0.00000000000E+00  0.39999999673E+01  0.40000000000E+01  0.51109989000E-03 0. -1.
     -623   -1    0    0    0    0  0.00000000000E+00  0.00000000000E+00  0.12525980253E-10  0.17130000000E+03  0.17130000000E+03 0. -1.
       11    1    1    2    0    0 -0.92661674904E-02 -0.27407950799E-01  0.44570552235E+00  0.44664385309E+00  0.51109989000E-03 0. -1.
     -623    1    1    2    0    0 -0.13134383492E-01 -0.55235721397E-02  0.12183981563E-02  0.17130000060E+03  0.17130000000E+03 0. -1.
      622    1    1    2    0    0  0.22400550982E-01  0.32931522938E-01  0.35530760469E+01  0.35533555500E+01  0.20000000000E-01 0. -1.
</event>
<event>
 5   0  0.3603037E+08  0.9118800E+02  0.7818608E-02  0.1180000E+00
       11   -1    0    0    0    0  0.00000000000E+00  0.00000000000E+00  0.39999999673E+01  0.40000000000E+01  0.51109989000E-03 0.  1.
     -623   -1    0    0    0    0  0.00000000000E+00  0.00000000000E+00  0.12525980253E-10  0.17130000000E+03  0.17130000000E+03 0. -1.
       11    1    1    2    0    0  0.10650174217E-01 -0.73964779297E-02  0.17619405276E+01  0.17619883138E+01  0.51109989000E-03 0.  1.
     -623    1    1    2    0    0  0.91692898927E-03  0.91747926222E-03  0.17639775593E-03  0.17130000001E+03  0.17130000000E+03 0. -1.
      622    1    1    2    0    0 -0.11567103206E-01  0.64789986675E-02  0.22378830420E+01  0.22380116812E+01  0.20000000000E-01 0.  1.
</event>
<event>
 5   0  0.3603037E+08  0.9118800E+02  0.7818608E-02  0.1180000E+00
       11   -1    0    0    0    0  0.00000000000E+00  0.00000000000E+00  0.39999999673E+01  0.40000000000E+01  0.51109989000E-03 0. -1.
     -623   -1    0    0    0    0  0.00000000000E+00  0.00000000000E+00  0.12525980253E-10  0.17130000000E+03  0.17130000000E+03 0.  1.
       11    1    1    2    0    0 -0.55794649007E-02  0.20455825162E-02  0.26473528391E+01  0.26473595583E+01  0.51109989000E-03 0. -1.
     -623    1    1    2    0    0 -0.11937032140E-01 -0.49796688820E-02  0.27166023309E-03  0.17130000049E+03  0.17130000000E+03 0.  1.
      622    1    1    2    0    0  0.17516497041E-01  0.29340863659E-02  0.13523754680E+01  0.13526399532E+01  0.20000000000E-01 0.  0.
</event>
<event>
 5   0  0.3603037E+08  0.9118800E+02  0.7818608E-02  0.1180000E+00
       11   -1    0    0    0    0  0.00000000000E+00  0.00000000000E+00  0.39999999673E+01  0.40000000000E+01  0.51109989000E-03 0. -1.
     -623   -1    0    0    0    0  0.00000000000E+00  0.00000000000E+00  0.12525980253E-10  0.17130000000E+03  0.17130000000E+03 0.  1.
       11    1    1    2    0    0 -0.16630722095E-01 -0.41825724487E-01  0.13043152189E+01  0.13050917299E+01  0.51109989000E-03 0. -1.
     -623    1    1    2    0    0  0.33706613335E-03 -0.10134593187E-01  0.14012486130E-02  0.17130000031E+03  0.17130000000E+03 0.  1.
      622    1    1    2    0    0  0.16293655962E-01  0.51960317674E-01  0.26942834999E+01  0.26949079642E+01  0.20000000000E-01 0. -1.
</event>
<event>
 5   0  0.3603037E+08  0.9118800E+02  0.7818608E-02  0.1180000E+00
       11   -1    0    0    0    0  0.00000000000E+00  0.00000000000E+00  0.39999999673E+01  0.40000000000E+01  0.51109989000E-03 0.  1.
     -623   -1    0    0    0    0  0.00000000000E+00  0.00000000000E+00  0.12525980253E-10  0.17130000000E+03  0.17130000000E+03 0.  1.
       11    1    1    2    0    0 -0.28009388810E-02 -0.38198984892E-02  0.22996248978E+00  0.23001183624E+00  0.51109989000E-03 0.  1.
     -623    1    1    2    0    0  0.45613625773E-03  0.77181607200E-02  0.10528396251E-03  0.17130000017E+03  0.17130000000E+03 0.  1.
      622    1    1    2    0    0  0.23448026233E-02 -0.38982622308E-02  0.37699321936E+01  0.37699879892E+01  0.20000000000E-01 0.  1.
</event>
<event>
 5   0  0.3603037E+08  0.9118800E+02  0.7818608E-02  0.1180000E+00
       11   -1    0    0    0    0  0.00000000000E+00  0.00000000000E+00  0.39999999673E+01  0.40000000000E+01  0.51109989000E-03 0. -1.
     -623   -1    0    0    0    0  0.00000000000E+00  0.00000000000E+00  0.12525980253E-10  0.17130000000E+03  0.17130000000E+03 0.  1.
       11    1    1    2    0    0 -0.11874744901E-01  0.14263832657E-01  0.34658597365E+01  0.34659094680E+01  0.51109989000E-03 0. -1.
     -623    1    1    2    0    0  0.14919946219E-01  0.21655060224E-02  0.68658737977E-03  0.17130000066E+03  0.17130000000E+03 0.  1.
      622    1    1    2    0    0 -0.30452013176E-02 -0.16429338680E-01  0.53345364351E+00  0.53408986715E+00  0.20000000000E-01 0. -1.
</event>
<event>
 5   0  0.3603037E+08  0.9118800E+02  0.7818608E-02  0.1180000E+00
       11   -1    0    0    0    0  0.00000000000E+00  0.00000000000E+00  0.39999999673E+01  0.40000000000E+01  0.51109989000E-03 0.  1.
     -623   -1    0    0    0    0  0.00000000000E+00  0.00000000000E+00  0.12525980253E-10  0.17130000000E+03  0.17130000000E+03 0. -1.
       11    1    1    2    0    0  0.12620380704E-02 -0.19399274543E-02  0.77496885373E-01  0.77533118872E-01  0.51109989000E-03 0.  1.
     -623    1    1    2    0    0 -0.13885521400E-02  0.66413646773E-03  0.87405969489E-04  0.17130000001E+03  0.17130000000E+03 0. -1.
      622    1    1    2    0    0  0.12651406962E-03  0.12757909865E-02  0.39224156760E+01  0.39224668742E+01  0.20000000000E-01 0.  1.
</event>
<event>
 5   0  0.3603037E+08  0.9118800E+02  0.7818608E-02  0.1180000E+00
       11   -1    0    0    0    0  0.00000000000E+00  0.00000000000E+00  0.39999999673E+01  0.40000000000E+01  0.51109989000E-03 0.  1.
     -623   -1    0    0    0    0  0.00000000000E+00  0.00000000000E+00  0.12525980253E-10  0.17130000000E+03  0.17130000000E+03 0.  1.
       11    1    1    2    0    0  0.12737488957E-02 -0.18980605083E-02  0.79646029826E-02  0.83018788063E-02  0.51109989000E-03 0.  1.
     -623    1    1    2    0    0 -0.98558300547E-03  0.51789490520E-03  0.38760055125E-03  0.17130000000E+03  0.17130000000E+03 0.  1.
      622    1    1    2    0    0 -0.28816589021E-03  0.13801656031E-02  0.39916477638E+01  0.39916981171E+01  0.20000000000E-01 0.  1.
</event>
<event>
 5   0  0.3603037E+08  0.9118800E+02  0.7818608E-02  0.1180000E+00
       11   -1    0    0    0    0  0.00000000000E+00  0.00000000000E+00  0.39999999673E+01  0.40000000000E+01  0.51109989000E-03 0.  1.
     -623   -1    0    0    0    0  0.00000000000E+00  0.00000000000E+00  0.12525980253E-10  0.17130000000E+03  0.17130000000E+03 0. -1.
       11    1    1    2    0    0  0.15458241409E-01 -0.41456395038E-02  0.76414219262E+00  0.76430994716E+00  0.51109989000E-03 0.  1.
     -623    1    1    2    0    0  0.15517293203E-03  0.26520499580E-02  0.26756986166E-03  0.17130000002E+03  0.17130000000E+03 0. -1.
      622    1    1    2    0    0 -0.15613414342E-01  0.14935895458E-02  0.32355902049E+01  0.32356900320E+01  0.20000000000E-01 0.  1.
</event>
<event>
 5   0  0.3603037E+08  0.9118800E+02  0.7818608E-02  0.1180000E+00
       11   -1    0    0    0    0  0.00000000000E+00  0.00000000000E+00  0.39999999673E+01  0.40000000000E+01  0.51109989000E-03 0. -1.
     -623   -1    0    0    0    0  0.00000000000E+00  0.00000000000E+00  0.12525980253E-10  0.17130000000E+03  0.17130000000E+03 0. -1.
       11    1    1    2    0    0  0.19413785814E-02 -0.25367975843E-02  0.47738585225E-01  0.47848072401E-01  0.51109989000E-03 0. -1.
     -623    1    1    2    0    0 -0.29016226302E-02  0.98514021568E-03  0.16050894332E-03  0.17130000003E+03  0.17130000000E+03 0. -1.
      622    1    1    2    0    0  0.96024404883E-03  0.15516573687E-02  0.39521008732E+01  0.39521519001E+01  0.20000000000E-01 0. -1.
</event>
<event>
 5   0  0.3603037E+08  0.9118800E+02  0.7818608E-02  0.1180000E+00
       11   -1    0    0    0    0  0.00000000000E+00  0.00000000000E+00  0.39999999673E+01  0.40000000000E+01  0.51109989000E-03 0.  1.
     -623   -1    0    0    0    0  0.00000000000E+00  0.00000000000E+00  0.12525980253E-10  0.17130000000E+03  0.17130000000E+03 0. -1.
       11    1    1    2    0    0  0.36447413966E-02  0.35614464251E-02  0.44913339265E-01  0.45204394753E-01  0.51109989000E-03 0.  1.
     -623    1    1    2    0    0 -0.77595203461E-03  0.14419892149E-03  0.34437348468E-03  0.17130000000E+03  0.17130000000E+03 0. -1.
      622    1    1    2    0    0 -0.28687893620E-02 -0.37056453466E-02  0.39547422546E+01  0.39547956031E+01  0.20000000000E-01 0.  1.
</event>
<event>
 5   0  0.3603037E+08  0.9118800E+02  0.7818608E-02  0.1180000E+00
       11   -1    0    0    0    0  0.00000000000E+00  0.00000000000E+00  0.39999999673E+01  0.40000000000E+01  0.51109989000E-03 0. -1.
     -623   -1    0    0    0    0  0.00000000000E+00  0.00000000000E+00  0.12525980253E-10  0.17130000000E+03  0.17130000000E+03 0.  1.
       11    1    1    2    0    0  0.11328350876E-02 -0.14230362597E-02  0.30179631787E-01  0.30238712651E-01  0.51109989000E-03 0. -1.
     -623    1    1    2    0    0 -0.22687924096E-03 -0.34342154568E-03  0.10992633765E-03  0.17130000000E+03  0.17130000000E+03 0.  1.
      622    1    1    2    0    0 -0.90595584664E-03  0.17664578053E-02  0.39697104092E+01  0.39697612868E+01  0.20000000000E-01 0. -1.
</event>
<event>
 5   0  0.3603037E+08  0.9118800E+02  0.7818608E-02  0.1180000E+00
       11   -1    0    0    0    0  0.00000000000E+00  0.00000000000E+00  0.39999999673E+01  0.40000000000E+01  0.51109989000E-03 0. -1.
     -623   -1    0    0    0    0  0.00000000000E+00  0.00000000000E+00  0.12525980253E-10  0.17130000000E+03  0.17130000000E+03 0.  1.
       11    1    1    2    0    0  0.16204158488E-02  0.18992402007E-02  0.17287460259E+00  0.17289338421E+00  0.51109989000E-03 0. -1.
     -623    1    1    2    0    0 -0.31317443423E-03  0.43335599043E-03  0.71943112351E-04  0.17130000000E+03  0.17130000000E+03 0.  1.
      622    1    1    2    0    0 -0.13072414146E-02 -0.23325961912E-02  0.38270534217E+01  0.38271066149E+01  0.20000000000E-01 0. -1.
</event>
<event>
 5   0  0.3603037E+08  0.9118800E+02  0.7818608E-02  0.1180000E+00
       11   -1    0    0    0    0  0.00000000000E+00  0.00000000000E+00  0.39999999673E+01  0.40000000000E+01  0.51109989000E-03 0. -1.
     -623   -1    0    0    0    0  0.00000000000E+00  0.00000000000E+00  0.12525980253E-10  0.17130000000E+03  0.17130000000E+03 0.  1.
       11    1    1    2    0    0 -0.20521131103E-03 -0.56905157047E-03  0.16451778316E-01  0.16470827606E-01  0.51109989000E-03 0. -1.
     -623    1    1    2    0    0 -0.52748121642E-04  0.24730115399E-04  0.69269268565E-04  0.17130000000E+03  0.17130000000E+03 0.  1.
      622    1    1    2    0    0  0.25795943268E-03  0.54432145507E-03  0.39834789198E+01  0.39835291724E+01  0.20000000000E-01 0. -1.
</event>
<event>
 5   0  0.3603037E+08  0.9118800E+02  0.7818608E-02  0.1180000E+00
       11   -1    0    0    0    0  0.00000000000E+00  0.00000000000E+00  0.39999999673E+01  0.40000000000E+01  0.51109989000E-03 0. -1.
     -623   -1    0    0    0    0  0.00000000000E+00  0.00000000000E+00  0.12525980253E-10  0.17130000000E+03  0.17130000000E+03 0.  1.
       11    1    1    2    0    0  0.13106893081E-01 -0.35672408767E-02  0.11855560545E+01  0.11856339804E+01  0.51109989000E-03 0. -1.
     -623    1    1    2    0    0 -0.58088935036E-03 -0.12935159036E-01  0.22570755410E-03  0.17130000049E+03  0.17130000000E+03 0.  1.
      622    1    1    2    0    0 -0.12526003731E-01  0.16502399912E-01  0.28142182053E+01  0.28143655301E+01  0.20000000000E-01 0.  0.
</event>
<event>
 5   0  0.3603037E+08  0.9118800E+02  0.7818608E-02  0.1180000E+00
       11   -1    0    0    0    0  0.00000000000E+00  0.00000000000E+00  0.39999999673E+01  0.40000000000E+01  0.51109989000E-03 0.  1.
     -623   -1    0    0    0    0  0.00000000000E+00  0.00000000000E+00  0.12525980253E-10  0.17130000000E+03  0.17130000000E+03 0.  1.
       11    1    1    2    0    0 -0.12056735452E-01  0.98266453641E-02  0.22742118973E-01  0.27557086657E-01  0.51109989000E-03 0.  1.
     -623    1    1    2    0    0 -0.17425242223E-02 -0.82395770423E-02  0.48898440181E-02  0.17130000028E+03  0.17130000000E+03 0.  1.
      622    1    1    2    0    0  0.13799259674E-01 -0.15870683218E-02  0.39723680044E+01  0.39724426365E+01  0.20000000000E-01 0.  1.
</event>
<event>
 5   0  0.3603037E+08  0.9118800E+02  0.7818608E-02  0.1180000E+00
       11   -1    0    0    0    0  0.00000000000E+00  0.00000000000E+00  0.39999999673E+01  0.40000000000E+01  0.51109989000E-03 0. -1.
     -623   -1    0    0    0    0  0.00000000000E+00  0.00000000000E+00  0.12525980253E-10  0.17130000000E+03  0.17130000000E+03 0. -1.
       11    1    1    2    0    0  0.32488425146E-02 -0.10466139733E-02  0.86687289618E-01  0.86755966826E-01  0.51109989000E-03 0. -1.
     -623    1    1    2    0    0  0.69346321108E-03  0.36438268690E-03  0.12180051694E-03  0.17130000000E+03  0.17130000000E+03 0. -1.
      622    1    1    2    0    0 -0.39423057257E-02  0.68223128643E-03  0.39131908772E+01  0.39132440313E+01  0.20000000000E-01 0. -1.
</event>
<event>
 5   0  0.3603037E+08  0.9118800E+02  0.7818608E-02  0.1180000E+00
       11   -1    0    0    0    0  0.00000000000E+00  0.00000000000E+00  0.39999999673E+01  0.40000000000E+01  0.51109989000E-03 0. -1.
     -623   -1    0    0    0    0  0.00000000000E+00  0.00000000000E+00  0.12525980253E-10  0.17130000000E+03  0.17130000000E+03 0.  1.
       11    1    1    2    0    0  0.41304861845E-03  0.56078052903E-03  0.13751396795E-02  0.16239809697E-02  0.51109989000E-03 0.  1.
     -623    1    1    2    0    0  0.44973851974E-03  0.42882319123E-03  0.29904621430E-03  0.17130000000E+03  0.17130000000E+03 0.  1.
      622    1    1    2    0    0 -0.86278713820E-03 -0.98960372026E-03  0.39983257815E+01  0.39983760176E+01  0.20000000000E-01 0. -1.
</event>
<event>
 5   0  0.3603037E+08  0.9118800E+02  0.7818608E-02  0.1180000E+00
       11   -1    0    0    0    0  0.00000000000E+00  0.00000000000E+00  0.39999999673E+01  0.40000000000E+01  0.51109989000E-03 0. -1.
     -623   -1    0    0    0    0  0.00000000000E+00  0.00000000000E+00  0.12525980253E-10  0.17130000000E+03  0.17130000000E+03 0.  1.
       11    1    1    2    0    0  0.11042350587E-04 -0.35321718878E-02  0.16279605752E+00  0.16283517411E+00  0.51109989000E-03 0. -1.
     -623    1    1    2    0    0 -0.13254598120E-02  0.52602667612E-02  0.91906300859E-04  0.17130000009E+03  0.17130000000E+03 0.  1.
      622    1    1    2    0    0  0.13144174614E-02 -0.17280948734E-02  0.38371120035E+01  0.38371647400E+01  0.20000000000E-01 0. -1.
</event>
<event>
 5   0  0.3603037E+08  0.9118800E+02  0.7818608E-02  0.1180000E+00
       11   -1    0    0    0    0  0.00000000000E+00  0.00000000000E+00  0.39999999673E+01  0.40000000000E+01  0.51109989000E-03 0.  1.
     -623   -1    0    0    0    0  0.00000000000E+00  0.00000000000E+00  0.12525980253E-10  0.17130000000E+03  0.17130000000E+03 0. -1.
       11    1    1    2    0    0 -0.17932570640E-02 -0.18783253580E-02  0.40431687906E+00  0.40432554185E+00  0.51109989000E-03 0.  1.
     -623    1    1    2    0    0 -0.80312548617E-03 -0.72383627909E-03  0.66135407255E-04  0.17130000000E+03  0.17130000000E+03 0. -1.
      622    1    1    2    0    0  0.25963825502E-02  0.26021616371E-02  0.35956169529E+01  0.35956744547E+01  0.20000000000E-01 0.  0.
</event>
<event>
 5   0  0.3603037E+08  0.9118800E+02  0.7818608E-02  0.1180000E+00
       11   -1    0    0    0    0  0.00000000000E+00  0.00000000000E+00  0.39999999673E+01  0.40000000000E+01  0.51109989000E-03 0.  1.
     -623   -1    0    0    0    0  0.00000000000E+00  0.00000000000E+00  0.12525980253E-10  0.17130000000E+03  0.17130000000E+03 0. -1.
       11    1    1    2    0    0  0.24955142123E-02 -0.85555966871E-03  0.13004529352E+00  0.13007305317E+00  0.51109989000E-03 0.  1.
     -623    1    1    2    0    0 -0.13547013017E-02 -0.27769590570E-03  0.79747602114E-04  0.17130000001E+03  0.17130000000E+03 0. -1.
      622    1    1    2    0    0 -0.11408129107E-02  0.11332555744E-02  0.38698749262E+01  0.38699269412E+01  0.20000000000E-01 0.  1.
</event>
<event>
 5   0  0.3603037E+08  0.9118800E+02  0.7818608E-02  0.1180000E+00
       11   -1    0    0    0    0  0.00000000000E+00  0.00000000000E+00  0.39999999673E+01  0.40000000000E+01  0.51109989000E-03 0. -1.
     -623   -1    0    0    0    0  0.00000000000E+00  0.00000000000E+00  0.12525980253E-10  0.17130000000E+03  0.17130000000E+03 0. -1.
       11    1    1    2    0    0 -0.19703674102E-02  0.47202546648E-02  0.41729887020E+00  0.41733053020E+00  0.51109989000E-03 0. -1.
     -623    1    1    2    0    0 -0.22978881995E-02 -0.11293202747E-01  0.96411999920E-04  0.17130000039E+03  0.17130000000E+03 0. -1.
      622    1    1    2    0    0  0.42682556097E-02  0.65729480818E-02  0.35826046852E+01  0.35826690821E+01  0.20000000000E-01 0. -1.
</event>
<event>
 5   0  0.3603037E+08  0.9118800E+02  0.7818608E-02  0.1180000E+00
       11   -1    0    0    0    0  0.00000000000E+00  0.00000000000E+00  0.39999999673E+01  0.40000000000E+01  0.51109989000E-03 0. -1.
     -623   -1    0    0    0    0  0.00000000000E+00  0.00000000000E+00  0.12525980253E-10  0.17130000000E+03  0.17130000000E+03 0.  1.
       11    1    1    2    0    0 -0.13681159449E-02 -0.38477117480E-02  0.42746627106E+00  0.42748608252E+00  0.51109989000E-03 0. -1.
     -623    1    1    2    0    0 -0.10508897742E-03  0.14403524991E-03  0.77985965758E-04  0.17130000000E+03  0.17130000000E+03 0.  1.
      622    1    1    2    0    0  0.14732049223E-02  0.37036764981E-02  0.35724557103E+01  0.35725139174E+01  0.20000000000E-01 0. -1.
</event>
<event>
 5   0  0.3603037E+08  0.9118800E+02  0.7818608E-02  0.1180000E+00
       11   -1    0    0    0    0  0.00000000000E+00  0.00000000000E+00  0.39999999673E+01  0.40000000000E+01  0.51109989000E-03 0.  1.
     -623   -1    0    0    0    0  0.00000000000E+00  0.00000000000E+00  0.12525980253E-10  0.17130000000E+03  0.17130000000E+03 0.  1.
       11    1    1    2    0    0 -0.12178171845E-01  0.10975936999E-01  0.22046548468E+00  0.22107480684E+00  0.51109989000E-03 0.  1.
     -623    1    1    2    0    0  0.33741412674E-02  0.25779115510E-02  0.69683212270E-03  0.17130000005E+03  0.17130000000E+03 0.  1.
      622    1    1    2    0    0  0.88040305772E-02 -0.13553848550E-01  0.37788376506E+01  0.37789251391E+01  0.20000000000E-01 0.  1.
</event>
<event>
 5   0  0.3603037E+08  0.9118800E+02  0.7818608E-02  0.1180000E+00
       11   -1    0    0    0    0  0.00000000000E+00  0.00000000000E+00  0.39999999673E+01  0.40000000000E+01  0.51109989000E-03 0.  1.
     -623   -1    0    0    0    0  0.00000000000E+00  0.00000000000E+00  0.12525980253E-10  0.17130000000E+03  0.17130000000E+03 0. -1.
       11    1    1    2    0    0 -0.23664241969E-02 -0.37399745222E-03  0.52720391120E-01  0.52777274460E-01  0.51109989000E-03 0.  1.
     -623    1    1    2    0    0 -0.48148143758E-04 -0.11080616099E-02  0.10853994726E-03  0.17130000000E+03  0.17130000000E+03 0. -1.
      622    1    1    2    0    0  0.24145723406E-02  0.14820590621E-02  0.39471710363E+01  0.39472227219E+01  0.20000000000E-01 0.  1.
</event>
<event>
 5   0  0.3603037E+08  0.9118800E+02  0.7818608E-02  0.1180000E+00
       11   -1    0    0    0    0  0.00000000000E+00  0.00000000000E+00  0.39999999673E+01  0.40000000000E+01  0.51109989000E-03 0.  1.
     -623   -1    0    0    0    0  0.00000000000E+00  0.00000000000E+00  0.12525980253E-10  0.17130000000E+03  0.17130000000E+03 0.  1.
       11    1    1    2    0    0  0.10800054215E-01 -0.90909915460E-02  0.12523481462E+01  0.12524278134E+01  0.51109989000E-03 0.  1.
     -623    1    1    2    0    0 -0.19060067290E-03  0.15972889725E-03  0.18742812504E-03  0.17130000000E+03  0.17130000000E+03 0.  1.
      622    1    1    2    0    0 -0.10609453542E-01  0.89312626488E-02  0.27474643930E+01  0.27475721863E+01  0.20000000000E-01 0.  0.
</event>
<event>
 5   0  0.3603037E+08  0.9118800E+02  0.7818608E-02  0.1180000E+00
       11   -1    0    0    0    0  0.00000000000E+00  0.00000000000E+00  0.39999999673E+01  0.40000000000E+01  0.51109989000E-03 0.  1.
     -623   -1    0    0    0    0  0.00000000000E+00  0.00000000000E+00  0.12525980253E-10  0.17130000000E+03  0.17130000000E+03 0.  1.
       11    1    1    2    0    0  0.11842159667E-01 -0.10161665679E-01  0.14881483590E+00  0.14963159025E+00  0.51109989000E-03 0.  1.
     -623    1    1    2    0    0  0.78333973055E-03  0.26208435452E-02  0.89677377437E-03  0.17130000002E+03  0.17130000000E+03 0.  1.
      622    1    1    2    0    0 -0.12625499397E-01  0.75408221336E-02  0.38502883577E+01  0.38503683856E+01  0.20000000000E-01 0.  1.
</event>
<event>
 5   0  0.3603037E+08  0.9118800E+02  0.7818608E-02  0.1180000E+00
       11   -1    0    0    0    0  0.00000000000E+00  0.00000000000E+00  0.39999999673E+01  0.40000000000E+01  0.51109989000E-03 0. -1.
     -623   -1    0    0    0    0  0.00000000000E+00  0.00000000000E+00  0.12525980253E-10  0.17130000000E+03  0.17130000000E+03 0.  1.
       11    1    1    2    0    0 -0.10239734918E-01 -0.17401724264E-02  0.10643311750E+01  0.10643819764E+01  0.51109989000E-03 0. -1.
     -623    1    1    2    0    0 -0.10634422499E-03 -0.10960033416E-02  0.13850394915E-03  0.17130000000E+03  0.17130000000E+03 0.  1.
      622    1    1    2    0    0  0.10346079143E-01  0.28361757680E-02  0.29355302885E+01  0.29356180201E+01  0.20000000000E-01 0.  1.
</event>
<event>
 5   0  0.3603037E+08  0.9118800E+02  0.7818608E-02  0.1180000E+00
       11   -1    0    0    0    0  0.00000000000E+00  0.00000000000E+00  0.39999999673E+01  0.40000000000E+01  0.51109989000E-03 0.  1.
     -623   -1    0    0    0    0  0.00000000000E+00  0.00000000000E+00  0.12525980253E-10  0.17130000000E+03  0.17130000000E+03 0.  1.
       11    1    1    2    0    0 -0.85105098975E-03 -0.64743161710E-03  0.33746778195E-01  0.33767583803E-01  0.51109989000E-03 0.  1.
     -623    1    1    2    0    0  0.21987283568E-02  0.30466983142E-03  0.71457150444E-04  0.17130000001E+03  0.17130000000E+03 0.  1.
      622    1    1    2    0    0 -0.13476773670E-02  0.34276178568E-03  0.39661817320E+01  0.39662324018E+01  0.20000000000E-01 0.  1.
</event>
<event>
 5   0  0.3603037E+08  0.9118800E+02  0.7818608E-02  0.1180000E+00
       11   -1    0    0    0    0  0.00000000000E+00  0.00000000000E+00  0.39999999673E+01  0.40000000000E+01  0.51109989000E-03 0.  1.
     -623   -1    0    0    0    0  0.00000000000E+00  0.00000000000E+00  0.12525980253E-10  0.17130000000E+03  0.17130000000E+03 0.  1.
       11    1    1    2    0    0 -0.12560791840E-03 -0.82132536090E-03  0.20464022861E-01  0.20487259607E-01  0.51109989000E-03 0.  1.
     -623    1    1    2    0    0 -0.11805106783E-02  0.15573049565E-02  0.73755396314E-04  0.17130000001E+03  0.17130000000E+03 0.  1.
      622    1    1    2    0    0  0.13061185967E-02 -0.73597959556E-03  0.39794621891E+01  0.39795127292E+01  0.20000000000E-01 0.  1.
</event>
<event>
 5   0  0.3603037E+08  0.9118800E+02  0.7818608E-02  0.1180000E+00
       11   -1    0    0    0    0  0.00000000000E+00  0.00000000000E+00  0.39999999673E+01  0.40000000000E+01  0.51109989000E-03 0.  1.
     -623   -1    0    0    0    0  0.00000000000E+00  0.00000000000E+00  0.12525980253E-10  0.17130000000E+03  0.17130000000E+03 0.  1.
       11    1    1    2    0    0 -0.95330462702E-02 -0.58875490558E-02  0.14008997343E+01  0.14009446346E+01  0.51109989000E-03 0.  1.
     -623    1    1    2    0    0  0.72528542703E-02  0.10505233193E-01  0.12739793283E-03  0.17130000048E+03  0.17130000000E+03 0.  1.
      622    1    1    2    0    0  0.22801919999E-02 -0.46176841372E-02  0.25989728351E+01  0.25990548897E+01  0.20000000000E-01 0.  1.
</event>
<event>
 5   0  0.3603037E+08  0.9118800E+02  0.7818608E-02  0.1180000E+00
       11   -1    0    0    0    0  0.00000000000E+00  0.00000000000E+00  0.39999999673E+01  0.40000000000E+01  0.51109989000E-03 0. -1.
     -623   -1    0    0    0    0  0.00000000000E+00  0.00000000000E+00  0.12525980253E-10  0.17130000000E+03  0.17130000000E+03 0.  1.
       11    1    1    2    0    0  0.66262074694E-02 -0.66747171167E-02  0.15945113931E+01  0.15945392132E+01  0.51109989000E-03 0. -1.
     -623    1    1    2    0    0 -0.16973292861E-03  0.17505222626E-03  0.12838001136E-03  0.17130000000E+03  0.17130000000E+03 0.  1.
      622    1    1    2    0    0 -0.64564745408E-02  0.64996648904E-02  0.24053601942E+01  0.24054607866E+01  0.20000000000E-01 0. -1.
</event>
<event>
 5   0  0.3603037E+08  0.9118800E+02  0.7818608E-02  0.1180000E+00
       11   -1    0    0    0    0  0.00000000000E+00  0.00000000000E+00  0.39999999673E+01  0.40000000000E+01  0.51109989000E-03 0.  1.
     -623   -1    0    0    0    0  0.00000000000E+00  0.00000000000E+00  0.12525980253E-10  0.17130000000E+03  0.17130000000E+03 0. -1.
       11    1    1    2    0    0 -0.12254185461E-01 -0.68666240193E-02  0.81920027937E+00  0.81932086177E+00  0.51109989000E-03 0.  1.
     -623    1    1    2    0    0 -0.38266493000E-03 -0.14503138835E-02  0.21941447442E-03  0.17130000001E+03  0.17130000000E+03 0. -1.
      622    1    1    2    0    0  0.12636850391E-01  0.83169379028E-02  0.31805802735E+01  0.31806791315E+01  0.20000000000E-01 0.  1.
</event>
<event>
 5   0  0.3603037E+08  0.9118800E+02  0.7818608E-02  0.1180000E+00
       11   -1    0    0    0    0  0.00000000000E+00  0.00000000000E+00  0.39999999673E+01  0.40000000000E+01  0.51109989000E-03 0.  1.
     -623   -1    0    0    0    0  0.00000000000E+00  0.00000000000E+00  0.12525980253E-10  0.17130000000E+03  0.17130000000E+03 0. -1.
       11    1    1    2    0    0  0.73140141018E-02  0.10654256343E-01  0.11476862394E+01  0.11477591095E+01  0.51109989000E-03 0.  1.
     -623    1    1    2    0    0  0.38867654779E-02  0.13148265866E-02  0.19011555672E-03  0.17130000005E+03  0.17130000000E+03 0. -1.
      622    1    1    2    0    0 -0.11200779580E-01 -0.11969082930E-01  0.28521236124E+01  0.28522408413E+01  0.20000000000E-01 0.  1.
</event>
<event>
 5   0  0.3603037E+08  0.9118800E+02  0.7818608E-02  0.1180000E+00
       11   -1    0    0    0    0  0.00000000000E+00  0.00000000000E+00  0.39999999673E+01  0.40000000000E+01  0.51109989000E-03 0. -1.
     -623   -1    0    0    0    0  0.00000000000E+00  0.00000000000E+00  0.12525980253E-10  0.17130000000E+03  0.17130000000E+03 0.  1.
       11    1    1    2    0    0  0.14291384004E-02 -0.23091869060E-02  0.91586568566E-01  0.91628246432E-01  0.51109989000E-03 0. -1.
     -623    1    1    2    0    0 -0.96717202742E-04 -0.25572162168E-04  0.93742316704E-04  0.17130000000E+03  0.17130000000E+03 0.  1.
      622    1    1    2    0    0 -0.13324211977E-02  0.23347590682E-02  0.39083196565E+01  0.39083717535E+01  0.20000000000E-01 0. -1.
</event>
<event>
 5   0  0.3603037E+08  0.9118800E+02  0.7818608E-02  0.1180000E+00
       11   -1    0    0    0    0  0.00000000000E+00  0.00000000000E+00  0.39999999673E+01  0.40000000000E+01  0.51109989000E-03 0. -1.
     -623   -1    0    0    0    0  0.00000000000E+00  0.00000000000E+00  0.12525980253E-10  0.17130000000E+03  0.17130000000E+03 0. -1.
       11    1    1    2    0    0 -0.10861631572E-03 -0.16054260118E-02  0.12281225671E-01  0.12396730022E-01  0.51109989000E-03 0. -1.
     -623    1    1    2    0    0 -0.56937412955E-03  0.29265527449E-03  0.16590247521E-03  0.17130000000E+03  0.17130000000E+03 0. -1.
      622    1    1    2    0    0  0.67799044527E-03  0.13127707373E-02  0.39875528392E+01  0.39876032687E+01  0.20000000000E-01 0. -1.
</event>
<event>
 5   0  0.3603037E+08  0.9118800E+02  0.7818608E-02  0.1180000E+00
       11   -1    0    0    0    0  0.00000000000E+00  0.00000000000E+00  0.39999999673E+01  0.40000000000E+01  0.51109989000E-03 0. -1.
     -623   -1    0    0    0    0  0.00000000000E+00  0.00000000000E+00  0.12525980253E-10  0.17130000000E+03  0.17130000000E+03 0.  1.
       11    1    1    2    0    0 -0.35801712394E-02 -0.42053825549E-02  0.31519970391E+00  0.31524850109E+00  0.51109989000E-03 0. -1.
     -623    1    1    2    0    0 -0.26957470173E-03  0.15180797313E-02  0.10604068906E-03  0.17130000001E+03  0.17130000000E+03 0.  1.
      622    1    1    2    0    0  0.38497459411E-02  0.26873028235E-02  0.36846942228E+01  0.36847514919E+01  0.20000000000E-01 0. -1.
</event>
<event>
 5   0  0.3603037E+08  0.9118800E+02  0.7818608E-02  0.1180000E+00
       11   -1    0    0    0    0  0.00000000000E+00  0.00000000000E+00  0.39999999673E+01  0.40000000000E+01  0.51109989000E-03 0. -1.
     -623   -1    0    0    0    0  0.00000000000E+00  0.00000000000E+00  0.12525980253E-10  0.17130000000E+03  0.17130000000E+03 0. -1.
       11    1    1    2    0    0  0.12713599155E-03  0.18516217576E-02  0.13123261578E+01  0.13123275698E+01  0.51109989000E-03 0. -1.
     -623    1    1    2    0    0  0.10235088844E-02  0.73058527480E-03  0.77285594671E-04  0.17130000000E+03  0.17130000000E+03 0. -1.
      622    1    1    2    0    0 -0.11506448759E-02 -0.25822070324E-02  0.26875965239E+01  0.26876724256E+01  0.20000000000E-01 0.  0.
</event>
<event>
 5   0  0.3603037E+08  0.9118800E+02  0.7818608E-02  0.1180000E+00
       11   -1    0    0    0    0  0.00000000000E+00  0.00000000000E+00  0.39999999673E+01  0.40000000000E+01  0.51109989000E-03 0.  1.
     -623   -1    0    0    0    0  0.00000000000E+00  0.00000000000E+00  0.12525980253E-10  0.17130000000E+03  0.17130000000E+03 0.  1.
       11    1    1    2    0    0 -0.19212989281E-01  0.85702852443E-02  0.11699855229E+01  0.11701747620E+01  0.51109989000E-03 0.  1.
     -623    1    1    2    0    0  0.13044724917E-01  0.56125365787E-02  0.30273751983E-03  0.17130000059E+03  0.17130000000E+03 0.  1.
      622    1    1    2    0    0  0.61682643646E-02 -0.14182821823E-01  0.28297117070E+01  0.28298246491E+01  0.20000000000E-01 0.  1.
</event>
<event>
 5   0  0.3603037E+08  0.9118800E+02  0.7818608E-02  0.1180000E+00
       11   -1    0    0    0    0  0.00000000000E+00  0.00000000000E+00  0.39999999673E+01  0.40000000000E+01  0.51109989000E-03 0. -1.
     -623   -1    0    0    0    0  0.00000000000E+00  0.00000000000E+00  0.12525980253E-10  0.17130000000E+03  0.17130000000E+03 0.  1.
       11    1    1    2    0    0  0.18644990279E-02  0.21326992959E-02  0.66171161948E-01  0.66233742602E-01  0.51109989000E-03 0. -1.
     -623    1    1    2    0    0  0.15844358046E-02 -0.20277250300E-02  0.11492292106E-03  0.17130000002E+03  0.17130000000E+03 0.  1.
      622    1    1    2    0    0 -0.34489348324E-02 -0.10497426592E-03  0.39337138825E+01  0.39337662380E+01  0.20000000000E-01 0. -1.
</event>
<event>
 5   0  0.3603037E+08  0.9118800E+02  0.7818608E-02  0.1180000E+00
       11   -1    0    0    0    0  0.00000000000E+00  0.00000000000E+00  0.39999999673E+01  0.40000000000E+01  0.51109989000E-03 0.  1.
     -623   -1    0    0    0    0  0.00000000000E+00  0.00000000000E+00  0.12525980253E-10  0.17130000000E+03  0.17130000000E+03 0. -1.
       11    1    1    2    0    0 -0.14792273395E-01  0.10331044136E-01  0.14644276442E+01  0.14645388790E+01  0.51109989000E-03 0.  1.
     -623    1    1    2    0    0  0.81679796506E-02 -0.85252527753E-02  0.19978839221E-03  0.17130000041E+03  0.17130000000E+03 0. -1.
      622    1    1    2    0    0  0.66242937442E-02 -0.18057913605E-02  0.25353725348E+01  0.25354607140E+01  0.20000000000E-01 0.  0.
</event>
<event>
 5   0  0.3603037E+08  0.9118800E+02  0.7818608E-02  0.1180000E+00
       11   -1    0    0    0    0  0.00000000000E+00  0.00000000000E+00  0.39999999673E+01  0.40000000000E+01  0.51109989000E-03 0. -1.
     -623   -1    0    0    0    0  0.00000000000E+00  0.00000000000E+00  0.12525980253E-10  0.17130000000E+03  0.17130000000E+03 0. -1.
       11    1    1    2    0    0 -0.95568958113E-03 -0.40476337380E-03  0.23776884359E-01  0.23805012639E-01  0.51109989000E-03 0. -1.
     -623    1    1    2    0    0  0.20467467119E-03  0.48034761094E-03  0.78467760331E-04  0.17130000000E+03  0.17130000000E+03 0. -1.
      622    1    1    2    0    0  0.75101490994E-03 -0.75584237141E-04  0.39761446152E+01  0.39761949865E+01  0.20000000000E-01 0. -1.
</event>
<event>
 5   0  0.3603037E+08  0.9118800E+02  0.7818608E-02  0.1180000E+00
       11   -1    0    0    0    0  0.00000000000E+00  0.00000000000E+00  0.39999999673E+01  0.40000000000E+01  0.51109989000E-03 0.  1.
     -623   -1    0    0    0    0  0.00000000000E+00  0.00000000000E+00  0.12525980253E-10  0.17130000000E+03  0.17130000000E+03 0. -1.
       11    1    1    2    0    0 -0.39581789276E-03 -0.35856619371E-03  0.27959435160E-01  0.27969205869E-01  0.51109989000E-03 0.  1.
     -623    1    1    2    0    0 -0.16737024593E-03 -0.64268453959E-04  0.60153003384E-04  0.17130000000E+03  0.17130000000E+03 0. -1.
      622    1    1    2    0    0  0.56318813869E-03  0.42283464767E-03  0.39719803792E+01  0.39720307940E+01  0.20000000000E-01 0.  1.
</event>
<event>
 5   0  0.3603037E+08  0.9118800E+02  0.7818608E-02  0.1180000E+00
       11   -1    0    0    0    0  0.00000000000E+00  0.00000000000E+00  0.39999999673E+01  0.40000000000E+01  0.51109989000E-03 0. -1.
     -623   -1    0    0    0    0  0.00000000000E+00  0.00000000000E+00  0.12525980253E-10  0.17130000000E+03  0.17130000000E+03 0.  1.
       11    1    1    2    0    0  0.43574841966E-04 -0.24078129369E-02  0.68994972376E-02  0.73255542776E-02  0.51109989000E-03 0.  1.
     -623    1    1    2    0    0 -0.11495326047E-03  0.11526038206E-02  0.47631897578E-03  0.17130000000E+03  0.17130000000E+03 0.  1.
      622    1    1    2    0    0  0.71378418502E-04  0.12552091163E-02  0.39926241511E+01  0.39926744411E+01  0.20000000000E-01 0. -1.
</event>
<event>
 5   0  0.3603037E+08  0.9118800E+02  0.7818608E-02  0.1180000E+00
       11   -1    0    0    0    0  0.00000000000E+00  0.00000000000E+00  0.39999999673E+01  0.40000000000E+01  0.51109989000E-03 0.  1.
     -623   -1    0    0    0    0  0.00000000000E+00  0.00000000000E+00  0.12525980253E-10  0.17130000000E+03  0.17130000000E+03 0.  1.
       11    1    1    2    0    0  0.15706525885E-02 -0.26936659431E-03  0.97379348036E-02  0.98806935177E-02  0.51109989000E-03 0.  1.
     -623    1    1    2    0    0 -0.30367035063E-03 -0.74099697153E-03  0.19318126107E-03  0.17130000000E+03  0.17130000000E+03 0.  1.
      622    1    1    2    0    0 -0.12669822378E-02  0.10103635658E-02  0.39900688513E+01  0.39901193045E+01  0.20000000000E-01 0.  1.
</event>
<event>
 5   0  0.3603037E+08  0.9118800E+02  0.7818608E-02  0.1180000E+00
       11   -1    0    0    0    0  0.00000000000E+00  0.00000000000E+00  0.39999999673E+01  0.40000000000E+01  0.51109989000E-03 0. -1.
     -623   -1    0    0    0    0  0.00000000000E+00  0.00000000000E+00  0.12525980253E-10  0.17130000000E+03  0.17130000000E+03 0. -1.
       11    1    1    2    0    0 -0.60016279697E-03 -0.10747993483E-02  0.15911148633E+00  0.15911706914E+00  0.51109989000E-03 0. -1.
     -623    1    1    2    0    0  0.26133327929E-03  0.17425638750E-03  0.57742701351E-04  0.17130000000E+03  0.17130000000E+03 0. -1.
      622    1    1    2    0    0  0.33882951767E-03  0.90054296075E-03  0.38408307383E+01  0.38408829306E+01  0.20000000000E-01 0. -1.
</event>
<event>
 5   0  0.3603037E+08  0.9118800E+02  0.7818608E-02  0.1180000E+00
       11   -1    0    0    0    0  0.00000000000E+00  0.00000000000E+00  0.39999999673E+01  0.40000000000E+01  0.51109989000E-03 0.  1.
     -623   -1    0    0    0    0  0.00000000000E+00  0.00000000000E+00  0.12525980253E-10  0.17130000000E+03  0.17130000000E+03 0.  1.
       11    1    1    2    0    0  0.74491680685E-03  0.21856928436E-02  0.27776472945E+00  0.27777479781E+00  0.51109989000E-03 0.  1.
     -623    1    1    2    0    0 -0.38910970524E-03  0.59863217281E-03  0.64827308969E-04  0.17130000000E+03  0.17130000000E+03 0.  1.
      622    1    1    2    0    0 -0.35580710162E-03 -0.27843250164E-02  0.37221704106E+01  0.37222252007E+01  0.20000000000E-01 0.  0.
</event>
<event>
 5   0  0.3603037E+08  0.9118800E+02  0.7818608E-02  0.1180000E+00
       11   -1    0    0    0    0  0.00000000000E+00  0.00000000000E+00  0.39999999673E+01  0.40000000000E+01  0.51109989000E-03 0.  1.
     -623   -1    0    0    0    0  0.00000000000E+00  0.00000000000E+00  0.12525980253E-10  0.17130000000E+03  0.17130000000E+03 0.  1.
       11    1    1    2    0    0 -0.38852930159E-03  0.23561901761E-02  0.51727968968E+00  0.51728545424E+00  0.51109989000E-03 0.  1.
     -623    1    1    2    0    0  0.80560020970E-02 -0.12606925200E-01  0.87338562475E-04  0.17130000065E+03  0.17130000000E+03 0.  1.
      622    1    1    2    0    0 -0.76674727954E-02  0.10250735024E-01  0.34826329391E+01  0.34827138924E+01  0.20000000000E-01 0.  1.
</event>
<event>
 5   0  0.3603037E+08  0.9118800E+02  0.7818608E-02  0.1180000E+00
       11   -1    0    0    0    0  0.00000000000E+00  0.00000000000E+00  0.39999999673E+01  0.40000000000E+01  0.51109989000E-03 0.  1.
     -623   -1    0    0    0    0  0.00000000000E+00  0.00000000000E+00  0.12525980253E-10  0.17130000000E+03  0.17130000000E+03 0. -1.
       11    1    1    2    0    0 -0.16833616156E-02  0.49697231711E-02  0.90394163261E-01  0.90547765441E-01  0.51109989000E-03 0.  1.
     -623    1    1    2    0    0 -0.28973200603E-03 -0.13978732920E-03  0.20820989487E-03  0.17130000000E+03  0.17130000000E+03 0. -1.
      622    1    1    2    0    0  0.19730936217E-02 -0.48299358419E-02  0.39093975942E+01  0.39094522341E+01  0.20000000000E-01 0.  1.
</event>
<event>
 5   0  0.3603037E+08  0.9118800E+02  0.7818608E-02  0.1180000E+00
       11   -1    0    0    0    0  0.00000000000E+00  0.00000000000E+00  0.39999999673E+01  0.40000000000E+01  0.51109989000E-03 0. -1.
     -623   -1    0    0    0    0  0.00000000000E+00  0.00000000000E+00  0.12525980253E-10  0.17130000000E+03  0.17130000000E+03 0.  1.
       11    1    1    2    0    0  0.59621942156E-02  0.89901305050E-03  0.77723002056E-01  0.77958208383E-01  0.51109989000E-03 0. -1.
     -623    1    1    2    0    0 -0.18084945538E-02 -0.10121346641E-02  0.28838182569E-03  0.17130000001E+03  0.17130000000E+03 0.  1.
      622    1    1    2    0    0 -0.41536996618E-02  0.11312161362E-03  0.39219885835E+01  0.39220417788E+01  0.20000000000E-01 0. -1.
</event>
<event>
 5   0  0.3603037E+08  0.9118800E+02  0.7818608E-02  0.1180000E+00
       11   -1    0    0    0    0  0.00000000000E+00  0.00000000000E+00  0.39999999673E+01  0.40000000000E+01  0.51109989000E-03 0. -1.
     -623   -1    0    0    0    0  0.00000000000E+00  0.00000000000E+00  0.12525980253E-10  0.17130000000E+03  0.17130000000E+03 0.  1.
       11    1    1    2    0    0 -0.76947654715E-02 -0.31350065399E-02  0.10041838894E+01  0.10042183939E+01  0.51109989000E-03 0. -1.
     -623    1    1    2    0    0  0.55352804852E-02 -0.10814016815E-01  0.13491809887E-03  0.17130000043E+03  0.17130000000E+03 0.  1.
      622    1    1    2    0    0  0.21594849863E-02  0.13949023355E-01  0.29956811599E+01  0.29957811753E+01  0.20000000000E-01 0. -1.
</event>
<event>
 5   0  0.3603037E+08  0.9118800E+02  0.7818608E-02  0.1180000E+00
       11   -1    0    0    0    0  0.00000000000E+00  0.00000000000E+00  0.39999999673E+01  0.40000000000E+01  0.51109989000E-03 0.  1.
     -623   -1    0    0    0    0  0.00000000000E+00  0.00000000000E+00  0.12525980253E-10  0.17130000000E+03  0.17130000000E+03 0.  1.
       11    1    1    2    0    0 -0.17284530365E-01  0.40677027478E-01  0.52873862349E+00  0.53058285757E+00  0.51109989000E-03 0.  1.
     -623    1    1    2    0    0  0.71084197014E-02 -0.16112506052E-02  0.21368935822E-02  0.17130000017E+03  0.17130000000E+03 0.  1.
      622    1    1    2    0    0  0.10176110664E-01 -0.39065776872E-01  0.34691244503E+01  0.34694169740E+01  0.20000000000E-01 0.  1.
</event>
<event>
 5   0  0.3603037E+08  0.9118800E+02  0.7818608E-02  0.1180000E+00
       11   -1    0    0    0    0  0.00000000000E+00  0.00000000000E+00  0.39999999673E+01  0.40000000000E+01  0.51109989000E-03 0. -1.
     -623   -1    0    0    0    0  0.00000000000E+00  0.00000000000E+00  0.12525980253E-10  0.17130000000E+03  0.17130000000E+03 0.  1.
       11    1    1    2    0    0 -0.55070036597E-02 -0.11067089981E-02  0.32541651994E+01  0.32541700875E+01  0.51109989000E-03 0. -1.
     -623    1    1    2    0    0  0.24225213769E-03 -0.16892104695E-03  0.29274174740E-03  0.17130000000E+03  0.17130000000E+03 0.  1.
      622    1    1    2    0    0  0.52647515220E-02  0.12756300450E-02  0.74554202619E+00  0.74582991201E+00  0.20000000000E-01 0. -1.
</event>
<event>
 5   0  0.3603037E+08  0.9118800E+02  0.7818608E-02  0.1180000E+00
       11   -1    0    0    0    0  0.00000000000E+00  0.00000000000E+00  0.39999999673E+01  0.40000000000E+01  0.51109989000E-03 0. -1.
     -623   -1    0    0    0    0  0.00000000000E+00  0.00000000000E+00  0.12525980253E-10  0.17130000000E+03  0.17130000000E+03 0. -1.
       11    1    1    2    0    0 -0.24312476957E-02 -0.20782202200E-02  0.93987167178E-02  0.99411800916E-02  0.51109989000E-03 0. -1.
     -623    1    1    2    0    0  0.23549881562E-02  0.35819982588E-02  0.59289439376E-03  0.17130000005E+03  0.17130000000E+03 0. -1.
      622    1    1    2    0    0  0.76259539449E-04 -0.15037780388E-02  0.39900083562E+01  0.39900587652E+01  0.20000000000E-01 0. -1.
</event>
<event>
 5   0  0.3603037E+08  0.9118800E+02  0.7818608E-02  0.1180000E+00
       11   -1    0    0    0    0  0.00000000000E+00  0.00000000000E+00  0.39999999673E+01  0.40000000000E+01  0.51109989000E-03 0. -1.
     -623   -1    0    0    0    0  0.00000000000E+00  0.00000000000E+00  0.12525980253E-10  0.17130000000E+03  0.17130000000E+03 0.  1.
       11    1    1    2    0    0  0.95533187328E-02 -0.33300586597E-03  0.19323821933E+01  0.19324059043E+01  0.51109989000E-03 0. -1.
     -623    1    1    2    0    0 -0.67033831731E-02 -0.11041502627E-01  0.15415193648E-03  0.17130000049E+03  0.17130000000E+03 0.  1.
      622    1    1    2    0    0 -0.28499355597E-02  0.11374508493E-01  0.20674636222E+01  0.20675936087E+01  0.20000000000E-01 0. -1.
</event>
<event>
 5   0  0.3603037E+08  0.9118800E+02  0.7818608E-02  0.1180000E+00
       11   -1    0    0    0    0  0.00000000000E+00  0.00000000000E+00  0.39999999673E+01  0.40000000000E+01  0.51109989000E-03 0.  1.
     -623   -1    0    0    0    0  0.00000000000E+00  0.00000000000E+00  0.12525980253E-10  0.17130000000E+03  0.17130000000E+03 0. -1.
       11    1    1    2    0    0 -0.48961596159E-03  0.98838671871E-03  0.68997593453E-02  0.70060354771E-02  0.51109989000E-03 0.  1.
     -623    1    1    2    0    0  0.19817697065E-02 -0.29702153018E-03  0.15668198901E-03  0.17130000001E+03  0.17130000000E+03 0. -1.
      622    1    1    2    0    0 -0.14921537449E-02 -0.69136518852E-03  0.39929435260E+01  0.39929939527E+01  0.20000000000E-01 0.  1.
</event>
<event>
 5   0  0.3603037E+08  0.9118800E+02  0.7818608E-02  0.1180000E+00
       11   -1    0    0    0    0  0.00000000000E+00  0.00000000000E+00  0.39999999673E+01  0.40000000000E+01  0.51109989000E-03 0.  1.
     -623   -1    0    0    0    0  0.00000000000E+00  0.00000000000E+00  0.12525980253E-10  0.17130000000E+03  0.17130000000E+03 0. -1.
       11    1    1    2    0    0  0.27643208920E-01 -0.34998693439E-02  0.92242433403E+00  0.92284522501E+00  0.51109989000E-03 0.  1.
     -623    1    1    2    0    0 -0.10679984631E-02  0.33011781754E-01  0.74533125769E-03  0.17130000319E+03  0.17130000000E+03 0. -1.
      622    1    1    2    0    0 -0.26575210457E-01 -0.29511912411E-01  0.30768303021E+01  0.30771515891E+01  0.20000000000E-01 0.  1.
</event>
<event>
 5   0  0.3603037E+08  0.9118800E+02  0.7818608E-02  0.1180000E+00
       11   -1    0    0    0    0  0.00000000000E+00  0.00000000000E+00  0.39999999673E+01  0.40000000000E+01  0.51109989000E-03 0.  1.
     -623   -1    0    0    0    0  0.00000000000E+00  0.00000000000E+00  0.12525980253E-10  0.17130000000E+03  0.17130000000E+03 0. -1.
       11    1    1    2    0    0  0.53081988608E-02 -0.47717857088E-04  0.48708654071E+00  0.48711573431E+00  0.51109989000E-03 0.  1.
     -623    1    1    2    0    0  0.39205099990E-03 -0.44829874727E-03  0.90755662864E-04  0.17130000000E+03  0.17130000000E+03 0. -1.
      622    1    1    2    0    0 -0.57002498607E-02  0.49601660436E-03  0.35128226710E+01  0.35128842646E+01  0.20000000000E-01 0.  1.
</event>
<event>
 5   0  0.3603037E+08  0.9118800E+02  0.7818608E-02  0.1180000E+00
       11   -1    0    0    0    0  0.00000000000E+00  0.00000000000E+00  0.39999999673E+01  0.40000000000E+01  0.51109989000E-03 0.  1.
     -623   -1    0    0    0    0  0.00000000000E+00  0.00000000000E+00  0.12525980253E-10  0.17130000000E+03  0.17130000000E+03 0.  1.
       11    1    1    2    0    0  0.92584920773E-03  0.12597741935E-03  0.12180427198E-01  0.12226900446E-01  0.51109989000E-03 0.  1.
     -623    1    1    2    0    0 -0.25328671902E-02 -0.73452476657E-04  0.96937150913E-04  0.17130000002E+03  0.17130000000E+03 0.  1.
      622    1    1    2    0    0  0.16070179825E-02 -0.52524942691E-04  0.39877226030E+01  0.39877730808E+01  0.20000000000E-01 0.  1.
</event>
<event>
 5   0  0.3603037E+08  0.9118800E+02  0.7818608E-02  0.1180000E+00
       11   -1    0    0    0    0  0.00000000000E+00  0.00000000000E+00  0.39999999673E+01  0.40000000000E+01  0.51109989000E-03 0.  1.
     -623   -1    0    0    0    0  0.00000000000E+00  0.00000000000E+00  0.12525980253E-10  0.17130000000E+03  0.17130000000E+03 0. -1.
       11    1    1    2    0    0 -0.33364091069E-03 -0.29316046071E-02  0.79448284440E-02  0.84904147060E-02  0.51109989000E-03 0.  1.
     -623    1    1    2    0    0  0.17796824522E-02  0.13152443848E-02  0.59626483969E-03  0.17130000002E+03  0.17130000000E+03 0. -1.
      622    1    1    2    0    0 -0.14460415416E-02  0.16163602222E-02  0.39914588741E+01  0.39915095700E+01  0.20000000000E-01 0.  1.
</event>
<event>
 5   0  0.3603037E+08  0.9118800E+02  0.7818608E-02  0.1180000E+00
       11   -1    0    0    0    0  0.00000000000E+00  0.00000000000E+00  0.39999999673E+01  0.40000000000E+01  0.51109989000E-03 0. -1.
     -623   -1    0    0    0    0  0.00000000000E+00  0.00000000000E+00  0.12525980253E-10  0.17130000000E+03  0.17130000000E+03 0.  1.
       11    1    1    2    0    0 -0.24574406325E-02 -0.49544881803E-02  0.70023896566E-01  0.70243813101E-01  0.51109989000E-03 0. -1.
     -623    1    1    2    0    0  0.74420744179E-03  0.53501102001E-02  0.27125672138E-03  0.17130000009E+03  0.17130000000E+03 0.  1.
      622    1    1    2    0    0  0.17132331907E-02 -0.39562201980E-03  0.39297048141E+01  0.39297561015E+01  0.20000000000E-01 0. -1.
</event>
<event>
 5   0  0.3603037E+08  0.9118800E+02  0.7818608E-02  0.1180000E+00
       11   -1    0    0    0    0  0.00000000000E+00  0.00000000000E+00  0.39999999673E+01  0.40000000000E+01  0.51109989000E-03 0.  1.
     -623   -1    0    0    0    0  0.00000000000E+00  0.00000000000E+00  0.12525980253E-10  0.17130000000E+03  0.17130000000E+03 0.  1.
       11    1    1    2    0    0  0.23568874668E-02 -0.36687144274E-03  0.13878380573E+00  0.13880524294E+00  0.51109989000E-03 0.  1.
     -623    1    1    2    0    0 -0.47879327409E-04 -0.25972891133E-03  0.73943824810E-04  0.17130000000E+03  0.17130000000E+03 0.  1.
      622    1    1    2    0    0 -0.23090081394E-02  0.62660035407E-03  0.38611422178E+01  0.38611947568E+01  0.20000000000E-01 0.  1.
</event>
<event>
 5   0  0.3603037E+08  0.9118800E+02  0.7818608E-02  0.1180000E+00
       11   -1    0    0    0    0  0.00000000000E+00  0.00000000000E+00  0.39999999673E+01  0.40000000000E+01  0.51109989000E-03 0. -1.
     -623   -1    0    0    0    0  0.00000000000E+00  0.00000000000E+00  0.12525980253E-10  0.17130000000E+03  0.17130000000E+03 0.  1.
       11    1    1    2    0    0 -0.28499168224E-03  0.64884193741E-02  0.10179072806E+01  0.10179281280E+01  0.51109989000E-03 0. -1.
     -623    1    1    2    0    0  0.11139224529E-02  0.14904994936E-03  0.95388965395E-04  0.17130000000E+03  0.17130000000E+03 0.  1.
      622    1    1    2    0    0 -0.82893077070E-03 -0.66374693234E-02  0.29819972978E+01  0.29820718683E+01  0.20000000000E-01 0. -1.
</event>
<event>
 5   0  0.3603037E+08  0.9118800E+02  0.7818608E-02  0.1180000E+00
       11   -1    0    0    0    0  0.00000000000E+00  0.00000000000E+00  0.39999999673E+01  0.40000000000E+01  0.51109989000E-03 0. -1.
     -623   -1    0    0    0    0  0.00000000000E+00  0.00000000000E+00  0.12525980253E-10  0.17130000000E+03  0.17130000000E+03 0.  1.
       11    1    1    2    0    0 -0.30563527281E-01  0.22578567546E-03  0.21633159732E+01  0.21635319367E+01  0.51109989000E-03 0. -1.
     -623    1    1    2    0    0  0.71479444804E-03 -0.19865301174E-02  0.56829817365E-03  0.17130000001E+03  0.17130000000E+03 0.  1.
      622    1    1    2    0    0  0.29848732833E-01  0.17607444419E-02  0.18361156960E+01  0.18364680493E+01  0.20000000000E-01 0. -1.
</event>
<event>
 5   0  0.3603037E+08  0.9118800E+02  0.7818608E-02  0.1180000E+00
       11   -1    0    0    0    0  0.00000000000E+00  0.00000000000E+00  0.39999999673E+01  0.40000000000E+01  0.51109989000E-03 0. -1.
     -623   -1    0    0    0    0  0.00000000000E+00  0.00000000000E+00  0.12525980253E-10  0.17130000000E+03  0.17130000000E+03 0.  1.
       11    1    1    2    0    0 -0.71706506081E-02 -0.17822823843E-02  0.14469607652E+00  0.14488550839E+00  0.51109989000E-03 0. -1.
     -623    1    1    2    0    0  0.51189283063E-02  0.74154978616E-02  0.24617763571E-03  0.17130000024E+03  0.17130000000E+03 0.  1.
      622    1    1    2    0    0  0.20517223018E-02 -0.56332154774E-02  0.38550577132E+01  0.38551142544E+01  0.20000000000E-01 0. -1.
</event>
<event>
 5   0  0.3603037E+08  0.9118800E+02  0.7818608E-02  0.1180000E+00
       11   -1    0    0    0    0  0.00000000000E+00  0.00000000000E+00  0.39999999673E+01  0.40000000000E+01  0.51109989000E-03 0. -1.
     -623   -1    0    0    0    0  0.00000000000E+00  0.00000000000E+00  0.12525980253E-10  0.17130000000E+03  0.17130000000E+03 0.  1.
       11    1    1    2    0    0 -0.11949513843E-01 -0.14804664901E-01  0.82358848456E+00  0.82380836492E+00  0.51109989000E-03 0. -1.
     -623    1    1    2    0    0 -0.20260066790E-02  0.54970217305E-02  0.32730302580E-03  0.17130000010E+03  0.17130000000E+03 0.  1.
      622    1    1    2    0    0  0.13975520522E-01  0.93076431709E-02  0.31760841798E+01  0.31761915346E+01  0.20000000000E-01 0. -1.
</event>
<event>
 5   0  0.3603037E+08  0.9118800E+02  0.7818608E-02  0.1180000E+00
       11   -1    0    0    0    0  0.00000000000E+00  0.00000000000E+00  0.39999999673E+01  0.40000000000E+01  0.51109989000E-03 0.  1.
     -623   -1    0    0    0    0  0.00000000000E+00  0.00000000000E+00  0.12525980253E-10  0.17130000000E+03  0.17130000000E+03 0.  1.
       11    1    1    2    0    0  0.15500101933E-02 -0.36075994826E-03  0.27105720430E-01  0.27157208617E-01  0.51109989000E-03 0.  1.
     -623    1    1    2    0    0 -0.42588496189E-03  0.11285620391E-02  0.10203516323E-03  0.17130000000E+03  0.17130000000E+03 0.  1.
      622    1    1    2    0    0 -0.11241252314E-02 -0.76780209080E-03  0.39727922118E+01  0.39728427871E+01  0.20000000000E-01 0.  1.
</event>
<event>
 5   0  0.3603037E+08  0.9118800E+02  0.7818608E-02  0.1180000E+00
       11   -1    0    0    0    0  0.00000000000E+00  0.00000000000E+00  0.39999999673E+01  0.40000000000E+01  0.51109989000E-03 0.  1.
     -623   -1    0    0    0    0  0.00000000000E+00  0.00000000000E+00  0.12525980253E-10  0.17130000000E+03  0.17130000000E+03 0. -1.
       11    1    1    2    0    0 -0.55321848888E-04 -0.31816576484E-02  0.38899177871E+00  0.38900512996E+00  0.51109989000E-03 0.  1.
     -623    1    1    2    0    0  0.14496245348E-02  0.29259919302E-02  0.69014811406E-04  0.17130000003E+03  0.17130000000E+03 0. -1.
      622    1    1    2    0    0 -0.13943026859E-02  0.25566571819E-03  0.36109391738E+01  0.36109948389E+01  0.20000000000E-01 0.  1.
</event>
<event>
 5   0  0.3603037E+08  0.9118800E+02  0.7818608E-02  0.1180000E+00
       11   -1    0    0    0    0  0.00000000000E+00  0.00000000000E+00  0.39999999673E+01  0.40000000000E+01  0.51109989000E-03 0.  1.
     -623   -1    0    0    0    0  0.00000000000E+00  0.00000000000E+00  0.12525980253E-10  0.17130000000E+03  0.17130000000E+03 0. -1.
       11    1    1    2    0    0 -0.11579021692E-02  0.29182016874E-02  0.27478449157E+00  0.27480290149E+00  0.51109989000E-03 0.  1.
     -623    1    1    2    0    0 -0.81415378626E-03 -0.55531306196E-03  0.73340346304E-04  0.17130000000E+03  0.17130000000E+03 0. -1.
      622    1    1    2    0    0  0.19720559554E-02 -0.23628886254E-02  0.37251421354E+01  0.37251970957E+01  0.20000000000E-01 0.  1.
</event>
<event>
 5   0  0.3603037E+08  0.9118800E+02  0.7818608E-02  0.1180000E+00
       11   -1    0    0    0    0  0.00000000000E+00  0.00000000000E+00  0.39999999673E+01  0.40000000000E+01  0.51109989000E-03 0. -1.
     -623   -1    0    0    0    0  0.00000000000E+00  0.00000000000E+00  0.12525980253E-10  0.17130000000E+03  0.17130000000E+03 0. -1.
       11    1    1    2    0    0 -0.26872372332E-02 -0.45323614533E-02  0.69628846083E-01  0.69829800032E-01  0.51109989000E-03 0. -1.
     -623    1    1    2    0    0 -0.30646035953E-02  0.96884808062E-02  0.25970290102E-03  0.17130000030E+03  0.17130000000E+03 0. -1.
      622    1    1    2    0    0  0.57518408285E-02 -0.51561193530E-02  0.39301114184E+01  0.39301698984E+01  0.20000000000E-01 0. -1.
</event>
<event>
 5   0  0.3603037E+08  0.9118800E+02  0.7818608E-02  0.1180000E+00
       11   -1    0    0    0    0  0.00000000000E+00  0.00000000000E+00  0.39999999673E+01  0.40000000000E+01  0.51109989000E-03 0.  1.
     -623   -1    0    0    0    0  0.00000000000E+00  0.00000000000E+00  0.12525980253E-10  0.17130000000E+03  0.17130000000E+03 0.  1.
       11    1    1    2    0    0  0.36448221505E-02  0.93762711045E-03  0.48589400035E-01  0.48737612695E-01  0.51109989000E-03 0.  1.
     -623    1    1    2    0    0 -0.89053754941E-04  0.71018941604E-03  0.20074224639E-03  0.17130000000E+03  0.17130000000E+03 0.  1.
      622    1    1    2    0    0 -0.35557683956E-02 -0.16478165265E-02  0.39512098251E+01  0.39512623857E+01  0.20000000000E-01 0.  1.
</event>
<event>
 5   0  0.3603037E+08  0.9118800E+02  0.7818608E-02  0.1180000E+00
       11   -1    0    0    0    0  0.00000000000E+00  0.00000000000E+00  0.39999999673E+01  0.40000000000E+01  0.51109989000E-03 0.  1.
     -623   -1    0    0    0    0  0.00000000000E+00  0.00000000000E+00  0.12525980253E-10  0.17130000000E+03  0.17130000000E+03 0.  1.
       11    1    1    2    0    0  0.11293711674E-01 -0.80350588338E-02  0.83411433197E-01  0.84556717670E-01  0.51109989000E-03 0.  1.
     -623    1    1    2    0    0 -0.10269201019E-01 -0.12443363950E-02  0.12077785831E-02  0.17130000032E+03  0.17130000000E+03 0.  1.
      622    1    1    2    0    0 -0.10245106546E-02  0.92793952288E-02  0.39153807556E+01  0.39154429657E+01  0.20000000000E-01 0.  1.
</event>
<event>
 5   0  0.3603037E+08  0.9118800E+02  0.7818608E-02  0.1180000E+00
       11   -1    0    0    0    0  0.00000000000E+00  0.00000000000E+00  0.39999999673E+01  0.40000000000E+01  0.51109989000E-03 0.  1.
     -623   -1    0    0    0    0  0.00000000000E+00  0.00000000000E+00  0.12525980253E-10  0.17130000000E+03  0.17130000000E+03 0. -1.
       11    1    1    2    0    0  0.18492201073E-03 -0.19769481163E-02  0.23838977158E+00  0.23839858836E+00  0.51109989000E-03 0.  1.
     -623    1    1    2    0    0  0.17651051580E-03 -0.61949967672E-04  0.62523421343E-04  0.17130000000E+03  0.17130000000E+03 0. -1.
      622    1    1    2    0    0 -0.36143252653E-03  0.20388980839E-02  0.37615476724E+01  0.37616014115E+01  0.20000000000E-01 0.  1.
</event>
<event>
 5   0  0.3603037E+08  0.9118800E+02  0.7818608E-02  0.1180000E+00
       11   -1    0    0    0    0  0.00000000000E+00  0.00000000000E+00  0.39999999673E+01  0.40000000000E+01  0.51109989000E-03 0. -1.
     -623   -1    0    0    0    0  0.00000000000E+00  0.00000000000E+00  0.12525980253E-10  0.17130000000E+03  0.17130000000E+03 0.  1.
       11    1    1    2    0    0  0.14830801757E-03 -0.29265993981E-03  0.21631093046E-01  0.21639617649E-01  0.51109989000E-03 0. -1.
     -623    1    1    2    0    0  0.39887129654E-03  0.14536531719E-03  0.58805139611E-04  0.17130000000E+03  0.17130000000E+03 0.  1.
      622    1    1    2    0    0 -0.54717931411E-03  0.14729462261E-03  0.39783100692E+01  0.39783603818E+01  0.20000000000E-01 0. -1.
</event>
<event>
 5   0  0.3603037E+08  0.9118800E+02  0.7818608E-02  0.1180000E+00
       11   -1    0    0    0    0  0.00000000000E+00  0.00000000000E+00  0.39999999673E+01  0.40000000000E+01  0.51109989000E-03 0.  1.
     -623   -1    0    0    0    0  0.00000000000E+00  0.00000000000E+00  0.12525980253E-10  0.17130000000E+03  0.17130000000E+03 0.  1.
       11    1    1    2    0    0  0.61157554887E-04  0.36207163519E-02  0.33572704077E+00  0.33574695896E+00  0.51109989000E-03 0.  1.
     -623    1    1    2    0    0 -0.53411695521E-03 -0.50978217738E-03  0.75820080465E-04  0.17130000000E+03  0.17130000000E+03 0.  1.
      622    1    1    2    0    0  0.47295940032E-03 -0.31109341745E-02  0.36641971065E+01  0.36642530394E+01  0.20000000000E-01 0.  1.
</event>
<event>
 5   0  0.3603037E+08  0.9118800E+02  0.7818608E-02  0.1180000E+00
       11   -1    0    0    0    0  0.00000000000E+00  0.00000000000E+00  0.39999999673E+01  0.40000000000E+01  0.51109989000E-03 0. -1.
     -623   -1    0    0    0    0  0.00000000000E+00  0.00000000000E+00  0.12525980253E-10  0.17130000000E+03  0.17130000000E+03 0.  1.
       11    1    1    2    0    0  0.13611395728E-02 -0.27987577940E-02  0.15891923461E-01  0.16201857893E-01  0.51109989000E-03 0. -1.
     -623    1    1    2    0    0 -0.26482440300E-02  0.14332621382E-02  0.36057424915E-03  0.17130000003E+03  0.17130000000E+03 0.  1.
      622    1    1    2    0    0  0.12871044572E-02  0.13654956558E-02  0.39837474696E+01  0.39837981153E+01  0.20000000000E-01 0. -1.
</event>
<event>
 5   0  0.3603037E+08  0.9118800E+02  0.7818608E-02  0.1180000E+00
       11   -1    0    0    0    0  0.00000000000E+00  0.00000000000E+00  0.39999999673E+01  0.40000000000E+01  0.51109989000E-03 0. -1.
     -623   -1    0    0    0    0  0.00000000000E+00  0.00000000000E+00  0.12525980253E-10  0.17130000000E+03  0.17130000000E+03 0. -1.
       11    1    1    2    0    0  0.17096065601E-01 -0.15658817078E-02  0.14145498784E+01  0.14146541440E+01  0.51109989000E-03 0. -1.
     -623    1    1    2    0    0 -0.14205406473E-01 -0.40288658509E-02  0.18989955743E-03  0.17130000064E+03  0.17130000000E+03 0. -1.
      622    1    1    2    0    0 -0.28906591271E-02  0.55947475587E-02  0.25852601894E+01  0.25853452195E+01  0.20000000000E-01 0.  1.
</event>
<event>
 5   0  0.3603037E+08  0.9118800E+02  0.7818608E-02  0.1180000E+00
       11   -1    0    0    0    0  0.00000000000E+00  0.00000000000E+00  0.39999999673E+01  0.40000000000E+01  0.51109989000E-03 0.  1.
     -623   -1    0    0    0    0  0.00000000000E+00  0.00000000000E+00  0.12525980253E-10  0.17130000000E+03  0.17130000000E+03 0. -1.
       11    1    1    2    0    0 -0.13661905469E-03  0.36502020590E-03  0.25453688447E-01  0.25461802395E-01  0.51109989000E-03 0.  1.
     -623    1    1    2    0    0 -0.32866841846E-03  0.16272472318E-03  0.58464613878E-04  0.17130000000E+03  0.17130000000E+03 0. -1.
      622    1    1    2    0    0  0.46528747315E-03 -0.52774492907E-03  0.39744878143E+01  0.39745381972E+01  0.20000000000E-01 0.  1.
</event>
<event>
 5   0  0.3603037E+08  0.9118800E+02  0.7818608E-02  0.1180000E+00
       11   -1    0    0    0    0  0.00000000000E+00  0.00000000000E+00  0.39999999673E+01  0.40000000000E+01  0.51109989000E-03 0.  1.
     -623   -1    0    0    0    0  0.00000000000E+00  0.00000000000E+00  0.12525980253E-10  0.17130000000E+03  0.17130000000E+03 0. -1.
       11    1    1    2    0    0 -0.46945063788E-03  0.35444643516E-02  0.13090181816E+00  0.13095163546E+00  0.51109989000E-03 0.  1.
     -623    1    1    2    0    0  0.11341347573E-03  0.67002942411E-04  0.10317930888E-03  0.17130000000E+03  0.17130000000E+03 0. -1.
      622    1    1    2    0    0  0.35603716215E-03 -0.36114672940E-02  0.38689949699E+01  0.38690483645E+01  0.20000000000E-01 0.  1.
</event>
<event>
 5   0  0.3603037E+08  0.9118800E+02  0.7818608E-02  0.1180000E+00
       11   -1    0    0    0    0  0.00000000000E+00  0.00000000000E+00  0.39999999673E+01  0.40000000000E+01  0.51109989000E-03 0.  1.
     -623   -1    0    0    0    0  0.00000000000E+00  0.00000000000E+00  0.12525980253E-10  0.17130000000E+03  0.17130000000E+03 0.  1.
       11    1    1    2    0    0 -0.32147336810E-03  0.24480370696E-03  0.23745307515E-01  0.23754244314E-01  0.51109989000E-03 0.  1.
     -623    1    1    2    0    0  0.11242637321E-03 -0.99986800776E-05  0.59215654121E-04  0.17130000000E+03  0.17130000000E+03 0.  1.
      622    1    1    2    0    0  0.20904699489E-03 -0.23480502689E-03  0.39761954442E+01  0.39762457556E+01  0.20000000000E-01 0.  1.
</event>
<event>
 5   0  0.3603037E+08  0.9118800E+02  0.7818608E-02  0.1180000E+00
       11   -1    0    0    0    0  0.00000000000E+00  0.00000000000E+00  0.39999999673E+01  0.40000000000E+01  0.51109989000E-03 0. -1.
     -623   -1    0    0    0    0  0.00000000000E+00  0.00000000000E+00  0.12525980253E-10  0.17130000000E+03  0.17130000000E+03 0. -1.
       11    1    1    2    0    0 -0.21692234274E-02  0.13579865731E-03  0.82944774514E+00  0.82945075026E+00  0.51109989000E-03 0. -1.
     -623    1    1    2    0    0  0.47176495053E-03  0.10201983992E-03  0.66517679157E-04  0.17130000000E+03  0.17130000000E+03 0. -1.
      622    1    1    2    0    0  0.16974584769E-02 -0.23781849723E-03  0.31704857045E+01  0.31705492490E+01  0.20000000000E-01 0. -1.
</event>
<event>
 5   0  0.3603037E+08  0.9118800E+02  0.7818608E-02  0.1180000E+00
       11   -1    0    0    0    0  0.00000000000E+00  0.00000000000E+00  0.39999999673E+01  0.40000000000E+01  0.51109989000E-03 0. -1.
     -623   -1    0    0    0    0  0.00000000000E+00  0.00000000000E+00  0.12525980253E-10  0.17130000000E+03  0.17130000000E+03 0. -1.
       11    1    1    2    0    0 -0.56430643200E-02  0.62875520015E-01  0.11159926258E+01  0.11177768012E+01  0.51109989000E-03 0. -1.
     -623    1    1    2    0    0 -0.57888065525E-02 -0.19175576622E-01  0.22087083497E-02  0.17130000119E+03  0.17130000000E+03 0. -1.
      622    1    1    2    0    0  0.11431870873E-01 -0.43699943393E-01  0.28817986332E+01  0.28822220135E+01  0.20000000000E-01 0. -1.
</event>
<event>
 5   0  0.3603037E+08  0.9118800E+02  0.7818608E-02  0.1180000E+00
       11   -1    0    0    0    0  0.00000000000E+00  0.00000000000E+00  0.39999999673E+01  0.40000000000E+01  0.51109989000E-03 0.  1.
     -623   -1    0    0    0    0  0.00000000000E+00  0.00000000000E+00  0.12525980253E-10  0.17130000000E+03  0.17130000000E+03 0. -1.
       11    1    1    2    0    0 -0.31553801025E-02 -0.89956912940E-03  0.47430706938E-01  0.47546806736E-01  0.51109989000E-03 0.  1.
     -623    1    1    2    0    0  0.41768264768E-02  0.16190727143E-02  0.16692510206E-03  0.17130000006E+03  0.17130000000E+03 0. -1.
      622    1    1    2    0    0 -0.10214463743E-02 -0.71950358486E-03  0.39524023353E+01  0.39524531346E+01  0.20000000000E-01 0.  1.
</event>
<event>
 5   0  0.3603037E+08  0.9118800E+02  0.7818608E-02  0.1180000E+00
       11   -1    0    0    0    0  0.00000000000E+00  0.00000000000E+00  0.39999999673E+01  0.40000000000E+01  0.51109989000E-03 0. -1.
     -623   -1    0    0    0    0  0.00000000000E+00  0.00000000000E+00  0.12525980253E-10  0.17130000000E+03  0.17130000000E+03 0.  1.
       11    1    1    2    0    0 -0.32997601912E-02 -0.38955897977E-02  0.91839086721E+00  0.91840519937E+00  0.51109989000E-03 0. -1.
     -623    1    1    2    0    0 -0.17515670402E-01 -0.11053794760E-02  0.15446282995E-03  0.17130000090E+03  0.17130000000E+03 0.  1.
      622    1    1    2    0    0  0.20815430594E-01  0.50009692737E-02  0.30814546373E+01  0.30815939015E+01  0.20000000000E-01 0.  0.
</event>
<event>
 5   0  0.3603037E+08  0.9118800E+02  0.7818608E-02  0.1180000E+00
       11   -1    0    0    0    0  0.00000000000E+00  0.00000000000E+00  0.39999999673E+01  0.40000000000E+01  0.51109989000E-03 0.  1.
     -623   -1    0    0    0    0  0.00000000000E+00  0.00000000000E+00  0.12525980253E-10  0.17130000000E+03  0.17130000000E+03 0. -1.
       11    1    1    2    0    0  0.21692710261E-01  0.30871365354E-04  0.95553346469E+00  0.95577980623E+00  0.51109989000E-03 0.  1.
     -623    1    1    2    0    0 -0.45074942058E-02  0.34250248030E-03  0.36059918385E-03  0.17130000006E+03  0.17130000000E+03 0. -1.
      622    1    1    2    0    0 -0.17185216055E-01 -0.37337384565E-03  0.30441059035E+01  0.30442201337E+01  0.20000000000E-01 0.  1.
</event>
<event>
 5   0  0.3603037E+08  0.9118800E+02  0.7818608E-02  0.1180000E+00
       11   -1    0    0    0    0  0.00000000000E+00  0.00000000000E+00  0.39999999673E+01  0.40000000000E+01  0.51109989000E-03 0.  1.
     -623   -1    0    0    0    0  0.00000000000E+00  0.00000000000E+00  0.12525980253E-10  0.17130000000E+03  0.17130000000E+03 0.  1.
       11    1    1    2    0    0 -0.17643591282E-02  0.11551170892E-02  0.37981421951E-01  0.38043355456E-01  0.51109989000E-03 0.  1.
     -623    1    1    2    0    0  0.17239422059E-03 -0.54298946615E-03  0.11274940699E-03  0.17130000000E+03  0.17130000000E+03 0.  1.
      622    1    1    2    0    0  0.15919649076E-02 -0.61212762310E-03  0.39619057960E+01  0.39619566436E+01  0.20000000000E-01 0.  1.
</event>
<event>
 5   0  0.3603037E+08  0.9118800E+02  0.7818608E-02  0.1180000E+00
       11   -1    0    0    0    0  0.00000000000E+00  0.00000000000E+00  0.39999999673E+01  0.40000000000E+01  0.51109989000E-03 0. -1.
     -623   -1    0    0    0    0  0.00000000000E+00  0.00000000000E+00  0.12525980253E-10  0.17130000000E+03  0.17130000000E+03 0. -1.
       11    1    1    2    0    0 -0.26227314688E-01  0.62525772684E-02  0.70186785280E+00  0.70238572791E+00  0.51109989000E-03 0. -1.
     -623    1    1    2    0    0  0.72856659288E-03  0.92760879051E-03  0.68490339190E-03  0.17130000001E+03  0.17130000000E+03 0. -1.
      622    1    1    2    0    0  0.25498748095E-01 -0.71801860589E-02  0.32974472112E+01  0.32976142667E+01  0.20000000000E-01 0.  0.
</event>
<event>
 5   0  0.3603037E+08  0.9118800E+02  0.7818608E-02  0.1180000E+00
       11   -1    0    0    0    0  0.00000000000E+00  0.00000000000E+00  0.39999999673E+01  0.40000000000E+01  0.51109989000E-03 0. -1.
     -623   -1    0    0    0    0  0.00000000000E+00  0.00000000000E+00  0.12525980253E-10  0.17130000000E+03  0.17130000000E+03 0. -1.
       11    1    1    2    0    0  0.10914299618E-02 -0.26988840784E-03  0.48611415811E-02  0.50155736523E-02  0.51109989000E-03 0. -1.
     -623    1    1    2    0    0 -0.70514306776E-05 -0.40247217531E-03  0.20466686486E-03  0.17130000000E+03  0.17130000000E+03 0. -1.
      622    1    1    2    0    0 -0.10843785311E-02  0.67236058315E-03  0.39949341589E+01  0.39949844258E+01  0.20000000000E-01 0. -1.
</event>
<event>
 5   0  0.3603037E+08  0.9118800E+02  0.7818608E-02  0.1180000E+00
       11   -1    0    0    0    0  0.00000000000E+00  0.00000000000E+00  0.39999999673E+01  0.40000000000E+01  0.51109989000E-03 0. -1.
     -623   -1    0    0    0    0  0.00000000000E+00  0.00000000000E+00  0.12525980253E-10  0.17130000000E+03  0.17130000000E+03 0.  1.
       11    1    1    2    0    0  0.30380622680E-02  0.15405421163E-02  0.20937383313E-01  0.21218820310E-01  0.51109989000E-03 0. -1.
     -623    1    1    2    0    0 -0.18728287831E-04  0.92580854642E-03  0.33358421705E-03  0.17130000000E+03  0.17130000000E+03 0.  1.
      622    1    1    2    0    0 -0.30193339802E-02 -0.24663506628E-02  0.39787289998E+01  0.39787811769E+01  0.20000000000E-01 0. -1.
</event>
<event>
 5   0  0.3603037E+08  0.9118800E+02  0.7818608E-02  0.1180000E+00
       11   -1    0    0    0    0  0.00000000000E+00  0.00000000000E+00  0.39999999673E+01  0.40000000000E+01  0.51109989000E-03 0. -1.
     -623   -1    0    0    0    0  0.00000000000E+00  0.00000000000E+00  0.12525980253E-10  0.17130000000E+03  0.17130000000E+03 0.  1.
       11    1    1    2    0    0 -0.56797970576E-02 -0.33187073071E-02  0.12084334521E+01  0.12084514650E+01  0.51109989000E-03 0. -1.
     -623    1    1    2    0    0  0.22423472789E-03 -0.10140030910E-02  0.98322726720E-04  0.17130000000E+03  0.17130000000E+03 0.  1.
      622    1    1    2    0    0  0.54555623297E-02  0.43327103982E-02  0.27914681925E+01  0.27915485318E+01  0.20000000000E-01 0. -1.
</event>
<event>
 5   0  0.3603037E+08  0.9118800E+02  0.7818608E-02  0.1180000E+00
       11   -1    0    0    0    0  0.00000000000E+00  0.00000000000E+00  0.39999999673E+01  0.40000000000E+01  0.51109989000E-03 0.  1.
     -623   -1    0    0    0    0  0.00000000000E+00  0.00000000000E+00  0.12525980253E-10  0.17130000000E+03  0.17130000000E+03 0.  1.
       11    1    1    2    0    0  0.23742270111E-02  0.48790488039E-02  0.67052268640E-01  0.67273397593E-01  0.51109989000E-03 0.  1.
     -623    1    1    2    0    0 -0.33011325341E-02 -0.45108620601E-02  0.27216982976E-03  0.17130000009E+03  0.17130000000E+03 0.  1.
      622    1    1    2    0    0  0.92690552305E-03 -0.36818674385E-03  0.39326755289E+01  0.39327265110E+01  0.20000000000E-01 0.  1.
</event>
<event>
 5   0  0.3603037E+08  0.9118800E+02  0.7818608E-02  0.1180000E+00
       11   -1    0    0    0    0  0.00000000000E+00  0.00000000000E+00  0.39999999673E+01  0.40000000000E+01  0.51109989000E-03 0. -1.
     -623   -1    0    0    0    0  0.00000000000E+00  0.00000000000E+00  0.12525980253E-10  0.17130000000E+03  0.17130000000E+03 0. -1.
       11    1    1    2    0    0  0.59457618295E-02 -0.66315506151E-02  0.12829452126E+00  0.12860433490E+00  0.51109989000E-03 0. -1.
     -623    1    1    2    0    0 -0.55920875546E-02 -0.19468199670E-02  0.37106545119E-03  0.17130000010E+03  0.17130000000E+03 0. -1.
      622    1    1    2    0    0 -0.35367427492E-03  0.85783705820E-02  0.38713343806E+01  0.38713955624E+01  0.20000000000E-01 0. -1.
</event>
<event>
 5   0  0.3603037E+08  0.9118800E+02  0.7818608E-02  0.1180000E+00
       11   -1    0    0    0    0  0.00000000000E+00  0.00000000000E+00  0.39999999673E+01  0.40000000000E+01  0.51109989000E-03 0. -1.
     -623   -1    0    0    0    0  0.00000000000E+00  0.00000000000E+00  0.12525980253E-10  0.17130000000E+03  0.17130000000E+03 0. -1.
       11    1    1    2    0    0 -0.30626713171E-01 -0.20665129135E-01  0.10576690266E+01  0.10583142606E+01  0.51109989000E-03 0. -1.
     -623    1    1    2    0    0 -0.18608963383E-02  0.92311588785E-02  0.91507900497E-03  0.17130000026E+03  0.17130000000E+03 0. -1.
      622    1    1    2    0    0  0.32487609509E-01  0.11433970256E-01  0.29414158618E+01  0.29416854781E+01  0.20000000000E-01 0. -1.
</event>
<event>
 5   0  0.3603037E+08  0.9118800E+02  0.7818608E-02  0.1180000E+00
       11   -1    0    0    0    0  0.00000000000E+00  0.00000000000E+00  0.39999999673E+01  0.40000000000E+01  0.51109989000E-03 0. -1.
     -623   -1    0    0    0    0  0.00000000000E+00  0.00000000000E+00  0.12525980253E-10  0.17130000000E+03  0.17130000000E+03 0. -1.
       11    1    1    2    0    0  0.19082079114E-02  0.34931303577E-02  0.25371794355E+01  0.25371826092E+01  0.51109989000E-03 0. -1.
     -623    1    1    2    0    0 -0.11419561752E-02 -0.46414812915E-02  0.14058814820E-03  0.17130000007E+03  0.17130000000E+03 0. -1.
      622    1    1    2    0    0 -0.76625173624E-03  0.11483509337E-02  0.14626799437E+01  0.14628173241E+01  0.20000000000E-01 0. -1.
</event>
<event>
 5   0  0.3603037E+08  0.9118800E+02  0.7818608E-02  0.1180000E+00
       11   -1    0    0    0    0  0.00000000000E+00  0.00000000000E+00  0.39999999673E+01  0.40000000000E+01  0.51109989000E-03 0. -1.
     -623   -1    0    0    0    0  0.00000000000E+00  0.00000000000E+00  0.12525980253E-10  0.17130000000E+03  0.17130000000E+03 0.  1.
       11    1    1    2    0    0 -0.48370277867E-03 -0.37587566934E-02  0.90721587933E+00  0.90722393881E+00  0.51109989000E-03 0. -1.
     -623    1    1    2    0    0  0.54468992287E-04  0.19210770159E-03  0.74780865889E-04  0.17130000000E+03  0.17130000000E+03 0.  1.
      622    1    1    2    0    0  0.42923378638E-03  0.35666489918E-02  0.30927093072E+01  0.30927760611E+01  0.20000000000E-01 0.  0.
</event>
<event>
 5   0  0.3603037E+08  0.9118800E+02  0.7818608E-02  0.1180000E+00
       11   -1    0    0    0    0  0.00000000000E+00  0.00000000000E+00  0.39999999673E+01  0.40000000000E+01  0.51109989000E-03 0. -1.
     -623   -1    0    0    0    0  0.00000000000E+00  0.00000000000E+00  0.12525980253E-10  0.17130000000E+03  0.17130000000E+03 0. -1.
       11    1    1    2    0    0  0.20159597178E-02 -0.28825993272E-02  0.88148178226E+00  0.88148894897E+00  0.51109989000E-03 0. -1.
     -623    1    1    2    0    0 -0.88315490971E-03 -0.49641387902E-03  0.73307334742E-04  0.17130000000E+03  0.17130000000E+03 0. -1.
      622    1    1    2    0    0 -0.11328048081E-02  0.33790132062E-02  0.31184448778E+01  0.31185110480E+01  0.20000000000E-01 0. -1.
</event>
<event>
 5   0  0.3603037E+08  0.9118800E+02  0.7818608E-02  0.1180000E+00
       11   -1    0    0    0    0  0.00000000000E+00  0.00000000000E+00  0.39999999673E+01  0.40000000000E+01  0.51109989000E-03 0. -1.
     -623   -1    0    0    0    0  0.00000000000E+00  0.00000000000E+00  0.12525980253E-10  0.17130000000E+03  0.17130000000E+03 0.  1.
       11    1    1    2    0    0 -0.53430862138E-02  0.25997871554E-02  0.12730470942E+01  0.12730610640E+01  0.51109989000E-03 0. -1.
     -623    1    1    2    0    0  0.14922786667E-02  0.18077316146E-03  0.91423764844E-04  0.17130000001E+03  0.17130000000E+03 0.  1.
      622    1    1    2    0    0  0.38508075471E-02 -0.27805603169E-02  0.27268614494E+01  0.27269389294E+01  0.20000000000E-01 0. -1.
</event>
<event>
 5   0  0.3603037E+08  0.9118800E+02  0.7818608E-02  0.1180000E+00
       11   -1    0    0    0    0  0.00000000000E+00  0.00000000000E+00  0.39999999673E+01  0.40000000000E+01  0.51109989000E-03 0. -1.
     -623   -1    0    0    0    0  0.00000000000E+00  0.00000000000E+00  0.12525980253E-10  0.17130000000E+03  0.17130000000E+03 0. -1.
       11    1    1    2    0    0  0.63694591230E-02 -0.10577738851E-02  0.11610230112E+00  0.11628282093E+00  0.51109989000E-03 0. -1.
     -623    1    1    2    0    0 -0.25540124442E-02 -0.45660707325E-02  0.23801071760E-03  0.17130000008E+03  0.17130000000E+03 0. -1.
      622    1    1    2    0    0 -0.38154466788E-02  0.56238446176E-02  0.38836596555E+01  0.38837170990E+01  0.20000000000E-01 0. -1.
</event>
<event>
 5   0  0.3603037E+08  0.9118800E+02  0.7818608E-02  0.1180000E+00
       11   -1    0    0    0    0  0.00000000000E+00  0.00000000000E+00  0.39999999673E+01  0.40000000000E+01  0.51109989000E-03 0. -1.
     -623   -1    0    0    0    0  0.00000000000E+00  0.00000000000E+00  0.12525980253E-10  0.17130000000E+03  0.17130000000E+03 0. -1.
       11    1    1    2    0    0 -0.11345225916E-01  0.11289366627E-01  0.48209582328E-01  0.50799498022E-01  0.51109989000E-03 0. -1.
     -623    1    1    2    0    0  0.10678880895E-01 -0.15606672785E-01  0.26440068711E-02  0.17130000106E+03  0.17130000000E+03 0. -1.
      622    1    1    2    0    0  0.66634502113E-03  0.43173061581E-02  0.39491463782E+01  0.39491994378E+01  0.20000000000E-01 0. -1.
</event>
<event>
 5   0  0.3603037E+08  0.9118800E+02  0.7818608E-02  0.1180000E+00
       11   -1    0    0    0    0  0.00000000000E+00  0.00000000000E+00  0.39999999673E+01  0.40000000000E+01  0.51109989000E-03 0.  1.
     -623   -1    0    0    0    0  0.00000000000E+00  0.00000000000E+00  0.12525980253E-10  0.17130000000E+03  0.17130000000E+03 0.  1.
       11    1    1    2    0    0 -0.34523496540E-01  0.58680442757E-01  0.14121024301E+01  0.14137428340E+01  0.51109989000E-03 0.  1.
     -623    1    1    2    0    0 -0.13937153021E-02 -0.10695407432E-01  0.24127326169E-02  0.17130000036E+03  0.17130000000E+03 0.  1.
      622    1    1    2    0    0  0.35917211842E-01 -0.47985035325E-01  0.25854848046E+01  0.25862568095E+01  0.20000000000E-01 0.  1.
</event>
<event>
 5   0  0.3603037E+08  0.9118800E+02  0.7818608E-02  0.1180000E+00
       11   -1    0    0    0    0  0.00000000000E+00  0.00000000000E+00  0.39999999673E+01  0.40000000000E+01  0.51109989000E-03 0.  1.
     -623   -1    0    0    0    0  0.00000000000E+00  0.00000000000E+00  0.12525980253E-10  0.17130000000E+03  0.17130000000E+03 0. -1.
       11    1    1    2    0    0  0.10250388317E-02 -0.85403540511E-04  0.17261556121E-01  0.17299726547E-01  0.51109989000E-03 0.  1.
     -623    1    1    2    0    0  0.14027084222E-03 -0.20039968828E-03  0.88536224092E-04  0.17130000000E+03  0.17130000000E+03 0. -1.
      622    1    1    2    0    0 -0.11653096739E-02  0.28580322880E-03  0.39826498750E+01  0.39827002733E+01  0.20000000000E-01 0.  1.
</event>
<event>
 5   0  0.3603037E+08  0.9118800E+02  0.7818608E-02  0.1180000E+00
       11   -1    0    0    0    0  0.00000000000E+00  0.00000000000E+00  0.39999999673E+01  0.40000000000E+01  0.51109989000E-03 0.  1.
     -623   -1    0    0    0    0  0.00000000000E+00  0.00000000000E+00  0.12525980253E-10  0.17130000000E+03  0.17130000000E+03 0. -1.
       11    1    1    2    0    0  0.38121534661E-03 -0.18372489056E-02  0.11049582887E-01  0.11219416672E-01  0.51109989000E-03 0.  1.
     -623    1    1    2    0    0  0.15584708051E-02  0.23035262922E-02  0.22046369804E-03  0.17130000002E+03  0.17130000000E+03 0. -1.
      622    1    1    2    0    0 -0.19396861517E-02 -0.46627738658E-03  0.39887299208E+01  0.39887805606E+01  0.20000000000E-01 0.  1.
</event>
<event>
 5   0  0.3603037E+08  0.9118800E+02  0.7818608E-02  0.1180000E+00
       11   -1    0    0    0    0  0.00000000000E+00  0.00000000000E+00  0.39999999673E+01  0.40000000000E+01  0.51109989000E-03 0. -1.
     -623   -1    0    0    0    0  0.00000000000E+00  0.00000000000E+00  0.12525980253E-10  0.17130000000E+03  0.17130000000E+03 0. -1.
       11    1    1    2    0    0  0.36805241856E-03 -0.70265349057E-04  0.14682553373E+00  0.14682690141E+00  0.51109989000E-03 0. -1.
     -623    1    1    2    0    0  0.28268684754E-03  0.53340512626E-03  0.53324512635E-04  0.17130000000E+03  0.17130000000E+03 0. -1.
      622    1    1    2    0    0 -0.65073926610E-03 -0.46313977720E-03  0.38531211091E+01  0.38531730975E+01  0.20000000000E-01 0. -1.
</event>
<event>
 5   0  0.3603037E+08  0.9118800E+02  0.7818608E-02  0.1180000E+00
       11   -1    0    0    0    0  0.00000000000E+00  0.00000000000E+00  0.39999999673E+01  0.40000000000E+01  0.51109989000E-03 0. -1.
     -623   -1    0    0    0    0  0.00000000000E+00  0.00000000000E+00  0.12525980253E-10  0.17130000000E+03  0.17130000000E+03 0.  1.
       11    1    1    2    0    0 -0.20102879996E-02 -0.39784265049E-03  0.39066125202E+00  0.39066696122E+00  0.51109989000E-03 0. -1.
     -623    1    1    2    0    0  0.29327135264E-02  0.30076709924E-02  0.62201846488E-04  0.17130000005E+03  0.17130000000E+03 0.  1.
      622    1    1    2    0    0 -0.92242552680E-03 -0.26098283419E-02  0.36092765135E+01  0.36093329873E+01  0.20000000000E-01 0. -1.
</event>
<event>
 5   0  0.3603037E+08  0.9118800E+02  0.7818608E-02  0.1180000E+00
       11   -1    0    0    0    0  0.00000000000E+00  0.00000000000E+00  0.39999999673E+01  0.40000000000E+01  0.51109989000E-03 0.  1.
     -623   -1    0    0    0    0  0.00000000000E+00  0.00000000000E+00  0.12525980253E-10  0.17130000000E+03  0.17130000000E+03 0.  1.
       11    1    1    2    0    0 -0.17654624915E-02  0.17053264216E-02  0.27614452444E-01  0.27728039968E-01  0.51109989000E-03 0.  1.
     -623    1    1    2    0    0 -0.21652183679E-02  0.54761425209E-03  0.16650255646E-03  0.17130000001E+03  0.17130000000E+03 0.  1.
      622    1    1    2    0    0  0.39306808594E-02 -0.22529406737E-02  0.39722190124E+01  0.39722719454E+01  0.20000000000E-01 0.  1.
</event>
<event>
 5   0  0.3603037E+08  0.9118800E+02  0.7818608E-02  0.1180000E+00
       11   -1    0    0    0    0  0.00000000000E+00  0.00000000000E+00  0.39999999673E+01  0.40000000000E+01  0.51109989000E-03 0. -1.
     -623   -1    0    0    0    0  0.00000000000E+00  0.00000000000E+00  0.12525980253E-10  0.17130000000E+03  0.17130000000E+03 0. -1.
       11    1    1    2    0    0 -0.26369294736E-02  0.24359108574E-02  0.66855928838E-02  0.76056184979E-02  0.51109989000E-03 0. -1.
     -623    1    1    2    0    0  0.26483934424E-02 -0.34722061591E-02  0.97028146387E-03  0.17130000006E+03  0.17130000000E+03 0. -1.
      622    1    1    2    0    0 -0.11463968774E-04  0.10362953016E-02  0.39923440930E+01  0.39923943231E+01  0.20000000000E-01 0. -1.
</event>
<event>
 5   0  0.3603037E+08  0.9118800E+02  0.7818608E-02  0.1180000E+00
       11   -1    0    0    0    0  0.00000000000E+00  0.00000000000E+00  0.39999999673E+01  0.40000000000E+01  0.51109989000E-03 0.  1.
     -623   -1    0    0    0    0  0.00000000000E+00  0.00000000000E+00  0.12525980253E-10  0.17130000000E+03  0.17130000000E+03 0. -1.
       11    1    1    2    0    0  0.64444860021E-03 -0.83995195877E-03  0.10295834421E-01  0.10362734301E-01  0.51109989000E-03 0.  1.
     -623    1    1    2    0    0 -0.79605865508E-03  0.74518991399E-04  0.11707563942E-03  0.17130000000E+03  0.17130000000E+03 0. -1.
      622    1    1    2    0    0  0.15161005487E-03  0.76543296737E-03  0.39895870573E+01  0.39896372638E+01  0.20000000000E-01 0.  1.
</event>
<event>
 5   0  0.3603037E+08  0.9118800E+02  0.7818608E-02  0.1180000E+00
       11   -1    0    0    0    0  0.00000000000E+00  0.00000000000E+00  0.39999999673E+01  0.40000000000E+01  0.51109989000E-03 0. -1.
     -623   -1    0    0    0    0  0.00000000000E+00  0.00000000000E+00  0.12525980253E-10  0.17130000000E+03  0.17130000000E+03 0. -1.
       11    1    1    2    0    0 -0.50300029943E-03  0.78968208774E-02  0.15174476146E+00  0.15195179051E+00  0.51109989000E-03 0. -1.
     -623    1    1    2    0    0  0.45469120470E-02 -0.52231379856E-02  0.26216511778E-03  0.17130000014E+03  0.17130000000E+03 0. -1.
      622    1    1    2    0    0 -0.40439117476E-02 -0.26736828918E-02  0.38479930408E+01  0.38480480693E+01  0.20000000000E-01 0. -1.
</event>
<event>
 5   0  0.3603037E+08  0.9118800E+02  0.7818608E-02  0.1180000E+00
       11   -1    0    0    0    0  0.00000000000E+00  0.00000000000E+00  0.39999999673E+01  0.40000000000E+01  0.51109989000E-03 0.  1.
     -623   -1    0    0    0    0  0.00000000000E+00  0.00000000000E+00  0.12525980253E-10  0.17130000000E+03  0.17130000000E+03 0. -1.
       11    1    1    2    0    0 -0.11796740044E-02 -0.19253247181E-01  0.16894011052E+01  0.16895113005E+01  0.51109989000E-03 0.  1.
     -623    1    1    2    0    0  0.42517071297E-03  0.79450578204E-03  0.27059024433E-03  0.17130000000E+03  0.17130000000E+03 0. -1.
      622    1    1    2    0    0  0.75450329140E-03  0.18458741399E-01  0.23103282720E+01  0.23104886969E+01  0.20000000000E-01 0.  0.
</event>
<event>
 5   0  0.3603037E+08  0.9118800E+02  0.7818608E-02  0.1180000E+00
       11   -1    0    0    0    0  0.00000000000E+00  0.00000000000E+00  0.39999999673E+01  0.40000000000E+01  0.51109989000E-03 0. -1.
     -623   -1    0    0    0    0  0.00000000000E+00  0.00000000000E+00  0.12525980253E-10  0.17130000000E+03  0.17130000000E+03 0.  1.
       11    1    1    2    0    0 -0.12297303708E-02 -0.12129882747E-02  0.77488106772E-01  0.77509041340E-01  0.51109989000E-03 0. -1.
     -623    1    1    2    0    0  0.13473468111E-03  0.52221332111E-04  0.72214937046E-04  0.17130000000E+03  0.17130000000E+03 0.  1.
      622    1    1    2    0    0  0.10949956897E-02  0.11607669425E-02  0.39224396457E+01  0.39224909586E+01  0.20000000000E-01 0. -1.
</event>
<event>
 5   0  0.3603037E+08  0.9118800E+02  0.7818608E-02  0.1180000E+00
       11   -1    0    0    0    0  0.00000000000E+00  0.00000000000E+00  0.39999999673E+01  0.40000000000E+01  0.51109989000E-03 0. -1.
     -623   -1    0    0    0    0  0.00000000000E+00  0.00000000000E+00  0.12525980253E-10  0.17130000000E+03  0.17130000000E+03 0.  1.
       11    1    1    2    0    0 -0.97257525083E-03  0.49147664196E-02  0.16187554547E+01  0.16187632885E+01  0.51109989000E-03 0. -1.
     -623    1    1    2    0    0  0.25240465630E-03 -0.17436767443E-02  0.94022141293E-04  0.17130000001E+03  0.17130000000E+03 0.  1.
      622    1    1    2    0    0  0.72017059454E-03 -0.31710896752E-02  0.23811504905E+01  0.23812367024E+01  0.20000000000E-01 0. -1.
</event>
<event>
 5   0  0.3603037E+08  0.9118800E+02  0.7818608E-02  0.1180000E+00
       11   -1    0    0    0    0  0.00000000000E+00  0.00000000000E+00  0.39999999673E+01  0.40000000000E+01  0.51109989000E-03 0.  1.
     -623   -1    0    0    0    0  0.00000000000E+00  0.00000000000E+00  0.12525980253E-10  0.17130000000E+03  0.17130000000E+03 0.  1.
       11    1    1    2    0    0  0.26454615052E-02 -0.11534650653E-01  0.71230152125E+00  0.71240000352E+00  0.51109989000E-03 0.  1.
     -623    1    1    2    0    0  0.46501453496E-02  0.21723118788E-02  0.18078816088E-03  0.17130000008E+03  0.17130000000E+03 0.  1.
      622    1    1    2    0    0 -0.72956068548E-02  0.93623387739E-02  0.32875176580E+01  0.32875999195E+01  0.20000000000E-01 0.  1.
</event>
<event>
 5   0  0.3603037E+08  0.9118800E+02  0.7818608E-02  0.1180000E+00
       11   -1    0    0    0    0  0.00000000000E+00  0.00000000000E+00  0.39999999673E+01  0.40000000000E+01  0.51109989000E-03 0. -1.
     -623   -1    0    0    0    0  0.00000000000E+00  0.00000000000E+00  0.12525980253E-10  0.17130000000E+03  0.17130000000E+03 0.  1.
       11    1    1    2    0    0  0.57468626010E-03  0.99548324404E-03  0.11262400292E-01  0.11332437166E-01  0.51109989000E-03 0. -1.
     -623    1    1    2    0    0 -0.21656484589E-02 -0.27137942438E-03  0.12054357922E-03  0.17130000001E+03  0.17130000000E+03 0.  1.
      622    1    1    2    0    0  0.15909621988E-02 -0.72410381966E-03  0.39886170235E+01  0.39886675489E+01  0.20000000000E-01 0. -1.
</event>
<event>
 5   0  0.3603037E+08  0.9118800E+02  0.7818608E-02  0.1180000E+00
       11   -1    0    0    0    0  0.00000000000E+00  0.00000000000E+00  0.39999999673E+01  0.40000000000E+01  0.51109989000E-03 0.  1.
     -623   -1    0    0    0    0  0.00000000000E+00  0.00000000000E+00  0.12525980253E-10  0.17130000000E+03  0.17130000000E+03 0.  1.
       11    1    1    2    0    0 -0.19677326502E-01  0.57113392406E-02  0.38077200780E+00  0.38132322211E+00  0.51109989000E-03 0.  1.
     -623    1    1    2    0    0  0.88377146457E-02 -0.70752643169E-02  0.62331830553E-03  0.17130000038E+03  0.17130000000E+03 0.  1.
      622    1    1    2    0    0  0.10839611856E-01  0.13639250763E-02  0.36186046413E+01  0.36186764027E+01  0.20000000000E-01 0.  1.
</event>
<event>
 5   0  0.3603037E+08  0.9118800E+02  0.7818608E-02  0.1180000E+00
       11   -1    0    0    0    0  0.00000000000E+00  0.00000000000E+00  0.39999999673E+01  0.40000000000E+01  0.51109989000E-03 0. -1.
     -623   -1    0    0    0    0  0.00000000000E+00  0.00000000000E+00  0.12525980253E-10  0.17130000000E+03  0.17130000000E+03 0.  1.
       11    1    1    2    0    0  0.10141082656E-01 -0.39625058512E-02  0.84028290936E+00  0.84035359938E+00  0.51109989000E-03 0. -1.
     -623    1    1    2    0    0 -0.13475763752E-03 -0.72086929316E-03  0.15327386049E-03  0.17130000000E+03  0.17130000000E+03 0.  1.
      622    1    1    2    0    0 -0.10006325018E-01  0.46833751444E-02  0.31595637841E+01  0.31596463990E+01  0.20000000000E-01 0. -1.
</event>
<event>
 5   0  0.3603037E+08  0.9118800E+02  0.7818608E-02  0.1180000E+00
       11   -1    0    0    0    0  0.00000000000E+00  0.00000000000E+00  0.39999999673E+01  0.40000000000E+01  0.51109989000E-03 0.  1.
     -623   -1    0    0    0    0  0.00000000000E+00  0.00000000000E+00  0.12525980253E-10  0.17130000000E+03  0.17130000000E+03 0.  1.
       11    1    1    2    0    0  0.10015824877E-02 -0.27999068992E-03  0.36609849292E-01  0.36628183784E-01  0.51109989000E-03 0.  1.
     -623    1    1    2    0    0 -0.47657911780E-03 -0.19365886053E-03  0.68828118561E-04  0.17130000000E+03  0.17130000000E+03 0.  1.
      622    1    1    2    0    0 -0.52500336986E-03  0.47364955045E-03  0.39633212899E+01  0.39633718154E+01  0.20000000000E-01 0.  1.
</event>
<event>
 5   0  0.3603037E+08  0.9118800E+02  0.7818608E-02  0.1180000E+00
       11   -1    0    0    0    0  0.00000000000E+00  0.00000000000E+00  0.39999999673E+01  0.40000000000E+01  0.51109989000E-03 0. -1.
     -623   -1    0    0    0    0  0.00000000000E+00  0.00000000000E+00  0.12525980253E-10  0.17130000000E+03  0.17130000000E+03 0. -1.
       11    1    1    2    0    0  0.17489333790E-02  0.32699618739E-02  0.26322558491E+00  0.26325220074E+00  0.51109989000E-03 0. -1.
     -623    1    1    2    0    0  0.63556933515E-03 -0.34117735228E-03  0.82016173925E-04  0.17130000000E+03  0.17130000000E+03 0. -1.
      622    1    1    2    0    0 -0.23845027141E-02 -0.29287845217E-02  0.37366923663E+01  0.37367477977E+01  0.20000000000E-01 0. -1.
</event>
<event>
 5   0  0.3603037E+08  0.9118800E+02  0.7818608E-02  0.1180000E+00
       11   -1    0    0    0    0  0.00000000000E+00  0.00000000000E+00  0.39999999673E+01  0.40000000000E+01  0.51109989000E-03 0.  1.
     -623   -1    0    0    0    0  0.00000000000E+00  0.00000000000E+00  0.12525980253E-10  0.17130000000E+03  0.17130000000E+03 0.  1.
       11    1    1    2    0    0 -0.41309143234E-02 -0.13073110615E-01  0.90782116969E+00  0.90792483611E+00  0.51109989000E-03 0.  1.
     -623    1    1    2    0    0 -0.55512389423E-04 -0.27601674479E-03  0.19996663129E-03  0.17130000000E+03  0.17130000000E+03 0.  1.
      622    1    1    2    0    0  0.41864267128E-02  0.13349127360E-01  0.30919788310E+01  0.30920751635E+01  0.20000000000E-01 0.  0.
</event>
<event>
 5   0  0.3603037E+08  0.9118800E+02  0.7818608E-02  0.1180000E+00
       11   -1    0    0    0    0  0.00000000000E+00  0.00000000000E+00  0.39999999673E+01  0.40000000000E+01  0.51109989000E-03 0. -1.
     -623   -1    0    0    0    0  0.00000000000E+00  0.00000000000E+00  0.12525980253E-10  0.17130000000E+03  0.17130000000E+03 0.  1.
       11    1    1    2    0    0 -0.67356368179E-02 -0.16251385684E-03  0.57839326264E+00  0.57843272963E+00  0.51109989000E-03 0. -1.
     -623    1    1    2    0    0 -0.12601087279E-03  0.62064217898E-03  0.10479979968E-03  0.17130000000E+03  0.17130000000E+03 0.  1.
      622    1    1    2    0    0  0.68616476907E-02 -0.45812832214E-03  0.34215019049E+01  0.34215672692E+01  0.20000000000E-01 0. -1.
</event>
<event>
 5   0  0.3603037E+08  0.9118800E+02  0.7818608E-02  0.1180000E+00
       11   -1    0    0    0    0  0.00000000000E+00  0.00000000000E+00  0.39999999673E+01  0.40000000000E+01  0.51109989000E-03 0.  1.
     -623   -1    0    0    0    0  0.00000000000E+00  0.00000000000E+00  0.12525980253E-10  0.17130000000E+03  0.17130000000E+03 0.  1.
       11    1    1    2    0    0  0.46726678669E-02  0.36491413673E-02  0.14655662508E+00  0.14667738623E+00  0.51109989000E-03 0.  1.
     -623    1    1    2    0    0 -0.20081424383E-02  0.29342019763E-03  0.17558245445E-03  0.17130000001E+03  0.17130000000E+03 0.  1.
      622    1    1    2    0    0 -0.26645254286E-02 -0.39425615650E-02  0.38532677598E+01  0.38533226017E+01  0.20000000000E-01 0.  1.
</event>
<event>
 5   0  0.3603037E+08  0.9118800E+02  0.7818608E-02  0.1180000E+00
       11   -1    0    0    0    0  0.00000000000E+00  0.00000000000E+00  0.39999999673E+01  0.40000000000E+01  0.51109989000E-03 0.  1.
     -623   -1    0    0    0    0  0.00000000000E+00  0.00000000000E+00  0.12525980253E-10  0.17130000000E+03  0.17130000000E+03 0. -1.
       11    1    1    2    0    0  0.63380895193E-02  0.60380289348E-02  0.84381457504E-01  0.84835845992E-01  0.51109989000E-03 0.  1.
     -623    1    1    2    0    0 -0.36531358858E-03 -0.45539979192E-02  0.51033849837E-03  0.17130000006E+03  0.17130000000E+03 0. -1.
      622    1    1    2    0    0 -0.59727759307E-02 -0.14840310157E-02  0.39151081714E+01  0.39151640923E+01  0.20000000000E-01 0.  1.
</event>
<event>
 5   0  0.3603037E+08  0.9118800E+02  0.7818608E-02  0.1180000E+00
       11   -1    0    0    0    0  0.00000000000E+00  0.00000000000E+00  0.39999999673E+01  0.40000000000E+01  0.51109989000E-03 0.  1.
     -623   -1    0    0    0    0  0.00000000000E+00  0.00000000000E+00  0.12525980253E-10  0.17130000000E+03  0.17130000000E+03 0. -1.
       11    1    1    2    0    0  0.12925216461E-01 -0.12237388784E-01  0.20248107462E+01  0.20248890424E+01  0.51109989000E-03 0.  1.
     -623    1    1    2    0    0  0.13612808494E-02 -0.39736630217E-02  0.29778410479E-03  0.17130000005E+03  0.17130000000E+03 0. -1.
      622    1    1    2    0    0 -0.14286497311E-01  0.16211051806E-01  0.19748914371E+01  0.19751109058E+01  0.20000000000E-01 0.  1.
</event>
<event>
 5   0  0.3603037E+08  0.9118800E+02  0.7818608E-02  0.1180000E+00
       11   -1    0    0    0    0  0.00000000000E+00  0.00000000000E+00  0.39999999673E+01  0.40000000000E+01  0.51109989000E-03 0.  1.
     -623   -1    0    0    0    0  0.00000000000E+00  0.00000000000E+00  0.12525980253E-10  0.17130000000E+03  0.17130000000E+03 0.  1.
       11    1    1    2    0    0 -0.12131918260E-02  0.84953490583E-03  0.18456012145E+00  0.18456677164E+00  0.51109989000E-03 0.  1.
     -623    1    1    2    0    0  0.15464092483E-02  0.12797193605E-02  0.59657057777E-04  0.17130000001E+03  0.17130000000E+03 0.  1.
      622    1    1    2    0    0 -0.33321742227E-03 -0.21292542663E-02  0.38153801889E+01  0.38154332166E+01  0.20000000000E-01 0.  1.
</event>
<event>
 5   0  0.3603037E+08  0.9118800E+02  0.7818608E-02  0.1180000E+00
       11   -1    0    0    0    0  0.00000000000E+00  0.00000000000E+00  0.39999999673E+01  0.40000000000E+01  0.51109989000E-03 0.  1.
     -623   -1    0    0    0    0  0.00000000000E+00  0.00000000000E+00  0.12525980253E-10  0.17130000000E+03  0.17130000000E+03 0.  1.
       11    1    1    2    0    0 -0.97849714197E-03 -0.27727969215E-02  0.24225813507E+01  0.24225831890E+01  0.51109989000E-03 0.  1.
     -623    1    1    2    0    0  0.17529306757E-02  0.48957546122E-02  0.13029817723E-03  0.17130000008E+03  0.17130000000E+03 0.  1.
      622    1    1    2    0    0 -0.77443353377E-03 -0.21229576906E-02  0.15772883185E+01  0.15774167320E+01  0.20000000000E-01 0. -1.
</event>
<event>
 5   0  0.3603037E+08  0.9118800E+02  0.7818608E-02  0.1180000E+00
       11   -1    0    0    0    0  0.00000000000E+00  0.00000000000E+00  0.39999999673E+01  0.40000000000E+01  0.51109989000E-03 0.  1.
     -623   -1    0    0    0    0  0.00000000000E+00  0.00000000000E+00  0.12525980253E-10  0.17130000000E+03  0.17130000000E+03 0. -1.
       11    1    1    2    0    0 -0.23645293152E-02  0.73441373281E-02  0.20633960467E-01  0.22035174142E-01  0.51109989000E-03 0.  1.
     -623    1    1    2    0    0  0.79776773410E-02 -0.67605917120E-02  0.14557867815E-02  0.17130000033E+03  0.17130000000E+03 0. -1.
      622    1    1    2    0    0 -0.56131480258E-02 -0.58354561613E-03  0.39779102201E+01  0.39779645005E+01  0.20000000000E-01 0.  1.
</event>
<event>
 5   0  0.3603037E+08  0.9118800E+02  0.7818608E-02  0.1180000E+00
       11   -1    0    0    0    0  0.00000000000E+00  0.00000000000E+00  0.39999999673E+01  0.40000000000E+01  0.51109989000E-03 0.  1.
     -623   -1    0    0    0    0  0.00000000000E+00  0.00000000000E+00  0.12525980253E-10  0.17130000000E+03  0.17130000000E+03 0. -1.
       11    1    1    2    0    0  0.24674188267E-02  0.10733424913E-01  0.70922404865E+00  0.70930973980E+00  0.51109989000E-03 0.  1.
     -623    1    1    2    0    0 -0.14643582184E-01 -0.16256276224E-01  0.17499619186E-03  0.17130000140E+03  0.17130000000E+03 0. -1.
      622    1    1    2    0    0  0.12176163357E-01  0.55228513109E-02  0.32906009225E+01  0.32906888629E+01  0.20000000000E-01 0.  1.
</event>
<event>
 5   0  0.3603037E+08  0.9118800E+02  0.7818608E-02  0.1180000E+00
       11   -1    0    0    0    0  0.00000000000E+00  0.00000000000E+00  0.39999999673E+01  0.40000000000E+01  0.51109989000E-03 0.  1.
     -623   -1    0    0    0    0  0.00000000000E+00  0.00000000000E+00  0.12525980253E-10  0.17130000000E+03  0.17130000000E+03 0.  1.
       11    1    1    2    0    0 -0.67454170222E-03 -0.49425020727E-03  0.89506135249E-02  0.90041098924E-02  0.51109989000E-03 0.  1.
     -623    1    1    2    0    0  0.95006638521E-03  0.14788327747E-02  0.10371685787E-03  0.17130000001E+03  0.17130000000E+03 0.  1.
      622    1    1    2    0    0 -0.27552468299E-03 -0.98458256741E-03  0.39909456370E+01  0.39909958811E+01  0.20000000000E-01 0.  1.
</event>
<event>
 5   0  0.3603037E+08  0.9118800E+02  0.7818608E-02  0.1180000E+00
       11   -1    0    0    0    0  0.00000000000E+00  0.00000000000E+00  0.39999999673E+01  0.40000000000E+01  0.51109989000E-03 0.  1.
     -623   -1    0    0    0    0  0.00000000000E+00  0.00000000000E+00  0.12525980253E-10  0.17130000000E+03  0.17130000000E+03 0.  1.
       11    1    1    2    0    0  0.17671810887E-02 -0.69555809136E-02  0.11059203522E+00  0.11082582060E+00  0.51109989000E-03 0.  1.
     -623    1    1    2    0    0  0.11710876568E-02  0.11562854223E-02  0.29061981188E-03  0.17130000001E+03  0.17130000000E+03 0.  1.
      622    1    1    2    0    0 -0.29382687455E-02  0.57992954913E-02  0.38891173123E+01  0.38891741712E+01  0.20000000000E-01 0.  1.
</event>
<event>
 5   0  0.3603037E+08  0.9118800E+02  0.7818608E-02  0.1180000E+00
       11   -1    0    0    0    0  0.00000000000E+00  0.00000000000E+00  0.39999999673E+01  0.40000000000E+01  0.51109989000E-03 0. -1.
     -623   -1    0    0    0    0  0.00000000000E+00  0.00000000000E+00  0.12525980253E-10  0.17130000000E+03  0.17130000000E+03 0.  1.
       11    1    1    2    0    0 -0.20193993257E-02 -0.10948100798E-02  0.59764625965E-02  0.64230764091E-02  0.51109989000E-03 0. -1.
     -623    1    1    2    0    0  0.17605163408E-02  0.29436040727E-03  0.49676053518E-03  0.17130000001E+03  0.17130000000E+03 0.  1.
      622    1    1    2    0    0  0.25888298483E-03  0.80044967254E-03  0.39935267442E+01  0.39935769136E+01  0.20000000000E-01 0. -1.
</event>
<event>
 5   0  0.3603037E+08  0.9118800E+02  0.7818608E-02  0.1180000E+00
       11   -1    0    0    0    0  0.00000000000E+00  0.00000000000E+00  0.39999999673E+01  0.40000000000E+01  0.51109989000E-03 0. -1.
     -623   -1    0    0    0    0  0.00000000000E+00  0.00000000000E+00  0.12525980253E-10  0.17130000000E+03  0.17130000000E+03 0. -1.
       11    1    1    2    0    0 -0.24728433554E-02  0.32883830524E-02  0.20340536576E+00  0.20344761601E+00  0.51109989000E-03 0. -1.
     -623    1    1    2    0    0  0.41059562880E-02 -0.76640907057E-02  0.97990925286E-04  0.17130000022E+03  0.17130000000E+03 0. -1.
      622    1    1    2    0    0 -0.16331129326E-02  0.43757076533E-02  0.37964966107E+01  0.37965521633E+01  0.20000000000E-01 0. -1.
</event>
<event>
 5   0  0.3603037E+08  0.9118800E+02  0.7818608E-02  0.1180000E+00
       11   -1    0    0    0    0  0.00000000000E+00  0.00000000000E+00  0.39999999673E+01  0.40000000000E+01  0.51109989000E-03 0. -1.
     -623   -1    0    0    0    0  0.00000000000E+00  0.00000000000E+00  0.12525980253E-10  0.17130000000E+03  0.17130000000E+03 0. -1.
       11    1    1    2    0    0  0.29966278191E-02  0.83031586427E-02  0.31960444362E+00  0.31972673304E+00  0.51109989000E-03 0. -1.
     -623    1    1    2    0    0  0.21936344222E-01 -0.56416009497E-03  0.27060364631E-03  0.17130000141E+03  0.17130000000E+03 0. -1.
      622    1    1    2    0    0 -0.24932972041E-01 -0.77389985477E-02  0.36801249201E+01  0.36802718613E+01  0.20000000000E-01 0. -1.
</event>
<event>
 5   0  0.3603037E+08  0.9118800E+02  0.7818608E-02  0.1180000E+00
       11   -1    0    0    0    0  0.00000000000E+00  0.00000000000E+00  0.39999999673E+01  0.40000000000E+01  0.51109989000E-03 0. -1.
     -623   -1    0    0    0    0  0.00000000000E+00  0.00000000000E+00  0.12525980253E-10  0.17130000000E+03  0.17130000000E+03 0.  1.
       11    1    1    2    0    0  0.85983610516E-03 -0.64971385727E-02  0.21771394539E+00  0.21781316619E+00  0.51109989000E-03 0. -1.
     -623    1    1    2    0    0  0.77109366455E-03  0.16602167613E-03  0.15772052638E-03  0.17130000000E+03  0.17130000000E+03 0.  1.
      622    1    1    2    0    0 -0.16309297697E-02  0.63311168966E-02  0.37821283014E+01  0.37821868319E+01  0.20000000000E-01 0. -1.
</event>
<event>
 5   0  0.3603037E+08  0.9118800E+02  0.7818608E-02  0.1180000E+00
       11   -1    0    0    0    0  0.00000000000E+00  0.00000000000E+00  0.39999999673E+01  0.40000000000E+01  0.51109989000E-03 0. -1.
     -623   -1    0    0    0    0  0.00000000000E+00  0.00000000000E+00  0.12525980253E-10  0.17130000000E+03  0.17130000000E+03 0.  1.
       11    1    1    2    0    0  0.37442353610E-02 -0.24042104205E-01  0.70754507803E+00  0.70796351654E+00  0.51109989000E-03 0. -1.
     -623    1    1    2    0    0  0.34524727063E-02  0.77702613683E-02  0.52745266423E-03  0.17130000021E+03  0.17130000000E+03 0.  1.
      622    1    1    2    0    0 -0.71967080673E-02  0.16271842837E-01  0.32919274367E+01  0.32920362716E+01  0.20000000000E-01 0. -1.
</event>
<event>
 5   0  0.3603037E+08  0.9118800E+02  0.7818608E-02  0.1180000E+00
       11   -1    0    0    0    0  0.00000000000E+00  0.00000000000E+00  0.39999999673E+01  0.40000000000E+01  0.51109989000E-03 0. -1.
     -623   -1    0    0    0    0  0.00000000000E+00  0.00000000000E+00  0.12525980253E-10  0.17130000000E+03  0.17130000000E+03 0.  1.
       11    1    1    2    0    0 -0.11057005820E-02  0.18961484278E-03  0.13903047399E+00  0.13903593941E+00  0.51109989000E-03 0. -1.
     -623    1    1    2    0    0  0.75062533226E-03 -0.12520975616E-02  0.57402411402E-04  0.17130000001E+03  0.17130000000E+03 0.  1.
      622    1    1    2    0    0  0.35507524971E-03  0.10624827188E-02  0.38609120910E+01  0.38609640544E+01  0.20000000000E-01 0. -1.
</event>
<event>
 5   0  0.3603037E+08  0.9118800E+02  0.7818608E-02  0.1180000E+00
       11   -1    0    0    0    0  0.00000000000E+00  0.00000000000E+00  0.39999999673E+01  0.40000000000E+01  0.51109989000E-03 0. -1.
     -623   -1    0    0    0    0  0.00000000000E+00  0.00000000000E+00  0.12525980253E-10  0.17130000000E+03  0.17130000000E+03 0.  1.
       11    1    1    2    0    0  0.33494843881E-02 -0.55240084226E-03  0.29407944840E-01  0.29607644853E-01  0.51109989000E-03 0. -1.
     -623    1    1    2    0    0  0.97835116197E-03  0.17613143434E-02  0.25259539179E-03  0.17130000001E+03  0.17130000000E+03 0.  1.
      622    1    1    2    0    0 -0.43278355501E-02 -0.12089135011E-02  0.39703394271E+01  0.39703923431E+01  0.20000000000E-01 0. -1.
</event>
<event>
 5   0  0.3603037E+08  0.9118800E+02  0.7818608E-02  0.1180000E+00
       11   -1    0    0    0    0  0.00000000000E+00  0.00000000000E+00  0.39999999673E+01  0.40000000000E+01  0.51109989000E-03 0.  1.
     -623   -1    0    0    0    0  0.00000000000E+00  0.00000000000E+00  0.12525980253E-10  0.17130000000E+03  0.17130000000E+03 0. -1.
       11    1    1    2    0    0 -0.94001900460E-03 -0.20760216466E-03  0.25776292560E+00  0.25776522994E+00  0.51109989000E-03 0.  1.
     -623    1    1    2    0    0 -0.33675691903E-03 -0.95007392305E-04  0.55946499651E-04  0.17130000000E+03  0.17130000000E+03 0. -1.
      622    1    1    2    0    0  0.12767759236E-02  0.30260955696E-03  0.37421810953E+01  0.37422347697E+01  0.20000000000E-01 0.  1.
</event>
<event>
 5   0  0.3603037E+08  0.9118800E+02  0.7818608E-02  0.1180000E+00
       11   -1    0    0    0    0  0.00000000000E+00  0.00000000000E+00  0.39999999673E+01  0.40000000000E+01  0.51109989000E-03 0. -1.
     -623   -1    0    0    0    0  0.00000000000E+00  0.00000000000E+00  0.12525980253E-10  0.17130000000E+03  0.17130000000E+03 0.  1.
       11    1    1    2    0    0  0.12547802952E-02 -0.28932090024E-02  0.30882517878E-01  0.31047322980E-01  0.51109989000E-03 0. -1.
     -623    1    1    2    0    0 -0.29839224173E-03  0.11912201968E-02  0.21564861045E-03  0.17130000000E+03  0.17130000000E+03 0.  1.
      622    1    1    2    0    0 -0.95638805343E-03  0.17019888056E-02  0.39689018009E+01  0.39689526725E+01  0.20000000000E-01 0. -1.
</event>
<event>
 5   0  0.3603037E+08  0.9118800E+02  0.7818608E-02  0.1180000E+00
       11   -1    0    0    0    0  0.00000000000E+00  0.00000000000E+00  0.39999999673E+01  0.40000000000E+01  0.51109989000E-03 0.  1.
     -623   -1    0    0    0    0  0.00000000000E+00  0.00000000000E+00  0.12525980253E-10  0.17130000000E+03  0.17130000000E+03 0. -1.
       11    1    1    2    0    0 -0.22013071870E-03 -0.57951695971E-02  0.49896910378E+00  0.49900306632E+00  0.51109989000E-03 0.  1.
     -623    1    1    2    0    0  0.38233078145E-02  0.21857509238E-02  0.94828421060E-04  0.17130000006E+03  0.17130000000E+03 0. -1.
      622    1    1    2    0    0 -0.36031770958E-02  0.36094186733E-02  0.35009360352E+01  0.35009968770E+01  0.20000000000E-01 0.  1.
</event>
<event>
 5   0  0.3603037E+08  0.9118800E+02  0.7818608E-02  0.1180000E+00
       11   -1    0    0    0    0  0.00000000000E+00  0.00000000000E+00  0.39999999673E+01  0.40000000000E+01  0.51109989000E-03 0. -1.
     -623   -1    0    0    0    0  0.00000000000E+00  0.00000000000E+00  0.12525980253E-10  0.17130000000E+03  0.17130000000E+03 0. -1.
       11    1    1    2    0    0 -0.68185687522E-02 -0.37089292959E-02  0.29059866616E+00  0.29070276061E+00  0.51109989000E-03 0. -1.
     -623    1    1    2    0    0  0.96190029225E-02 -0.36591460420E-02  0.16666517814E-03  0.17130000031E+03  0.17130000000E+03 0. -1.
      622    1    1    2    0    0 -0.28004341702E-02  0.73680753379E-02  0.37092346360E+01  0.37092969302E+01  0.20000000000E-01 0. -1.
</event>
<event>
 5   0  0.3603037E+08  0.9118800E+02  0.7818608E-02  0.1180000E+00
       11   -1    0    0    0    0  0.00000000000E+00  0.00000000000E+00  0.39999999673E+01  0.40000000000E+01  0.51109989000E-03 0. -1.
     -623   -1    0    0    0    0  0.00000000000E+00  0.00000000000E+00  0.12525980253E-10  0.17130000000E+03  0.17130000000E+03 0. -1.
       11    1    1    2    0    0 -0.60299173256E-02  0.92591259188E-02  0.16879839306E+00  0.16916042692E+00  0.51109989000E-03 0. -1.
     -623    1    1    2    0    0 -0.47541795253E-03  0.68186667241E-03  0.43263421969E-03  0.17130000000E+03  0.17130000000E+03 0. -1.
      622    1    1    2    0    0  0.65053352781E-02 -0.99409925912E-02  0.38307689401E+01  0.38308395705E+01  0.20000000000E-01 0. -1.
</event>
<event>
 5   0  0.3603037E+08  0.9118800E+02  0.7818608E-02  0.1180000E+00
       11   -1    0    0    0    0  0.00000000000E+00  0.00000000000E+00  0.39999999673E+01  0.40000000000E+01  0.51109989000E-03 0. -1.
     -623   -1    0    0    0    0  0.00000000000E+00  0.00000000000E+00  0.12525980253E-10  0.17130000000E+03  0.17130000000E+03 0. -1.
       11    1    1    2    0    0 -0.31739631125E-02 -0.16648225713E-02  0.55655795051E+00  0.55656972534E+00  0.51109989000E-03 0. -1.
     -623    1    1    2    0    0 -0.76200998044E-03 -0.31301461734E-02  0.75442689970E-04  0.17130000003E+03  0.17130000000E+03 0. -1.
      622    1    1    2    0    0  0.39359730929E-02  0.47949687447E-02  0.34433665742E+01  0.34434302443E+01  0.20000000000E-01 0. -1.
</event>
<event>
 5   0  0.3603037E+08  0.9118800E+02  0.7818608E-02  0.1180000E+00
       11   -1    0    0    0    0  0.00000000000E+00  0.00000000000E+00  0.39999999673E+01  0.40000000000E+01  0.51109989000E-03 0. -1.
     -623   -1    0    0    0    0  0.00000000000E+00  0.00000000000E+00  0.12525980253E-10  0.17130000000E+03  0.17130000000E+03 0.  1.
       11    1    1    2    0    0 -0.79152076959E-02 -0.90488108738E-02  0.29122563086E+00  0.29147411684E+00  0.51109989000E-03 0. -1.
     -623    1    1    2    0    0 -0.11491372464E-02 -0.15867731513E-03  0.32489576078E-03  0.17130000000E+03  0.17130000000E+03 0.  1.
      622    1    1    2    0    0  0.90643449424E-02  0.92074881889E-02  0.37084494407E+01  0.37085258789E+01  0.20000000000E-01 0. -1.
</event>
<event>
 5   0  0.3603037E+08  0.9118800E+02  0.7818608E-02  0.1180000E+00
       11   -1    0    0    0    0  0.00000000000E+00  0.00000000000E+00  0.39999999673E+01  0.40000000000E+01  0.51109989000E-03 0. -1.
     -623   -1    0    0    0    0  0.00000000000E+00  0.00000000000E+00  0.12525980253E-10  0.17130000000E+03  0.17130000000E+03 0.  1.
       11    1    1    2    0    0  0.53392676544E-02  0.66192918846E-02  0.15625312151E+00  0.15648521338E+00  0.51109989000E-03 0. -1.
     -623    1    1    2    0    0 -0.49780115854E-03  0.10190242992E-02  0.29473863108E-03  0.17130000000E+03  0.17130000000E+03 0.  1.
      622    1    1    2    0    0 -0.48414664959E-02 -0.76383161839E-02  0.38434521072E+01  0.38435147826E+01  0.20000000000E-01 0. -1.
</event>
<event>
 5   0  0.3603037E+08  0.9118800E+02  0.7818608E-02  0.1180000E+00
       11   -1    0    0    0    0  0.00000000000E+00  0.00000000000E+00  0.39999999673E+01  0.40000000000E+01  0.51109989000E-03 0. -1.
     -623   -1    0    0    0    0  0.00000000000E+00  0.00000000000E+00  0.12525980253E-10  0.17130000000E+03  0.17130000000E+03 0. -1.
       11    1    1    2    0    0  0.15071834520E-02  0.12722784681E-02  0.22514883124E+00  0.22515805055E+00  0.51109989000E-03 0. -1.
     -623    1    1    2    0    0 -0.28494274181E-02 -0.46066038351E-02  0.63966306834E-04  0.17130000009E+03  0.17130000000E+03 0. -1.
      622    1    1    2    0    0  0.13422439661E-02  0.33343253669E-02  0.37747871698E+01  0.37748418638E+01  0.20000000000E-01 0. -1.
</event>
<event>
 5   0  0.3603037E+08  0.9118800E+02  0.7818608E-02  0.1180000E+00
       11   -1    0    0    0    0  0.00000000000E+00  0.00000000000E+00  0.39999999673E+01  0.40000000000E+01  0.51109989000E-03 0. -1.
     -623   -1    0    0    0    0  0.00000000000E+00  0.00000000000E+00  0.12525980253E-10  0.17130000000E+03  0.17130000000E+03 0. -1.
       11    1    1    2    0    0 -0.58226568988E-02 -0.48039999581E-02  0.10426029568E+01  0.10426304084E+01  0.51109989000E-03 0. -1.
     -623    1    1    2    0    0  0.30319935640E-03 -0.74604190195E-03  0.10540799177E-03  0.17130000000E+03  0.17130000000E+03 0. -1.
      622    1    1    2    0    0  0.55194575424E-02  0.55500418601E-02  0.29572916026E+01  0.29573695897E+01  0.20000000000E-01 0. -1.
</event>
<event>
 5   0  0.3603037E+08  0.9118800E+02  0.7818608E-02  0.1180000E+00
       11   -1    0    0    0    0  0.00000000000E+00  0.00000000000E+00  0.39999999673E+01  0.40000000000E+01  0.51109989000E-03 0. -1.
     -623   -1    0    0    0    0  0.00000000000E+00  0.00000000000E+00  0.12525980253E-10  0.17130000000E+03  0.17130000000E+03 0.  1.
       11    1    1    2    0    0  0.55321154168E-03  0.72210954116E-03  0.15658140894E-01  0.15692867260E-01  0.51109989000E-03 0. -1.
     -623    1    1    2    0    0 -0.12780233271E-03  0.26316618324E-03  0.85035783704E-04  0.17130000000E+03  0.17130000000E+03 0.  1.
      622    1    1    2    0    0 -0.42540920896E-03 -0.98527572439E-03  0.39842567907E+01  0.39843071325E+01  0.20000000000E-01 0. -1.
</event>
<event>
 5   0  0.3603037E+08  0.9118800E+02  0.7818608E-02  0.1180000E+00
       11   -1    0    0    0    0  0.00000000000E+00  0.00000000000E+00  0.39999999673E+01  0.40000000000E+01  0.51109989000E-03 0.  1.
     -623   -1    0    0    0    0  0.00000000000E+00  0.00000000000E+00  0.12525980253E-10  0.17130000000E+03  0.17130000000E+03 0.  1.
       11    1    1    2    0    0 -0.25182139868E-02  0.16119953247E-01  0.62743209729E+00  0.62764439950E+00  0.51109989000E-03 0.  1.
     -623    1    1    2    0    0 -0.32993546194E-02  0.43530390293E-03  0.31726319780E-03  0.17130000003E+03  0.17130000000E+03 0.  1.
      622    1    1    2    0    0  0.58175686062E-02 -0.16555257150E-01  0.33722506069E+01  0.33723555679E+01  0.20000000000E-01 0. -1.
</event>
<event>
 5   0  0.3603037E+08  0.9118800E+02  0.7818608E-02  0.1180000E+00
       11   -1    0    0    0    0  0.00000000000E+00  0.00000000000E+00  0.39999999673E+01  0.40000000000E+01  0.51109989000E-03 0. -1.
     -623   -1    0    0    0    0  0.00000000000E+00  0.00000000000E+00  0.12525980253E-10  0.17130000000E+03  0.17130000000E+03 0. -1.
       11    1    1    2    0    0  0.26316825914E-02 -0.63124047215E-02  0.15549593268E+00  0.15564709605E+00  0.51109989000E-03 0. -1.
     -623    1    1    2    0    0 -0.85003056184E-03 -0.20293900690E-03  0.20909177632E-03  0.17130000000E+03  0.17130000000E+03 0. -1.
      622    1    1    2    0    0 -0.17816520295E-02  0.65153437284E-02  0.38442949429E+01  0.38443529016E+01  0.20000000000E-01 0. -1.
</event>
<event>
 5   0  0.3603037E+08  0.9118800E+02  0.7818608E-02  0.1180000E+00
       11   -1    0    0    0    0  0.00000000000E+00  0.00000000000E+00  0.39999999673E+01  0.40000000000E+01  0.51109989000E-03 0.  1.
     -623   -1    0    0    0    0  0.00000000000E+00  0.00000000000E+00  0.12525980253E-10  0.17130000000E+03  0.17130000000E+03 0.  1.
       11    1    1    2    0    0 -0.31381804440E-02 -0.14024673244E-02  0.12534537670E+01  0.12534585842E+01  0.51109989000E-03 0.  1.
     -623    1    1    2    0    0  0.19173036700E-03  0.10643884957E-02  0.79209123217E-04  0.17130000000E+03  0.17130000000E+03 0.  1.
      622    1    1    2    0    0  0.29464500770E-02  0.33807882874E-03  0.27464669913E+01  0.27465414124E+01  0.20000000000E-01 0. -1.
</event>
<event>
 5   0  0.3603037E+08  0.9118800E+02  0.7818608E-02  0.1180000E+00
       11   -1    0    0    0    0  0.00000000000E+00  0.00000000000E+00  0.39999999673E+01  0.40000000000E+01  0.51109989000E-03 0. -1.
     -623   -1    0    0    0    0  0.00000000000E+00  0.00000000000E+00  0.12525980253E-10  0.17130000000E+03  0.17130000000E+03 0. -1.
       11    1    1    2    0    0  0.19928402273E-02 -0.68194075552E-02  0.43005063592E+00  0.43010962139E+00  0.51109989000E-03 0. -1.
     -623    1    1    2    0    0  0.14562202752E-02  0.42029282478E-03  0.12238571139E-03  0.17130000001E+03  0.17130000000E+03 0. -1.
      622    1    1    2    0    0 -0.34490605025E-02  0.63991147305E-02  0.35698269457E+01  0.35698903719E+01  0.20000000000E-01 0. -1.
</event>
<event>
 5   0  0.3603037E+08  0.9118800E+02  0.7818608E-02  0.1180000E+00
       11   -1    0    0    0    0  0.00000000000E+00  0.00000000000E+00  0.39999999673E+01  0.40000000000E+01  0.51109989000E-03 0. -1.
     -623   -1    0    0    0    0  0.00000000000E+00  0.00000000000E+00  0.12525980253E-10  0.17130000000E+03  0.17130000000E+03 0. -1.
       11    1    1    2    0    0  0.32510782481E-03  0.91527074639E-03  0.12241997515E+00  0.12242489516E+00  0.51109989000E-03 0. -1.
     -623    1    1    2    0    0  0.10158613222E-02 -0.16933807150E-03  0.56773061737E-04  0.17130000000E+03  0.17130000000E+03 0. -1.
      622    1    1    2    0    0 -0.13409691471E-02 -0.74593267489E-03  0.38775232191E+01  0.38775751017E+01  0.20000000000E-01 0. -1.
</event>
<event>
 5   0  0.3603037E+08  0.9118800E+02  0.7818608E-02  0.1180000E+00
       11   -1    0    0    0    0  0.00000000000E+00  0.00000000000E+00  0.39999999673E+01  0.40000000000E+01  0.51109989000E-03 0. -1.
     -623   -1    0    0    0    0  0.00000000000E+00  0.00000000000E+00  0.12525980253E-10  0.17130000000E+03  0.17130000000E+03 0.  1.
       11    1    1    2    0    0 -0.18094375423E-02  0.21688670394E-02  0.72308697633E-01  0.72365648079E-01  0.51109989000E-03 0. -1.
     -623    1    1    2    0    0  0.36015078636E-03  0.66332699689E-03  0.10912961854E-03  0.17130000000E+03  0.17130000000E+03 0.  1.
      622    1    1    2    0    0  0.14492867560E-02 -0.28321940363E-02  0.39275821401E+01  0.39276343502E+01  0.20000000000E-01 0. -1.
</event>
<event>
 5   0  0.3603037E+08  0.9118800E+02  0.7818608E-02  0.1180000E+00
       11   -1    0    0    0    0  0.00000000000E+00  0.00000000000E+00  0.39999999673E+01  0.40000000000E+01  0.51109989000E-03 0.  1.
     -623   -1    0    0    0    0  0.00000000000E+00  0.00000000000E+00  0.12525980253E-10  0.17130000000E+03  0.17130000000E+03 0.  1.
       11    1    1    2    0    0  0.16867840824E-02  0.10920846313E-02  0.25977270615E+00  0.25978098077E+00  0.51109989000E-03 0.  1.
     -623    1    1    2    0    0  0.12508811431E-03 -0.64293523276E-03  0.62182268890E-04  0.17130000000E+03  0.17130000000E+03 0.  1.
      622    1    1    2    0    0 -0.18118721967E-02 -0.44914939851E-03  0.37401650789E+01  0.37402190180E+01  0.20000000000E-01 0.  1.
</event>
<event>
 5   0  0.3603037E+08  0.9118800E+02  0.7818608E-02  0.1180000E+00
       11   -1    0    0    0    0  0.00000000000E+00  0.00000000000E+00  0.39999999673E+01  0.40000000000E+01  0.51109989000E-03 0.  1.
     -623   -1    0    0    0    0  0.00000000000E+00  0.00000000000E+00  0.12525980253E-10  0.17130000000E+03  0.17130000000E+03 0.  1.
       11    1    1    2    0    0  0.27908891329E-02  0.74763745517E-02  0.34467193400E+00  0.34476468576E+00  0.51109989000E-03 0.  1.
     -623    1    1    2    0    0 -0.17965526807E-03 -0.62776904857E-03  0.15478563165E-03  0.17130000000E+03  0.17130000000E+03 0.  1.
      622    1    1    2    0    0 -0.26112338648E-02 -0.68486055032E-02  0.36551732477E+01  0.36552353129E+01  0.20000000000E-01 0.  0.
</event>
<event>
 5   0  0.3603037E+08  0.9118800E+02  0.7818608E-02  0.1180000E+00
       11   -1    0    0    0    0  0.00000000000E+00  0.00000000000E+00  0.39999999673E+01  0.40000000000E+01  0.51109989000E-03 0.  1.
     -623   -1    0    0    0    0  0.00000000000E+00  0.00000000000E+00  0.12525980253E-10  0.17130000000E+03  0.17130000000E+03 0.  1.
       11    1    1    2    0    0  0.11586874652E-02  0.45253843197E-02  0.20416699654E+00  0.20422106982E+00  0.51109989000E-03 0.  1.
     -623    1    1    2    0    0  0.88120091030E-04 -0.56310924426E-04  0.10956688775E-03  0.17130000000E+03  0.17130000000E+03 0.  1.
      622    1    1    2    0    0 -0.12468075562E-02 -0.44690733952E-02  0.37957234039E+01  0.37957789301E+01  0.20000000000E-01 0.  1.
</event>
<event>
 5   0  0.3603037E+08  0.9118800E+02  0.7818608E-02  0.1180000E+00
       11   -1    0    0    0    0  0.00000000000E+00  0.00000000000E+00  0.39999999673E+01  0.40000000000E+01  0.51109989000E-03 0.  1.
     -623   -1    0    0    0    0  0.00000000000E+00  0.00000000000E+00  0.12525980253E-10  0.17130000000E+03  0.17130000000E+03 0. -1.
       11    1    1    2    0    0  0.14762067664E-02  0.98292750311E-03  0.74988319759E-02  0.77226314153E-02  0.51109989000E-03 0.  1.
     -623    1    1    2    0    0 -0.73389864726E-04 -0.86457397938E-03  0.27411447056E-03  0.17130000000E+03  0.17130000000E+03 0. -1.
      622    1    1    2    0    0 -0.14028169016E-02 -0.11835352373E-03  0.39922270209E+01  0.39922773662E+01  0.20000000000E-01 0.  1.
</event>
<event>
 5   0  0.3603037E+08  0.9118800E+02  0.7818608E-02  0.1180000E+00
       11   -1    0    0    0    0  0.00000000000E+00  0.00000000000E+00  0.39999999673E+01  0.40000000000E+01  0.51109989000E-03 0.  1.
     -623   -1    0    0    0    0  0.00000000000E+00  0.00000000000E+00  0.12525980253E-10  0.17130000000E+03  0.17130000000E+03 0.  1.
       11    1    1    2    0    0 -0.25598072873E-03  0.21630161653E-03  0.34923002217E-02  0.35453764083E-02  0.51109989000E-03 0.  1.
     -623    1    1    2    0    0 -0.34885189973E-03  0.70465926274E-03  0.10324193775E-03  0.17130000000E+03  0.17130000000E+03 0.  1.
      622    1    1    2    0    0  0.60483262845E-03 -0.92096087927E-03  0.39964044252E+01  0.39964546218E+01  0.20000000000E-01 0.  1.
</event>
<event>
 5   0  0.3603037E+08  0.9118800E+02  0.7818608E-02  0.1180000E+00
       11   -1    0    0    0    0  0.00000000000E+00  0.00000000000E+00  0.39999999673E+01  0.40000000000E+01  0.51109989000E-03 0. -1.
     -623   -1    0    0    0    0  0.00000000000E+00  0.00000000000E+00  0.12525980253E-10  0.17130000000E+03  0.17130000000E+03 0. -1.
       11    1    1    2    0    0 -0.21954433112E-01  0.86117387759E-03  0.98087298701E+00  0.98111916535E+00  0.51109989000E-03 0. -1.
     -623    1    1    2    0    0  0.54091188108E-02  0.12118128371E-01  0.38615380340E-03  0.17130000051E+03  0.17130000000E+03 0. -1.
      622    1    1    2    0    0  0.16545314301E-01 -0.12979302249E-01  0.30187408266E+01  0.30188803202E+01  0.20000000000E-01 0. -1.
</event>
<event>
 5   0  0.3603037E+08  0.9118800E+02  0.7818608E-02  0.1180000E+00
       11   -1    0    0    0    0  0.00000000000E+00  0.00000000000E+00  0.39999999673E+01  0.40000000000E+01  0.51109989000E-03 0. -1.
     -623   -1    0    0    0    0  0.00000000000E+00  0.00000000000E+00  0.12525980253E-10  0.17130000000E+03  0.17130000000E+03 0.  1.
       11    1    1    2    0    0  0.99773047671E-02  0.31659071568E-02  0.40799560134E+00  0.40813017716E+00  0.51109989000E-03 0. -1.
     -623    1    1    2    0    0  0.85261712281E-04 -0.35937078603E-03  0.20541722431E-03  0.17130000000E+03  0.17130000000E+03 0.  1.
      622    1    1    2    0    0 -0.10062566479E-01 -0.28065363707E-02  0.35917989488E+01  0.35918698223E+01  0.20000000000E-01 0. -1.
</event>
<event>
 5   0  0.3603037E+08  0.9118800E+02  0.7818608E-02  0.1180000E+00
       11   -1    0    0    0    0  0.00000000000E+00  0.00000000000E+00  0.39999999673E+01  0.40000000000E+01  0.51109989000E-03 0. -1.
     -623   -1    0    0    0    0  0.00000000000E+00  0.00000000000E+00  0.12525980253E-10  0.17130000000E+03  0.17130000000E+03 0.  1.
       11    1    1    2    0    0 -0.67233553024E-02  0.11441715345E-01  0.33773960324E-02  0.13703444169E-01  0.51109989000E-03 0. -1.
     -623    1    1    2    0    0 -0.11446036382E-01 -0.55562594030E-02  0.10422730566E-01  0.17130000079E+03  0.17130000000E+03 0.  1.
      622    1    1    2    0    0  0.18169391685E-01 -0.58854559420E-02  0.39861998408E+01  0.39862957662E+01  0.20000000000E-01 0. -1.
</event>
<event>
 5   0  0.3603037E+08  0.9118800E+02  0.7818608E-02  0.1180000E+00
       11   -1    0    0    0    0  0.00000000000E+00  0.00000000000E+00  0.39999999673E+01  0.40000000000E+01  0.51109989000E-03 0.  1.
     -623   -1    0    0    0    0  0.00000000000E+00  0.00000000000E+00  0.12525980253E-10  0.17130000000E+03  0.17130000000E+03 0. -1.
       11    1    1    2    0    0 -0.55615844327E-03 -0.17598798348E-02  0.92851039687E-01  0.92870788097E-01  0.51109989000E-03 0.  1.
     -623    1    1    2    0    0 -0.81733486844E-03  0.28118255168E-02  0.71312658497E-04  0.17130000003E+03  0.17130000000E+03 0. -1.
      622    1    1    2    0    0  0.13734933117E-02 -0.10519456820E-02  0.39070776150E+01  0.39071291869E+01  0.20000000000E-01 0.  1.
</event>
<event>
 5   0  0.3603037E+08  0.9118800E+02  0.7818608E-02  0.1180000E+00
       11   -1    0    0    0    0  0.00000000000E+00  0.00000000000E+00  0.39999999673E+01  0.40000000000E+01  0.51109989000E-03 0.  1.
     -623   -1    0    0    0    0  0.00000000000E+00  0.00000000000E+00  0.12525980253E-10  0.17130000000E+03  0.17130000000E+03 0.  1.
       11    1    1    2    0    0  0.18713455418E-02  0.76814061034E-02  0.63906358043E+00  0.63911268724E+00  0.51109989000E-03 0.  1.
     -623    1    1    2    0    0  0.34835472629E-03 -0.55910261070E-03  0.11686395140E-03  0.17130000000E+03  0.17130000000E+03 0.  1.
      622    1    1    2    0    0 -0.22197002681E-02 -0.71223034927E-02  0.33608195230E+01  0.33608873115E+01  0.20000000000E-01 0.  0.
</event>
<event>
 5   0  0.3603037E+08  0.9118800E+02  0.7818608E-02  0.1180000E+00
       11   -1    0    0    0    0  0.00000000000E+00  0.00000000000E+00  0.39999999673E+01  0.40000000000E+01  0.51109989000E-03 0.  1.
     -623   -1    0    0    0    0  0.00000000000E+00  0.00000000000E+00  0.12525980253E-10  0.17130000000E+03  0.17130000000E+03 0. -1.
       11    1    1    2    0    0  0.99321892470E-04  0.37460095523E-04  0.12451537098E-01  0.12462474313E-01  0.51109989000E-03 0.  1.
     -623    1    1    2    0    0  0.91520641864E-05  0.81346028093E-04  0.61064434429E-04  0.17130000000E+03  0.17130000000E+03 0. -1.
      622    1    1    2    0    0 -0.10847395666E-03 -0.11880612362E-03  0.39874873658E+01  0.39875375257E+01  0.20000000000E-01 0.  1.
</event>
<event>
 5   0  0.3603037E+08  0.9118800E+02  0.7818608E-02  0.1180000E+00
       11   -1    0    0    0    0  0.00000000000E+00  0.00000000000E+00  0.39999999673E+01  0.40000000000E+01  0.51109989000E-03 0. -1.
     -623   -1    0    0    0    0  0.00000000000E+00  0.00000000000E+00  0.12525980253E-10  0.17130000000E+03  0.17130000000E+03 0. -1.
       11    1    1    2    0    0  0.31930117321E-02 -0.68500861150E-02  0.26988389083E-01  0.28031292714E-01  0.51109989000E-03 0. -1.
     -623    1    1    2    0    0 -0.57697969341E-02  0.38774659554E-02  0.10953169471E-02  0.17130000014E+03  0.17130000000E+03 0. -1.
      622    1    1    2    0    0  0.25767852020E-02  0.29726201596E-02  0.39719162613E+01  0.39719685627E+01  0.20000000000E-01 0. -1.
</event>
<event>
 5   0  0.3603037E+08  0.9118800E+02  0.7818608E-02  0.1180000E+00
       11   -1    0    0    0    0  0.00000000000E+00  0.00000000000E+00  0.39999999673E+01  0.40000000000E+01  0.51109989000E-03 0. -1.
     -623   -1    0    0    0    0  0.00000000000E+00  0.00000000000E+00  0.12525980253E-10  0.17130000000E+03  0.17130000000E+03 0.  1.
       11    1    1    2    0    0  0.17837102131E-02 -0.11065777397E-02  0.44545758721E+00  0.44546282602E+00  0.51109989000E-03 0. -1.
     -623    1    1    2    0    0 -0.11050119666E-03  0.42857176921E-06  0.62038704328E-04  0.17130000000E+03  0.17130000000E+03 0.  1.
      622    1    1    2    0    0 -0.16732090165E-02  0.11061491679E-02  0.35544803414E+01  0.35545371739E+01  0.20000000000E-01 0. -1.
</event>
<event>
 5   0  0.3603037E+08  0.9118800E+02  0.7818608E-02  0.1180000E+00
       11   -1    0    0    0    0  0.00000000000E+00  0.00000000000E+00  0.39999999673E+01  0.40000000000E+01  0.51109989000E-03 0.  1.
     -623   -1    0    0    0    0  0.00000000000E+00  0.00000000000E+00  0.12525980253E-10  0.17130000000E+03  0.17130000000E+03 0. -1.
       11    1    1    2    0    0  0.13418005943E-02  0.28623798685E-02  0.31184518229E-01  0.31348509460E-01  0.51109989000E-03 0.  1.
     -623    1    1    2    0    0 -0.16580265318E-02 -0.45519420057E-03  0.21510527401E-03  0.17130000001E+03  0.17130000000E+03 0. -1.
      622    1    1    2    0    0  0.31622593748E-03 -0.24071856679E-02  0.39686003439E+01  0.39686514818E+01  0.20000000000E-01 0.  1.
</event>
<event>
 5   0  0.3603037E+08  0.9118800E+02  0.7818608E-02  0.1180000E+00
       11   -1    0    0    0    0  0.00000000000E+00  0.00000000000E+00  0.39999999673E+01  0.40000000000E+01  0.51109989000E-03 0. -1.
     -623   -1    0    0    0    0  0.00000000000E+00  0.00000000000E+00  0.12525980253E-10  0.17130000000E+03  0.17130000000E+03 0. -1.
       11    1    1    2    0    0  0.89690957314E-03  0.20766721036E-03  0.12148163578E-01  0.12193714395E-01  0.51109989000E-03 0. -1.
     -623    1    1    2    0    0  0.81781155334E-04 -0.15196755088E-03  0.95791980192E-04  0.17130000000E+03  0.17130000000E+03 0. -1.
      622    1    1    2    0    0 -0.97869072847E-03 -0.55699659480E-04  0.39877560118E+01  0.39878062855E+01  0.20000000000E-01 0. -1.
</event>
<event>
 5   0  0.3603037E+08  0.9118800E+02  0.7818608E-02  0.1180000E+00
       11   -1    0    0    0    0  0.00000000000E+00  0.00000000000E+00  0.39999999673E+01  0.40000000000E+01  0.51109989000E-03 0. -1.
     -623   -1    0    0    0    0  0.00000000000E+00  0.00000000000E+00  0.12525980253E-10  0.17130000000E+03  0.17130000000E+03 0.  1.
       11    1    1    2    0    0 -0.13711992262E-02 -0.12542623205E-01  0.20223342134E+01  0.20223736374E+01  0.51109989000E-03 0. -1.
     -623    1    1    2    0    0  0.40239096286E-02  0.97325049735E-03  0.17619789941E-03  0.17130000005E+03  0.17130000000E+03 0.  1.
      622    1    1    2    0    0 -0.26527104024E-02  0.11569372708E-01  0.19774895561E+01  0.19776263124E+01  0.20000000000E-01 0. -1.
</event>
<event>
 5   0  0.3603037E+08  0.9118800E+02  0.7818608E-02  0.1180000E+00
       11   -1    0    0    0    0  0.00000000000E+00  0.00000000000E+00  0.39999999673E+01  0.40000000000E+01  0.51109989000E-03 0.  1.
     -623   -1    0    0    0    0  0.00000000000E+00  0.00000000000E+00  0.12525980253E-10  0.17130000000E+03  0.17130000000E+03 0.  1.
       11    1    1    2    0    0 -0.23792888124E-02 -0.70386611813E-02  0.49340556422E+00  0.49346176731E+00  0.51109989000E-03 0.  1.
     -623    1    1    2    0    0 -0.48934339453E-03  0.34680686170E-02  0.11623440894E-03  0.17130000004E+03  0.17130000000E+03 0.  1.
      622    1    1    2    0    0  0.28686322070E-02  0.35705925642E-02  0.35064781687E+01  0.35065381968E+01  0.20000000000E-01 0.  1.
</event>
<event>
 5   0  0.3603037E+08  0.9118800E+02  0.7818608E-02  0.1180000E+00
       11   -1    0    0    0    0  0.00000000000E+00  0.00000000000E+00  0.39999999673E+01  0.40000000000E+01  0.51109989000E-03 0.  1.
     -623   -1    0    0    0    0  0.00000000000E+00  0.00000000000E+00  0.12525980253E-10  0.17130000000E+03  0.17130000000E+03 0.  1.
       11    1    1    2    0    0 -0.10451579068E-02  0.66873751466E-03  0.29865736398E-01  0.29895869227E-01  0.51109989000E-03 0.  1.
     -623    1    1    2    0    0  0.45366652822E-04  0.19818612692E-03  0.80697704170E-04  0.17130000000E+03  0.17130000000E+03 0.  1.
      622    1    1    2    0    0  0.99979125400E-03 -0.86692364158E-03  0.39700535333E+01  0.39701041306E+01  0.20000000000E-01 0.  1.
</event>
<event>
 5   0  0.3603037E+08  0.9118800E+02  0.7818608E-02  0.1180000E+00
       11   -1    0    0    0    0  0.00000000000E+00  0.00000000000E+00  0.39999999673E+01  0.40000000000E+01  0.51109989000E-03 0.  1.
     -623   -1    0    0    0    0  0.00000000000E+00  0.00000000000E+00  0.12525980253E-10  0.17130000000E+03  0.17130000000E+03 0. -1.
       11    1    1    2    0    0 -0.20246832541E-01  0.50080665812E-02  0.18455983912E+01  0.18457163103E+01  0.51109989000E-03 0.  1.
     -623    1    1    2    0    0  0.22855625449E-03 -0.11639298765E-03  0.30929536013E-03  0.17130000000E+03  0.17130000000E+03 0. -1.
      622    1    1    2    0    0  0.20018276286E-01 -0.48916735935E-02  0.21540922808E+01  0.21542836893E+01  0.20000000000E-01 0.  0.
</event>
<event>
 5   0  0.3603037E+08  0.9118800E+02  0.7818608E-02  0.1180000E+00
       11   -1    0    0    0    0  0.00000000000E+00  0.00000000000E+00  0.39999999673E+01  0.40000000000E+01  0.51109989000E-03 0.  1.
     -623   -1    0    0    0    0  0.00000000000E+00  0.00000000000E+00  0.12525980253E-10  0.17130000000E+03  0.17130000000E+03 0.  1.
       11    1    1    2    0    0  0.67536068659E-02  0.56855970613E-02  0.75992933056E+00  0.75998077994E+00  0.51109989000E-03 0.  1.
     -623    1    1    2    0    0 -0.29649183492E-01 -0.97856768498E-02  0.19948362049E-03  0.17130000285E+03  0.17130000000E+03 0.  1.
      622    1    1    2    0    0  0.22895576626E-01  0.41000797886E-02  0.32398711532E+01  0.32400163745E+01  0.20000000000E-01 0.  1.
</event>
<event>
 5   0  0.3603037E+08  0.9118800E+02  0.7818608E-02  0.1180000E+00
       11   -1    0    0    0    0  0.00000000000E+00  0.00000000000E+00  0.39999999673E+01  0.40000000000E+01  0.51109989000E-03 0. -1.
     -623   -1    0    0    0    0  0.00000000000E+00  0.00000000000E+00  0.12525980253E-10  0.17130000000E+03  0.17130000000E+03 0.  1.
       11    1    1    2    0    0  0.11862869361E-02  0.70466038512E-02  0.13960482556E+00  0.13978852043E+00  0.51109989000E-03 0. -1.
     -623    1    1    2    0    0  0.47379631617E-03  0.41047244146E-03  0.24303430740E-03  0.17130000000E+03  0.17130000000E+03 0.  1.
      622    1    1    2    0    0 -0.16600832522E-02 -0.74570762927E-02  0.38601521075E+01  0.38602114783E+01  0.20000000000E-01 0. -1.
</event>
<event>
 5   0  0.3603037E+08  0.9118800E+02  0.7818608E-02  0.1180000E+00
       11   -1    0    0    0    0  0.00000000000E+00  0.00000000000E+00  0.39999999673E+01  0.40000000000E+01  0.51109989000E-03 0. -1.
     -623   -1    0    0    0    0  0.00000000000E+00  0.00000000000E+00  0.12525980253E-10  0.17130000000E+03  0.17130000000E+03 0.  1.
       11    1    1    2    0    0 -0.50501710697E-02  0.19441246448E-02  0.15795435933E+00  0.15804785573E+00  0.51109989000E-03 0. -1.
     -623    1    1    2    0    0  0.56038281169E-03 -0.78363688944E-03  0.14832249606E-03  0.17130000000E+03  0.17130000000E+03 0.  1.
      622    1    1    2    0    0  0.44897882580E-02 -0.11604877554E-02  0.38418972855E+01  0.38419521415E+01  0.20000000000E-01 0. -1.
</event>
<event>
 5   0  0.3603037E+08  0.9118800E+02  0.7818608E-02  0.1180000E+00
       11   -1    0    0    0    0  0.00000000000E+00  0.00000000000E+00  0.39999999673E+01  0.40000000000E+01  0.51109989000E-03 0. -1.
     -623   -1    0    0    0    0  0.00000000000E+00  0.00000000000E+00  0.12525980253E-10  0.17130000000E+03  0.17130000000E+03 0.  1.
       11    1    1    2    0    0 -0.19634883787E-01  0.57161543465E-02  0.18503961095E+01  0.18505091803E+01  0.51109989000E-03 0. -1.
     -623    1    1    2    0    0  0.26952475787E-04 -0.58335630625E-03  0.30165435581E-03  0.17130000000E+03  0.17130000000E+03 0.  1.
      622    1    1    2    0    0  0.19607931311E-01 -0.51327980402E-02  0.21493022035E+01  0.21494908185E+01  0.20000000000E-01 0. -1.
</event>
<event>
 5   0  0.3603037E+08  0.9118800E+02  0.7818608E-02  0.1180000E+00
       11   -1    0    0    0    0  0.00000000000E+00  0.00000000000E+00  0.39999999673E+01  0.40000000000E+01  0.51109989000E-03 0. -1.
     -623   -1    0    0    0    0  0.00000000000E+00  0.00000000000E+00  0.12525980253E-10  0.17130000000E+03  0.17130000000E+03 0. -1.
       11    1    1    2    0    0  0.31950752243E-02 -0.88222509643E-02  0.71809051723E+00  0.71815199838E+00  0.51109989000E-03 0. -1.
     -623    1    1    2    0    0 -0.17463963171E-01  0.27149403050E-01  0.20762720523E-03  0.17130000304E+03  0.17130000000E+03 0. -1.
      622    1    1    2    0    0  0.14268887947E-01 -0.18327152085E-01  0.32817018229E+01  0.32818449598E+01  0.20000000000E-01 0.  0.
</event>
<event>
 5   0  0.3603037E+08  0.9118800E+02  0.7818608E-02  0.1180000E+00
       11   -1    0    0    0    0  0.00000000000E+00  0.00000000000E+00  0.39999999673E+01  0.40000000000E+01  0.51109989000E-03 0.  1.
     -623   -1    0    0    0    0  0.00000000000E+00  0.00000000000E+00  0.12525980253E-10  0.17130000000E+03  0.17130000000E+03 0. -1.
       11    1    1    2    0    0 -0.52883891795E-03  0.12484552853E-02  0.16575639358E+00  0.16576272665E+00  0.51109989000E-03 0.  1.
     -623    1    1    2    0    0  0.10206096489E-02 -0.34013579936E-03  0.58604911360E-04  0.17130000000E+03  0.17130000000E+03 0. -1.
      622    1    1    2    0    0 -0.49177073099E-03 -0.90831948593E-03  0.38341849689E+01  0.38342372700E+01  0.20000000000E-01 0.  1.
</event>
<event>
 5   0  0.3603037E+08  0.9118800E+02  0.7818608E-02  0.1180000E+00
       11   -1    0    0    0    0  0.00000000000E+00  0.00000000000E+00  0.39999999673E+01  0.40000000000E+01  0.51109989000E-03 0. -1.
     -623   -1    0    0    0    0  0.00000000000E+00  0.00000000000E+00  0.12525980253E-10  0.17130000000E+03  0.17130000000E+03 0.  1.
       11    1    1    2    0    0  0.12555244804E-01 -0.92130618178E-02  0.19823456019E+01  0.19824068355E+01  0.51109989000E-03 0. -1.
     -623    1    1    2    0    0 -0.55190063793E-02 -0.63707748996E-03  0.19673772253E-03  0.17130000009E+03  0.17130000000E+03 0.  1.
      622    1    1    2    0    0 -0.70362384245E-02  0.98501393077E-02  0.20174576277E+01  0.20175930743E+01  0.20000000000E-01 0.  0.
</event>
<event>
 5   0  0.3603037E+08  0.9118800E+02  0.7818608E-02  0.1180000E+00
       11   -1    0    0    0    0  0.00000000000E+00  0.00000000000E+00  0.39999999673E+01  0.40000000000E+01  0.51109989000E-03 0. -1.
     -623   -1    0    0    0    0  0.00000000000E+00  0.00000000000E+00  0.12525980253E-10  0.17130000000E+03  0.17130000000E+03 0.  1.
       11    1    1    2    0    0  0.44843759383E-02  0.20206732745E-02  0.44089356320E-01  0.44365812412E-01  0.51109989000E-03 0. -1.
     -623    1    1    2    0    0 -0.29860836058E-02 -0.30180477241E-02  0.32744699625E-03  0.17130000005E+03  0.17130000000E+03 0.  1.
      622    1    1    2    0    0 -0.14982923325E-02  0.99737444965E-03  0.39555831640E+01  0.39556341347E+01  0.20000000000E-01 0. -1.
</event>
<event>
 5   0  0.3603037E+08  0.9118800E+02  0.7818608E-02  0.1180000E+00
       11   -1    0    0    0    0  0.00000000000E+00  0.00000000000E+00  0.39999999673E+01  0.40000000000E+01  0.51109989000E-03 0. -1.
     -623   -1    0    0    0    0  0.00000000000E+00  0.00000000000E+00  0.12525980253E-10  0.17130000000E+03  0.17130000000E+03 0.  1.
       11    1    1    2    0    0 -0.99693748159E-02 -0.51948515216E-03  0.10152794572E+00  0.10201883788E+00  0.51109989000E-03 0. -1.
     -623    1    1    2    0    0 -0.11150500760E-02 -0.21169765110E-02  0.55883796447E-03  0.17130000002E+03  0.17130000000E+03 0.  1.
      622    1    1    2    0    0  0.11084424892E-01  0.26364616632E-02  0.38979131837E+01  0.38979811445E+01  0.20000000000E-01 0. -1.
</event>
<event>
 5   0  0.3603037E+08  0.9118800E+02  0.7818608E-02  0.1180000E+00
       11   -1    0    0    0    0  0.00000000000E+00  0.00000000000E+00  0.39999999673E+01  0.40000000000E+01  0.51109989000E-03 0.  1.
     -623   -1    0    0    0    0  0.00000000000E+00  0.00000000000E+00  0.12525980253E-10  0.17130000000E+03  0.17130000000E+03 0. -1.
       11    1    1    2    0    0  0.28099798126E-02 -0.18867308497E-02  0.16257431391E+00  0.16261034563E+00  0.51109989000E-03 0.  1.
     -623    1    1    2    0    0 -0.38289214803E-05 -0.55773074559E-04  0.89635921065E-04  0.17130000000E+03  0.17130000000E+03 0. -1.
      622    1    1    2    0    0 -0.28061508911E-02  0.19425039243E-02  0.38373360175E+01  0.38373896543E+01  0.20000000000E-01 0.  1.
</event>
<event>
 5   0  0.3603037E+08  0.9118800E+02  0.7818608E-02  0.1180000E+00
       11   -1    0    0    0    0  0.00000000000E+00  0.00000000000E+00  0.39999999673E+01  0.40000000000E+01  0.51109989000E-03 0.  1.
     -623   -1    0    0    0    0  0.00000000000E+00  0.00000000000E+00  0.12525980253E-10  0.17130000000E+03  0.17130000000E+03 0.  1.
       11    1    1    2    0    0 -0.28999058418E-01 -0.41288319883E-01  0.14976765406E+01  0.14985262601E+01  0.51109989000E-03 0.  1.
     -623    1    1    2    0    0  0.24173490423E-01  0.50397039072E-01  0.96000244142E-03  0.17130000912E+03  0.17130000000E+03 0.  1.
      622    1    1    2    0    0  0.48255679950E-02 -0.91087191894E-02  0.25013634243E+01  0.25014646180E+01  0.20000000000E-01 0.  1.
</event>
<event>
 5   0  0.3603037E+08  0.9118800E+02  0.7818608E-02  0.1180000E+00
       11   -1    0    0    0    0  0.00000000000E+00  0.00000000000E+00  0.39999999673E+01  0.40000000000E+01  0.51109989000E-03 0. -1.
     -623   -1    0    0    0    0  0.00000000000E+00  0.00000000000E+00  0.12525980253E-10  0.17130000000E+03  0.17130000000E+03 0. -1.
       11    1    1    2    0    0 -0.14161399138E-01  0.16015861402E-01  0.56931689132E+00  0.56971838394E+00  0.51109989000E-03 0. -1.
     -623    1    1    2    0    0  0.92917337149E-02 -0.61348006988E-02  0.47781551598E-03  0.17130000036E+03  0.17130000000E+03 0. -1.
      622    1    1    2    0    0  0.48696654229E-02 -0.98810607034E-02  0.34302052605E+01  0.34302812535E+01  0.20000000000E-01 0. -1.
</event>
<event>
 5   0  0.3603037E+08  0.9118800E+02  0.7818608E-02  0.1180000E+00
       11   -1    0    0    0    0  0.00000000000E+00  0.00000000000E+00  0.39999999673E+01  0.40000000000E+01  0.51109989000E-03 0.  1.
     -623   -1    0    0    0    0  0.00000000000E+00  0.00000000000E+00  0.12525980253E-10  0.17130000000E+03  0.17130000000E+03 0.  1.
       11    1    1    2    0    0 -0.24835755259E-02 -0.11679498961E-02  0.28311380281E-01  0.28448685907E-01  0.51109989000E-03 0.  1.
     -623    1    1    2    0    0  0.81158579526E-04  0.24349995763E-03  0.18846597809E-03  0.17130000000E+03  0.17130000000E+03 0.  1.
      622    1    1    2    0    0  0.24024169463E-02  0.92444993848E-03  0.39715001211E+01  0.39715513138E+01  0.20000000000E-01 0.  1.
</event>
<event>
 5   0  0.3603037E+08  0.9118800E+02  0.7818608E-02  0.1180000E+00
       11   -1    0    0    0    0  0.00000000000E+00  0.00000000000E+00  0.39999999673E+01  0.40000000000E+01  0.51109989000E-03 0. -1.
     -623   -1    0    0    0    0  0.00000000000E+00  0.00000000000E+00  0.12525980253E-10  0.17130000000E+03  0.17130000000E+03 0. -1.
       11    1    1    2    0    0 -0.48693783170E-02 -0.24041030543E-02  0.24380660742E+00  0.24386761491E+00  0.51109989000E-03 0. -1.
     -623    1    1    2    0    0 -0.21251531297E-02  0.68787231600E-03  0.12114075644E-03  0.17130000001E+03  0.17130000000E+03 0. -1.
      622    1    1    2    0    0  0.69945314467E-02  0.17162307383E-02  0.37560722192E+01  0.37561323705E+01  0.20000000000E-01 0. -1.
</event>
<event>
 5   0  0.3603037E+08  0.9118800E+02  0.7818608E-02  0.1180000E+00
       11   -1    0    0    0    0  0.00000000000E+00  0.00000000000E+00  0.39999999673E+01  0.40000000000E+01  0.51109989000E-03 0.  1.
     -623   -1    0    0    0    0  0.00000000000E+00  0.00000000000E+00  0.12525980253E-10  0.17130000000E+03  0.17130000000E+03 0. -1.
       11    1    1    2    0    0  0.34104101565E-02 -0.87091904502E-03  0.65160543625E-01  0.65257544119E-01  0.51109989000E-03 0.  1.
     -623    1    1    2    0    0 -0.81177935267E-02  0.65101633451E-03  0.15081313906E-03  0.17130000019E+03  0.17130000000E+03 0. -1.
      622    1    1    2    0    0  0.47073833702E-02  0.21990271051E-03  0.39346886106E+01  0.39347422622E+01  0.20000000000E-01 0.  1.
</event>
<event>
 5   0  0.3603037E+08  0.9118800E+02  0.7818608E-02  0.1180000E+00
       11   -1    0    0    0    0  0.00000000000E+00  0.00000000000E+00  0.39999999673E+01  0.40000000000E+01  0.51109989000E-03 0. -1.
     -623   -1    0    0    0    0  0.00000000000E+00  0.00000000000E+00  0.12525980253E-10  0.17130000000E+03  0.17130000000E+03 0. -1.
       11    1    1    2    0    0  0.15517362385E-02 -0.12221098883E-02  0.81013559233E+00  0.81013816144E+00  0.51109989000E-03 0. -1.
     -623    1    1    2    0    0 -0.45486269125E-02 -0.33102133362E-02  0.69955888110E-04  0.17130000009E+03  0.17130000000E+03 0. -1.
      622    1    1    2    0    0  0.29968906741E-02  0.45323232244E-02  0.31897944191E+01  0.31898617462E+01  0.20000000000E-01 0. -1.
</event>
<event>
 5   0  0.3603037E+08  0.9118800E+02  0.7818608E-02  0.1180000E+00
       11   -1    0    0    0    0  0.00000000000E+00  0.00000000000E+00  0.39999999673E+01  0.40000000000E+01  0.51109989000E-03 0.  1.
     -623   -1    0    0    0    0  0.00000000000E+00  0.00000000000E+00  0.12525980253E-10  0.17130000000E+03  0.17130000000E+03 0. -1.
       11    1    1    2    0    0 -0.38720937483E-02 -0.12474724243E-02  0.10607567557E+00  0.10615488433E+00  0.51109989000E-03 0.  1.
     -623    1    1    2    0    0 -0.11552180653E-02  0.95478679119E-03  0.13380258642E-03  0.17130000001E+03  0.17130000000E+03 0. -1.
      622    1    1    2    0    0  0.50273118136E-02  0.29268563308E-03  0.38937904892E+01  0.38938451091E+01  0.20000000000E-01 0.  1.
</event>
<event>
 5   0  0.3603037E+08  0.9118800E+02  0.7818608E-02  0.1180000E+00
       11   -1    0    0    0    0  0.00000000000E+00  0.00000000000E+00  0.39999999673E+01  0.40000000000E+01  0.51109989000E-03 0. -1.
     -623   -1    0    0    0    0  0.00000000000E+00  0.00000000000E+00  0.12525980253E-10  0.17130000000E+03  0.17130000000E+03 0. -1.
       11    1    1    2    0    0  0.10243955084E-02  0.11090085424E-02  0.18540600069E+01  0.18540606920E+01  0.51109989000E-03 0. -1.
     -623    1    1    2    0    0 -0.23526038031E-03  0.93600267043E-04  0.94336092686E-04  0.17130000000E+03  0.17130000000E+03 0. -1.
      622    1    1    2    0    0 -0.78913512808E-03 -0.12026088094E-02  0.21458456244E+01  0.21459393078E+01  0.20000000000E-01 0. -1.
</event>
<event>
 5   0  0.3603037E+08  0.9118800E+02  0.7818608E-02  0.1180000E+00
       11   -1    0    0    0    0  0.00000000000E+00  0.00000000000E+00  0.39999999673E+01  0.40000000000E+01  0.51109989000E-03 0. -1.
     -623   -1    0    0    0    0  0.00000000000E+00  0.00000000000E+00  0.12525980253E-10  0.17130000000E+03  0.17130000000E+03 0.  1.
       11    1    1    2    0    0  0.60954901423E-03 -0.78023171801E-03  0.63044708738E-01  0.63054554414E-01  0.51109989000E-03 0. -1.
     -623    1    1    2    0    0 -0.91395541010E-05  0.12313770048E-03  0.60714845354E-04  0.17130000000E+03  0.17130000000E+03 0.  1.
      622    1    1    2    0    0 -0.60040946013E-03  0.65709401753E-03  0.39368945438E+01  0.39369454455E+01  0.20000000000E-01 0. -1.
</event>
<event>
 5   0  0.3603037E+08  0.9118800E+02  0.7818608E-02  0.1180000E+00
       11   -1    0    0    0    0  0.00000000000E+00  0.00000000000E+00  0.39999999673E+01  0.40000000000E+01  0.51109989000E-03 0.  1.
     -623   -1    0    0    0    0  0.00000000000E+00  0.00000000000E+00  0.12525980253E-10  0.17130000000E+03  0.17130000000E+03 0. -1.
       11    1    1    2    0    0  0.12524113996E-02 -0.15756675851E-03  0.52991206414E-01  0.53008702500E-01  0.51109989000E-03 0.  1.
     -623    1    1    2    0    0  0.79312965477E-04  0.28720073906E-03  0.68362346240E-04  0.17130000000E+03  0.17130000000E+03 0. -1.
      622    1    1    2    0    0 -0.13317243650E-02 -0.12963398055E-03  0.39469403986E+01  0.39469912972E+01  0.20000000000E-01 0.  1.
</event>
<event>
 5   0  0.3603037E+08  0.9118800E+02  0.7818608E-02  0.1180000E+00
       11   -1    0    0    0    0  0.00000000000E+00  0.00000000000E+00  0.39999999673E+01  0.40000000000E+01  0.51109989000E-03 0.  1.
     -623   -1    0    0    0    0  0.00000000000E+00  0.00000000000E+00  0.12525980253E-10  0.17130000000E+03  0.17130000000E+03 0.  1.
       11    1    1    2    0    0 -0.43522022199E-01 -0.29830078492E-02  0.25209231042E+01  0.25213005817E+01  0.51109989000E-03 0.  1.
     -623    1    1    2    0    0  0.91635249563E-02 -0.84082849107E-02  0.95631368783E-03  0.17130000045E+03  0.17130000000E+03 0.  1.
      622    1    1    2    0    0  0.34358497243E-01  0.11391292760E-01  0.14781205495E+01  0.14786989642E+01  0.20000000000E-01 0.  1.
</event>
<event>
 5   0  0.3603037E+08  0.9118800E+02  0.7818608E-02  0.1180000E+00
       11   -1    0    0    0    0  0.00000000000E+00  0.00000000000E+00  0.39999999673E+01  0.40000000000E+01  0.51109989000E-03 0.  1.
     -623   -1    0    0    0    0  0.00000000000E+00  0.00000000000E+00  0.12525980253E-10  0.17130000000E+03  0.17130000000E+03 0. -1.
       11    1    1    2    0    0 -0.13987937701E-01 -0.44150191916E-02  0.20781037345E+01  0.20781555638E+01  0.51109989000E-03 0.  1.
     -623    1    1    2    0    0  0.27534868562E-02 -0.27125353789E-02  0.20196634438E-03  0.17130000004E+03  0.17130000000E+03 0. -1.
      622    1    1    2    0    0  0.11234450845E-01  0.71275545705E-02  0.19216942665E+01  0.19218443924E+01  0.20000000000E-01 0. -1.
</event>
<event>
 5   0  0.3603037E+08  0.9118800E+02  0.7818608E-02  0.1180000E+00
       11   -1    0    0    0    0  0.00000000000E+00  0.00000000000E+00  0.39999999673E+01  0.40000000000E+01  0.51109989000E-03 0. -1.
     -623   -1    0    0    0    0  0.00000000000E+00  0.00000000000E+00  0.12525980253E-10  0.17130000000E+03  0.17130000000E+03 0. -1.
       11    1    1    2    0    0 -0.28198860603E-02  0.13234652822E-02  0.31365007862E-01  0.31523455670E-01  0.51109989000E-03 0. -1.
     -623    1    1    2    0    0  0.68730355122E-02 -0.16160186410E-02  0.21103892312E-03  0.17130000015E+03  0.17130000000E+03 0. -1.
      622    1    1    2    0    0 -0.40531494520E-02  0.29255335877E-03  0.39684239206E+01  0.39684763987E+01  0.20000000000E-01 0. -1.
</event>
<event>
 5   0  0.3603037E+08  0.9118800E+02  0.7818608E-02  0.1180000E+00
       11   -1    0    0    0    0  0.00000000000E+00  0.00000000000E+00  0.39999999673E+01  0.40000000000E+01  0.51109989000E-03 0. -1.
     -623   -1    0    0    0    0  0.00000000000E+00  0.00000000000E+00  0.12525980253E-10  0.17130000000E+03  0.17130000000E+03 0. -1.
       11    1    1    2    0    0 -0.76333429172E-02  0.68112356676E-02  0.72228176713E-01  0.72950884760E-01  0.51109989000E-03 0. -1.
     -623    1    1    2    0    0  0.87675711770E-02 -0.94490669077E-02  0.77514104284E-03  0.17130000049E+03  0.17130000000E+03 0. -1.
      622    1    1    2    0    0 -0.11342282598E-02  0.26378312402E-02  0.39269966496E+01  0.39270486285E+01  0.20000000000E-01 0. -1.
</event>
<event>
 5   0  0.3603037E+08  0.9118800E+02  0.7818608E-02  0.1180000E+00
       11   -1    0    0    0    0  0.00000000000E+00  0.00000000000E+00  0.39999999673E+01  0.40000000000E+01  0.51109989000E-03 0. -1.
     -623   -1    0    0    0    0  0.00000000000E+00  0.00000000000E+00  0.12525980253E-10  0.17130000000E+03  0.17130000000E+03 0. -1.
       11    1    1    2    0    0 -0.59765065858E-02 -0.95245248099E-03  0.11386374898E-01  0.12904904133E-01  0.51109989000E-03 0. -1.
     -623    1    1    2    0    0  0.67836651810E-02  0.35768481029E-03  0.15689266885E-02  0.17130000014E+03  0.17130000000E+03 0. -1.
      622    1    1    2    0    0 -0.80715859521E-03  0.59476767070E-03  0.39870446658E+01  0.39870949540E+01  0.20000000000E-01 0. -1.
</event>
<event>
 5   0  0.3603037E+08  0.9118800E+02  0.7818608E-02  0.1180000E+00
       11   -1    0    0    0    0  0.00000000000E+00  0.00000000000E+00  0.39999999673E+01  0.40000000000E+01  0.51109989000E-03 0.  1.
     -623   -1    0    0    0    0  0.00000000000E+00  0.00000000000E+00  0.12525980253E-10  0.17130000000E+03  0.17130000000E+03 0. -1.
       11    1    1    2    0    0 -0.61511719530E-02  0.55511352246E-02  0.63293085528E+00  0.63298529273E+00  0.51109989000E-03 0.  1.
     -623    1    1    2    0    0  0.41743392738E-02 -0.33866017194E-02  0.11516559697E-03  0.17130000008E+03  0.17130000000E+03 0. -1.
      622    1    1    2    0    0  0.19768326792E-02 -0.21645335052E-02  0.33669539465E+01  0.33670146229E+01  0.20000000000E-01 0.  0.
</event>
<event>
 5   0  0.3603037E+08  0.9118800E+02  0.7818608E-02  0.1180000E+00
       11   -1    0    0    0    0  0.00000000000E+00  0.00000000000E+00  0.39999999673E+01  0.40000000000E+01  0.51109989000E-03 0. -1.
     -623   -1    0    0    0    0  0.00000000000E+00  0.00000000000E+00  0.12525980253E-10  0.17130000000E+03  0.17130000000E+03 0.  1.
       11    1    1    2    0    0  0.48887767500E-05 -0.43516434947E-02  0.25359549196E+01  0.25359587048E+01  0.51109989000E-03 0. -1.
     -623    1    1    2    0    0  0.20390015973E-03  0.30639995938E-03  0.14597158865E-03  0.17130000000E+03  0.17130000000E+03 0.  1.
      622    1    1    2    0    0 -0.20878893648E-03  0.40452435353E-02  0.14638990762E+01  0.14640412948E+01  0.20000000000E-01 0. -1.
</event>
<event>
 5   0  0.3603037E+08  0.9118800E+02  0.7818608E-02  0.1180000E+00
       11   -1    0    0    0    0  0.00000000000E+00  0.00000000000E+00  0.39999999673E+01  0.40000000000E+01  0.51109989000E-03 0. -1.
     -623   -1    0    0    0    0  0.00000000000E+00  0.00000000000E+00  0.12525980253E-10  0.17130000000E+03  0.17130000000E+03 0. -1.
       11    1    1    2    0    0 -0.46370524512E-02 -0.97822947799E-02  0.34563735155E-01  0.36223039014E-01  0.51109989000E-03 0. -1.
     -623    1    1    2    0    0  0.31030116783E-02  0.19998696786E-03  0.17216448223E-02  0.17130000004E+03  0.17130000000E+03 0. -1.
      622    1    1    2    0    0  0.15340407729E-02  0.95823078120E-02  0.39637145874E+01  0.39637769241E+01  0.20000000000E-01 0. -1.
</event>
<event>
 5   0  0.3603037E+08  0.9118800E+02  0.7818608E-02  0.1180000E+00
       11   -1    0    0    0    0  0.00000000000E+00  0.00000000000E+00  0.39999999673E+01  0.40000000000E+01  0.51109989000E-03 0. -1.
     -623   -1    0    0    0    0  0.00000000000E+00  0.00000000000E+00  0.12525980253E-10  0.17130000000E+03  0.17130000000E+03 0. -1.
       11    1    1    2    0    0  0.10593493427E-02  0.51583334803E-02  0.93199741671E-01  0.93349792147E-01  0.51109989000E-03 0. -1.
     -623    1    1    2    0    0  0.50130653481E-04  0.12489595481E-02  0.20662952757E-03  0.17130000000E+03  0.17130000000E+03 0. -1.
      622    1    1    2    0    0 -0.11094799962E-02 -0.64072930284E-02  0.39065935962E+01  0.39066502032E+01  0.20000000000E-01 0. -1.
</event>
<event>
 5   0  0.3603037E+08  0.9118800E+02  0.7818608E-02  0.1180000E+00
       11   -1    0    0    0    0  0.00000000000E+00  0.00000000000E+00  0.39999999673E+01  0.40000000000E+01  0.51109989000E-03 0. -1.
     -623   -1    0    0    0    0  0.00000000000E+00  0.00000000000E+00  0.12525980253E-10  0.17130000000E+03  0.17130000000E+03 0. -1.
       11    1    1    2    0    0  0.92458353972E-03 -0.14462398812E-02  0.33339317489E+00  0.33339798552E+00  0.51109989000E-03 0. -1.
     -623    1    1    2    0    0  0.68884427275E-03  0.53645370988E-02  0.61858861699E-04  0.17130000009E+03  0.17130000000E+03 0. -1.
      622    1    1    2    0    0 -0.16134278125E-02 -0.39182972176E-02  0.36665449336E+01  0.36666019291E+01  0.20000000000E-01 0. -1.
</event>
<event>
 5   0  0.3603037E+08  0.9118800E+02  0.7818608E-02  0.1180000E+00
       11   -1    0    0    0    0  0.00000000000E+00  0.00000000000E+00  0.39999999673E+01  0.40000000000E+01  0.51109989000E-03 0. -1.
     -623   -1    0    0    0    0  0.00000000000E+00  0.00000000000E+00  0.12525980253E-10  0.17130000000E+03  0.17130000000E+03 0.  1.
       11    1    1    2    0    0  0.12570579520E-02 -0.28738928811E-04  0.28870483059E-01  0.28902370727E-01  0.51109989000E-03 0.  1.
     -623    1    1    2    0    0  0.34858877221E-03 -0.82735609809E-03  0.82638521703E-04  0.17130000000E+03  0.17130000000E+03 0.  1.
      622    1    1    2    0    0 -0.16056467242E-02  0.85609502690E-03  0.39710468458E+01  0.39710976269E+01  0.20000000000E-01 0. -1.
</event>
<event>
 5   0  0.3603037E+08  0.9118800E+02  0.7818608E-02  0.1180000E+00
       11   -1    0    0    0    0  0.00000000000E+00  0.00000000000E+00  0.39999999673E+01  0.40000000000E+01  0.51109989000E-03 0.  1.
     -623   -1    0    0    0    0  0.00000000000E+00  0.00000000000E+00  0.12525980253E-10  0.17130000000E+03  0.17130000000E+03 0. -1.
       11    1    1    2    0    0  0.73474479270E-03  0.89181580897E-03  0.70120155879E-01  0.70131538312E-01  0.51109989000E-03 0.  1.
     -623    1    1    2    0    0 -0.20518998829E-02  0.47354558331E-03  0.62713289664E-04  0.17130000001E+03  0.17130000000E+03 0. -1.
      622    1    1    2    0    0  0.13171550902E-02 -0.13653613923E-02  0.39298170982E+01  0.39298684487E+01  0.20000000000E-01 0.  1.
</event>
<event>
 5   0  0.3603037E+08  0.9118800E+02  0.7818608E-02  0.1180000E+00
       11   -1    0    0    0    0  0.00000000000E+00  0.00000000000E+00  0.39999999673E+01  0.40000000000E+01  0.51109989000E-03 0.  1.
     -623   -1    0    0    0    0  0.00000000000E+00  0.00000000000E+00  0.12525980253E-10  0.17130000000E+03  0.17130000000E+03 0. -1.
       11    1    1    2    0    0  0.21191452505E-01  0.54102164105E-02  0.35290397110E+00  0.35358142222E+00  0.51109989000E-03 0.  1.
     -623    1    1    2    0    0  0.31230960279E-02 -0.68454172122E-02  0.81378445949E-03  0.17130000017E+03  0.17130000000E+03 0. -1.
      622    1    1    2    0    0 -0.24314548533E-01  0.14352008018E-02  0.36462822118E+01  0.36464184106E+01  0.20000000000E-01 0.  1.
</event>
<event>
 5   0  0.3603037E+08  0.9118800E+02  0.7818608E-02  0.1180000E+00
       11   -1    0    0    0    0  0.00000000000E+00  0.00000000000E+00  0.39999999673E+01  0.40000000000E+01  0.51109989000E-03 0. -1.
     -623   -1    0    0    0    0  0.00000000000E+00  0.00000000000E+00  0.12525980253E-10  0.17130000000E+03  0.17130000000E+03 0. -1.
       11    1    1    2    0    0  0.26456942154E-01  0.11999224476E-01  0.40277555718E+00  0.40382219089E+00  0.51109989000E-03 0. -1.
     -623    1    1    2    0    0 -0.25183755020E-01 -0.15657817649E-01  0.11068729906E-02  0.17130000257E+03  0.17130000000E+03 0. -1.
      622    1    1    2    0    0 -0.12731871340E-02  0.36585931733E-02  0.35961175372E+01  0.35961752387E+01  0.20000000000E-01 0. -1.
</event>
<event>
 5   0  0.3603037E+08  0.9118800E+02  0.7818608E-02  0.1180000E+00
       11   -1    0    0    0    0  0.00000000000E+00  0.00000000000E+00  0.39999999673E+01  0.40000000000E+01  0.51109989000E-03 0. -1.
     -623   -1    0    0    0    0  0.00000000000E+00  0.00000000000E+00  0.12525980253E-10  0.17130000000E+03  0.17130000000E+03 0. -1.
       11    1    1    2    0    0 -0.62956379719E-03  0.23551869986E-03  0.19520396983E-01  0.19538652421E-01  0.51109989000E-03 0. -1.
     -623    1    1    2    0    0 -0.12405779635E-03  0.12324371115E-03  0.68556160620E-04  0.17130000000E+03  0.17130000000E+03 0. -1.
      622    1    1    2    0    0  0.75362159354E-03 -0.35876241101E-03  0.39804110142E+01  0.39804613475E+01  0.20000000000E-01 0. -1.
</event>
<event>
 5   0  0.3603037E+08  0.9118800E+02  0.7818608E-02  0.1180000E+00
       11   -1    0    0    0    0  0.00000000000E+00  0.00000000000E+00  0.39999999673E+01  0.40000000000E+01  0.51109989000E-03 0. -1.
     -623   -1    0    0    0    0  0.00000000000E+00  0.00000000000E+00  0.12525980253E-10  0.17130000000E+03  0.17130000000E+03 0. -1.
       11    1    1    2    0    0 -0.16362067245E-02 -0.26985671839E-02  0.97303268700E-01  0.97355774137E-01  0.51109989000E-03 0. -1.
     -623    1    1    2    0    0  0.11492960016E-01 -0.58536998503E-02  0.12602454256E-03  0.17130000049E+03  0.17130000000E+03 0. -1.
      622    1    1    2    0    0 -0.98567532916E-02  0.85522670342E-02  0.39025706741E+01  0.39026437403E+01  0.20000000000E-01 0. -1.
</event>
<event>
 5   0  0.3603037E+08  0.9118800E+02  0.7818608E-02  0.1180000E+00
       11   -1    0    0    0    0  0.00000000000E+00  0.00000000000E+00  0.39999999673E+01  0.40000000000E+01  0.51109989000E-03 0. -1.
     -623   -1    0    0    0    0  0.00000000000E+00  0.00000000000E+00  0.12525980253E-10  0.17130000000E+03  0.17130000000E+03 0. -1.
       11    1    1    2    0    0  0.52883342704E-02  0.27204742103E-01  0.37373342915E+00  0.37475992549E+00  0.51109989000E-03 0. -1.
     -623    1    1    2    0    0 -0.84484624099E-02 -0.15104302391E-01  0.11040830570E-02  0.17130000088E+03  0.17130000000E+03 0. -1.
      622    1    1    2    0    0  0.31601281395E-02 -0.12100439712E-01  0.36251624552E+01  0.36252391967E+01  0.20000000000E-01 0. -1.
</event>
<event>
 5   0  0.3603037E+08  0.9118800E+02  0.7818608E-02  0.1180000E+00
       11   -1    0    0    0    0  0.00000000000E+00  0.00000000000E+00  0.39999999673E+01  0.40000000000E+01  0.51109989000E-03 0. -1.
     -623   -1    0    0    0    0  0.00000000000E+00  0.00000000000E+00  0.12525980253E-10  0.17130000000E+03  0.17130000000E+03 0.  1.
       11    1    1    2    0    0 -0.63170581578E-03  0.17941785867E-02  0.32205944878E+00  0.32206547145E+00  0.51109989000E-03 0. -1.
     -623    1    1    2    0    0  0.44522613477E-04 -0.31230190055E-03  0.60714486767E-04  0.17130000000E+03  0.17130000000E+03 0.  1.
      622    1    1    2    0    0  0.58718320230E-03 -0.14818766862E-02  0.36778798041E+01  0.36779345283E+01  0.20000000000E-01 0. -1.
</event>
<event>
 5   0  0.3603037E+08  0.9118800E+02  0.7818608E-02  0.1180000E+00
       11   -1    0    0    0    0  0.00000000000E+00  0.00000000000E+00  0.39999999673E+01  0.40000000000E+01  0.51109989000E-03 0.  1.
     -623   -1    0    0    0    0  0.00000000000E+00  0.00000000000E+00  0.12525980253E-10  0.17130000000E+03  0.17130000000E+03 0. -1.
       11    1    1    2    0    0  0.28996804927E-01 -0.14208664477E-01  0.16455671965E+01  0.16458840664E+01  0.51109989000E-03 0.  1.
     -623    1    1    2    0    0 -0.30421886045E-01  0.17398547798E-01  0.40797462705E-03  0.17130000359E+03  0.17130000000E+03 0. -1.
      622    1    1    2    0    0  0.14250811178E-02 -0.31898833210E-02  0.23540247963E+01  0.23541123481E+01  0.20000000000E-01 0.  0.
</event>
<event>
 5   0  0.3603037E+08  0.9118800E+02  0.7818608E-02  0.1180000E+00
       11   -1    0    0    0    0  0.00000000000E+00  0.00000000000E+00  0.39999999673E+01  0.40000000000E+01  0.51109989000E-03 0. -1.
     -623   -1    0    0    0    0  0.00000000000E+00  0.00000000000E+00  0.12525980253E-10  0.17130000000E+03  0.17130000000E+03 0. -1.
       11    1    1    2    0    0 -0.32141551596E-02  0.64179356423E-02  0.12107152869E+01  0.12107366715E+01  0.51109989000E-03 0. -1.
     -623    1    1    2    0    0 -0.68581999067E-02  0.58915997552E-02  0.13864501488E-03  0.17130000024E+03  0.17130000000E+03 0. -1.
      622    1    1    2    0    0  0.10072355066E-01 -0.12309535397E-01  0.27891460355E+01  0.27892630898E+01  0.20000000000E-01 0.  0.
</event>
<event>
 5   0  0.3603037E+08  0.9118800E+02  0.7818608E-02  0.1180000E+00
       11   -1    0    0    0    0  0.00000000000E+00  0.00000000000E+00  0.39999999673E+01  0.40000000000E+01  0.51109989000E-03 0. -1.
     -623   -1    0    0    0    0  0.00000000000E+00  0.00000000000E+00  0.12525980253E-10  0.17130000000E+03  0.17130000000E+03 0.  1.
       11    1    1    2    0    0 -0.64113600746E-02 -0.15096205169E-01  0.10361431552E+01  0.10362730819E+01  0.51109989000E-03 0. -1.
     -623    1    1    2    0    0  0.72710529454E-02  0.88351828710E-02  0.20449791683E-03  0.17130000038E+03  0.17130000000E+03 0.  1.
      622    1    1    2    0    0 -0.85969287081E-03  0.62610222978E-02  0.29636523142E+01  0.29637265358E+01  0.20000000000E-01 0.  1.
</event>
<event>
 5   0  0.3603037E+08  0.9118800E+02  0.7818608E-02  0.1180000E+00
       11   -1    0    0    0    0  0.00000000000E+00  0.00000000000E+00  0.39999999673E+01  0.40000000000E+01  0.51109989000E-03 0.  1.
     -623   -1    0    0    0    0  0.00000000000E+00  0.00000000000E+00  0.12525980253E-10  0.17130000000E+03  0.17130000000E+03 0. -1.
       11    1    1    2    0    0  0.55476005426E-02  0.10328070413E-02  0.21458912074E+01  0.21458986877E+01  0.51109989000E-03 0.  1.
     -623    1    1    2    0    0 -0.18592969108E-02  0.26915085715E-02  0.12276048442E-03  0.17130000003E+03  0.17130000000E+03 0. -1.
      622    1    1    2    0    0 -0.36883036318E-02 -0.37243156128E-02  0.18539859995E+01  0.18541012810E+01  0.20000000000E-01 0.  1.
</event>
<event>
 5   0  0.3603037E+08  0.9118800E+02  0.7818608E-02  0.1180000E+00
       11   -1    0    0    0    0  0.00000000000E+00  0.00000000000E+00  0.39999999673E+01  0.40000000000E+01  0.51109989000E-03 0.  1.
     -623   -1    0    0    0    0  0.00000000000E+00  0.00000000000E+00  0.12525980253E-10  0.17130000000E+03  0.17130000000E+03 0. -1.
       11    1    1    2    0    0 -0.62062259371E-03  0.88073074132E-02  0.62446339050E+00  0.62452601318E+00  0.51109989000E-03 0.  1.
     -623    1    1    2    0    0 -0.98605493559E-02 -0.36739038233E-02  0.14234112409E-03  0.17130000032E+03  0.17130000000E+03 0. -1.
      622    1    1    2    0    0  0.10481171950E-01 -0.51334035899E-02  0.33753942357E+01  0.33754736636E+01  0.20000000000E-01 0.  1.
</event>
<event>
 5   0  0.3603037E+08  0.9118800E+02  0.7818608E-02  0.1180000E+00
       11   -1    0    0    0    0  0.00000000000E+00  0.00000000000E+00  0.39999999673E+01  0.40000000000E+01  0.51109989000E-03 0. -1.
     -623   -1    0    0    0    0  0.00000000000E+00  0.00000000000E+00  0.12525980253E-10  0.17130000000E+03  0.17130000000E+03 0.  1.
       11    1    1    2    0    0  0.20594905034E-02  0.60008003682E-02  0.42685207530E-02  0.76637194439E-02  0.51109989000E-03 0. -1.
     -623    1    1    2    0    0 -0.32532986791E-03 -0.66584628014E-02  0.34458575328E-02  0.17130000016E+03  0.17130000000E+03 0.  1.
      622    1    1    2    0    0 -0.17341606355E-02  0.65766243315E-03  0.39922855891E+01  0.39923361162E+01  0.20000000000E-01 0. -1.
</event>
<event>
 5   0  0.3603037E+08  0.9118800E+02  0.7818608E-02  0.1180000E+00
       11   -1    0    0    0    0  0.00000000000E+00  0.00000000000E+00  0.39999999673E+01  0.40000000000E+01  0.51109989000E-03 0.  1.
     -623   -1    0    0    0    0  0.00000000000E+00  0.00000000000E+00  0.12525980253E-10  0.17130000000E+03  0.17130000000E+03 0.  1.
       11    1    1    2    0    0 -0.52745897039E-02  0.53341970405E-02  0.18774183290E+01  0.18774333858E+01  0.51109989000E-03 0.  1.
     -623    1    1    2    0    0 -0.49887558521E-03  0.23414914788E-04  0.12386695764E-03  0.17130000000E+03  0.17130000000E+03 0.  1.
      622    1    1    2    0    0  0.57734652891E-02 -0.53576119553E-02  0.21224577714E+01  0.21225666134E+01  0.20000000000E-01 0.  1.
</event>
<event>
 5   0  0.3603037E+08  0.9118800E+02  0.7818608E-02  0.1180000E+00
       11   -1    0    0    0    0  0.00000000000E+00  0.00000000000E+00  0.39999999673E+01  0.40000000000E+01  0.51109989000E-03 0.  1.
     -623   -1    0    0    0    0  0.00000000000E+00  0.00000000000E+00  0.12525980253E-10  0.17130000000E+03  0.17130000000E+03 0. -1.
       11    1    1    2    0    0 -0.56217445237E-02  0.15257247747E-02  0.18302082038E+00  0.18311420961E+00  0.51109989000E-03 0.  1.
     -623    1    1    2    0    0  0.26344367903E-02  0.18087439202E-02  0.14841112406E-03  0.17130000003E+03  0.17130000000E+03 0. -1.
      622    1    1    2    0    0  0.29873077335E-02 -0.33344686949E-02  0.38168307359E+01  0.38168857605E+01  0.20000000000E-01 0.  1.
</event>
<event>
 5   0  0.3603037E+08  0.9118800E+02  0.7818608E-02  0.1180000E+00
       11   -1    0    0    0    0  0.00000000000E+00  0.00000000000E+00  0.39999999673E+01  0.40000000000E+01  0.51109989000E-03 0.  1.
     -623   -1    0    0    0    0  0.00000000000E+00  0.00000000000E+00  0.12525980253E-10  0.17130000000E+03  0.17130000000E+03 0. -1.
       11    1    1    2    0    0  0.66212577832E-02  0.10322406767E-01  0.15593359603E+00  0.15641592224E+00  0.51109989000E-03 0.  1.
     -623    1    1    2    0    0  0.12445284208E-01 -0.15143256950E-01  0.58576634592E-03  0.17130000112E+03  0.17130000000E+03 0. -1.
      622    1    1    2    0    0 -0.19066541991E-01  0.48208501831E-02  0.38434806050E+01  0.38435829553E+01  0.20000000000E-01 0.  1.
</event>
<event>
 5   0  0.3603037E+08  0.9118800E+02  0.7818608E-02  0.1180000E+00
       11   -1    0    0    0    0  0.00000000000E+00  0.00000000000E+00  0.39999999673E+01  0.40000000000E+01  0.51109989000E-03 0.  1.
     -623   -1    0    0    0    0  0.00000000000E+00  0.00000000000E+00  0.12525980253E-10  0.17130000000E+03  0.17130000000E+03 0. -1.
       11    1    1    2    0    0  0.39687803950E-03 -0.43979061451E-02  0.69106480004E-01  0.69249302464E-01  0.51109989000E-03 0.  1.
     -623    1    1    2    0    0 -0.97135424373E-03  0.27227041908E-03  0.19588119893E-03  0.17130000000E+03  0.17130000000E+03 0. -1.
      622    1    1    2    0    0  0.57447620423E-03  0.41256357260E-02  0.39306976062E+01  0.39307506945E+01  0.20000000000E-01 0.  1.
</event>
<event>
 5   0  0.3603037E+08  0.9118800E+02  0.7818608E-02  0.1180000E+00
       11   -1    0    0    0    0  0.00000000000E+00  0.00000000000E+00  0.39999999673E+01  0.40000000000E+01  0.51109989000E-03 0. -1.
     -623   -1    0    0    0    0  0.00000000000E+00  0.00000000000E+00  0.12525980253E-10  0.17130000000E+03  0.17130000000E+03 0.  1.
       11    1    1    2    0    0 -0.11570877352E-02 -0.11749841388E-02  0.61485776818E-01  0.61510010660E-01  0.51109989000E-03 0. -1.
     -623    1    1    2    0    0  0.27994254762E-02  0.27456573724E-02  0.75682934423E-04  0.17130000004E+03  0.17130000000E+03 0.  1.
      622    1    1    2    0    0 -0.16423377410E-02 -0.15706732336E-02  0.39384385076E+01  0.39384899444E+01  0.20000000000E-01 0. -1.
</event>
<event>
 5   0  0.3603037E+08  0.9118800E+02  0.7818608E-02  0.1180000E+00
       11   -1    0    0    0    0  0.00000000000E+00  0.00000000000E+00  0.39999999673E+01  0.40000000000E+01  0.51109989000E-03 0. -1.
     -623   -1    0    0    0    0  0.00000000000E+00  0.00000000000E+00  0.12525980253E-10  0.17130000000E+03  0.17130000000E+03 0.  1.
       11    1    1    2    0    0 -0.37666425650E-03 -0.11098968358E-02  0.17755349042E-01  0.17801331054E-01  0.51109989000E-03 0. -1.
     -623    1    1    2    0    0  0.16340182777E-03  0.76190484321E-04  0.96313200310E-04  0.17130000000E+03  0.17130000000E+03 0.  1.
      622    1    1    2    0    0  0.21326242874E-03  0.10337063514E-02  0.39821483051E+01  0.39821986688E+01  0.20000000000E-01 0. -1.
</event>
<event>
 5   0  0.3603037E+08  0.9118800E+02  0.7818608E-02  0.1180000E+00
       11   -1    0    0    0    0  0.00000000000E+00  0.00000000000E+00  0.39999999673E+01  0.40000000000E+01  0.51109989000E-03 0. -1.
     -623   -1    0    0    0    0  0.00000000000E+00  0.00000000000E+00  0.12525980253E-10  0.17130000000E+03  0.17130000000E+03 0.  1.
       11    1    1    2    0    0  0.16912394247E-03 -0.91299850350E-03  0.43814247304E-01  0.43827065351E-01  0.51109989000E-03 0. -1.
     -623    1    1    2    0    0  0.50831124886E-04  0.81622142102E-04  0.63433147413E-04  0.17130000000E+03  0.17130000000E+03 0.  1.
      622    1    1    2    0    0 -0.21995506736E-03  0.83137636140E-03  0.39561222869E+01  0.39561729346E+01  0.20000000000E-01 0. -1.
</event>
<event>
 5   0  0.3603037E+08  0.9118800E+02  0.7818608E-02  0.1180000E+00
       11   -1    0    0    0    0  0.00000000000E+00  0.00000000000E+00  0.39999999673E+01  0.40000000000E+01  0.51109989000E-03 0. -1.
     -623   -1    0    0    0    0  0.00000000000E+00  0.00000000000E+00  0.12525980253E-10  0.17130000000E+03  0.17130000000E+03 0.  1.
       11    1    1    2    0    0  0.49468538534E-02 -0.49405217760E-02  0.79634846033E+00  0.79637931390E+00  0.51109989000E-03 0. -1.
     -623    1    1    2    0    0  0.10350413686E-02 -0.53247391700E-02  0.11536844656E-03  0.17130000009E+03  0.17130000000E+03 0.  1.
      622    1    1    2    0    0 -0.59818952220E-02  0.10265260946E-01  0.32035361386E+01  0.32036206002E+01  0.20000000000E-01 0.  0.
</event>
<event>
 5   0  0.3603037E+08  0.9118800E+02  0.7818608E-02  0.1180000E+00
       11   -1    0    0    0    0  0.00000000000E+00  0.00000000000E+00  0.39999999673E+01  0.40000000000E+01  0.51109989000E-03 0. -1.
     -623   -1    0    0    0    0  0.00000000000E+00  0.00000000000E+00  0.12525980253E-10  0.17130000000E+03  0.17130000000E+03 0. -1.
       11    1    1    2    0    0 -0.91792047994E-02 -0.39103459652E-02  0.91719577103E+00  0.91725017974E+00  0.51109989000E-03 0. -1.
     -623    1    1    2    0    0  0.86764524038E-02 -0.69589175268E-02  0.13881810883E-03  0.17130000036E+03  0.17130000000E+03 0. -1.
      622    1    1    2    0    0  0.50275239562E-03  0.10869263492E-01  0.30826653782E+01  0.30827494591E+01  0.20000000000E-01 0. -1.
</event>
<event>
 5   0  0.3603037E+08  0.9118800E+02  0.7818608E-02  0.1180000E+00
       11   -1    0    0    0    0  0.00000000000E+00  0.00000000000E+00  0.39999999673E+01  0.40000000000E+01  0.51109989000E-03 0.  1.
     -623   -1    0    0    0    0  0.00000000000E+00  0.00000000000E+00  0.12525980253E-10  0.17130000000E+03  0.17130000000E+03 0.  1.
       11    1    1    2    0    0 -0.19779118525E-01 -0.35796177242E-03  0.20834697726E+01  0.20835637491E+01  0.51109989000E-03 0.  1.
     -623    1    1    2    0    0  0.15151993754E-01  0.77119500700E-03  0.20460983884E-03  0.17130000067E+03  0.17130000000E+03 0.  1.
      622    1    1    2    0    0  0.46271247720E-02 -0.41323323458E-03  0.19163255849E+01  0.19164355790E+01  0.20000000000E-01 0.  0.
</event>
<event>
 5   0  0.3603037E+08  0.9118800E+02  0.7818608E-02  0.1180000E+00
       11   -1    0    0    0    0  0.00000000000E+00  0.00000000000E+00  0.39999999673E+01  0.40000000000E+01  0.51109989000E-03 0.  1.
     -623   -1    0    0    0    0  0.00000000000E+00  0.00000000000E+00  0.12525980253E-10  0.17130000000E+03  0.17130000000E+03 0.  1.
       11    1    1    2    0    0  0.14647178378E-02  0.73189414051E-03  0.44723637771E+00  0.44723966711E+00  0.51109989000E-03 0.  1.
     -623    1    1    2    0    0  0.16257587102E-03 -0.26592308447E-02  0.60467664309E-04  0.17130000002E+03  0.17130000000E+03 0.  1.
      622    1    1    2    0    0 -0.16272937088E-02  0.19273367042E-02  0.35527031220E+01  0.35527603122E+01  0.20000000000E-01 0. -1.
</event>
<event>
 5   0  0.3603037E+08  0.9118800E+02  0.7818608E-02  0.1180000E+00
       11   -1    0    0    0    0  0.00000000000E+00  0.00000000000E+00  0.39999999673E+01  0.40000000000E+01  0.51109989000E-03 0. -1.
     -623   -1    0    0    0    0  0.00000000000E+00  0.00000000000E+00  0.12525980253E-10  0.17130000000E+03  0.17130000000E+03 0.  1.
       11    1    1    2    0    0 -0.18403642680E-01  0.16405678748E-01  0.20373985376E+01  0.20375477670E+01  0.51109989000E-03 0. -1.
     -623    1    1    2    0    0 -0.90676127244E-03  0.60625199653E-03  0.41987499206E-03  0.17130000000E+03  0.17130000000E+03 0.  1.
      622    1    1    2    0    0  0.19310403952E-01 -0.17011930744E-01  0.19621815547E+01  0.19624522290E+01  0.20000000000E-01 0. -1.
</event>
<event>
 5   0  0.3603037E+08  0.9118800E+02  0.7818608E-02  0.1180000E+00
       11   -1    0    0    0    0  0.00000000000E+00  0.00000000000E+00  0.39999999673E+01  0.40000000000E+01  0.51109989000E-03 0. -1.
     -623   -1    0    0    0    0  0.00000000000E+00  0.00000000000E+00  0.12525980253E-10  0.17130000000E+03  0.17130000000E+03 0.  1.
       11    1    1    2    0    0  0.85749783310E-03 -0.11480259047E-02  0.97705962602E-02  0.98883284116E-02  0.51109989000E-03 0.  1.
     -623    1    1    2    0    0  0.41852727425E-04  0.35178046493E-03  0.16800498949E-03  0.17130000000E+03  0.17130000000E+03 0.  1.
      622    1    1    2    0    0 -0.89935056052E-03  0.79624543980E-03  0.39900613661E+01  0.39901116711E+01  0.20000000000E-01 0. -1.
</event>
<event>
 5   0  0.3603037E+08  0.9118800E+02  0.7818608E-02  0.1180000E+00
       11   -1    0    0    0    0  0.00000000000E+00  0.00000000000E+00  0.39999999673E+01  0.40000000000E+01  0.51109989000E-03 0. -1.
     -623   -1    0    0    0    0  0.00000000000E+00  0.00000000000E+00  0.12525980253E-10  0.17130000000E+03  0.17130000000E+03 0.  1.
       11    1    1    2    0    0 -0.11068002566E-01  0.47761300073E-02  0.11892094810E+01  0.11892706853E+01  0.51109989000E-03 0. -1.
     -623    1    1    2    0    0  0.57410378879E-03  0.28272224224E-03  0.15647261058E-03  0.17130000000E+03  0.17130000000E+03 0.  1.
      622    1    1    2    0    0  0.10493898777E-01 -0.50588522495E-02  0.28106340138E+01  0.28107293134E+01  0.20000000000E-01 0. -1.
</event>
<event>
 5   0  0.3603037E+08  0.9118800E+02  0.7818608E-02  0.1180000E+00
       11   -1    0    0    0    0  0.00000000000E+00  0.00000000000E+00  0.39999999673E+01  0.40000000000E+01  0.51109989000E-03 0.  1.
     -623   -1    0    0    0    0  0.00000000000E+00  0.00000000000E+00  0.12525980253E-10  0.17130000000E+03  0.17130000000E+03 0.  1.
       11    1    1    2    0    0  0.42154445402E-03  0.15602747915E-03  0.68349290237E-02  0.68687351109E-02  0.51109989000E-03 0.  1.
     -623    1    1    2    0    0 -0.29239360829E-02  0.10324223341E-02  0.84848814453E-04  0.17130000003E+03  0.17130000000E+03 0.  1.
      622    1    1    2    0    0  0.25023916289E-02 -0.11884498132E-02  0.39930801895E+01  0.39931312368E+01  0.20000000000E-01 0.  1.
</event>
<event>
 5   0  0.3603037E+08  0.9118800E+02  0.7818608E-02  0.1180000E+00
       11   -1    0    0    0    0  0.00000000000E+00  0.00000000000E+00  0.39999999673E+01  0.40000000000E+01  0.51109989000E-03 0. -1.
     -623   -1    0    0    0    0  0.00000000000E+00  0.00000000000E+00  0.12525980253E-10  0.17130000000E+03  0.17130000000E+03 0.  1.
       11    1    1    2    0    0 -0.67259952323E-03  0.29900346518E-03  0.46750947806E-01  0.46759535237E-01  0.51109989000E-03 0. -1.
     -623    1    1    2    0    0  0.11081351959E-02  0.77676569903E-03  0.59322242900E-04  0.17130000001E+03  0.17130000000E+03 0.  1.
      622    1    1    2    0    0 -0.43553567264E-03 -0.10757691642E-02  0.39531896973E+01  0.39532404594E+01  0.20000000000E-01 0. -1.
</event>
<event>
 5   0  0.3603037E+08  0.9118800E+02  0.7818608E-02  0.1180000E+00
       11   -1    0    0    0    0  0.00000000000E+00  0.00000000000E+00  0.39999999673E+01  0.40000000000E+01  0.51109989000E-03 0. -1.
     -623   -1    0    0    0    0  0.00000000000E+00  0.00000000000E+00  0.12525980253E-10  0.17130000000E+03  0.17130000000E+03 0. -1.
       11    1    1    2    0    0 -0.16763246162E-01  0.33271632544E-02  0.46107033946E+00  0.46138725122E+00  0.51109989000E-03 0. -1.
     -623    1    1    2    0    0  0.16597399642E-03  0.12783795153E-02  0.41532561460E-03  0.17130000001E+03  0.17130000000E+03 0. -1.
      622    1    1    2    0    0  0.16597272166E-01 -0.46055427697E-02  0.35385143023E+01  0.35386127434E+01  0.20000000000E-01 0. -1.
</event>
<event>
 5   0  0.3603037E+08  0.9118800E+02  0.7818608E-02  0.1180000E+00
       11   -1    0    0    0    0  0.00000000000E+00  0.00000000000E+00  0.39999999673E+01  0.40000000000E+01  0.51109989000E-03 0. -1.
     -623   -1    0    0    0    0  0.00000000000E+00  0.00000000000E+00  0.12525980253E-10  0.17130000000E+03  0.17130000000E+03 0. -1.
       11    1    1    2    0    0 -0.96009967910E-02  0.54960141895E-02  0.14871738045E+00  0.14912915805E+00  0.51109989000E-03 0. -1.
     -623    1    1    2    0    0 -0.16810134357E-02  0.41795374116E-03  0.48475919867E-03  0.17130000001E+03  0.17130000000E+03 0. -1.
      622    1    1    2    0    0  0.11282010227E-01 -0.59139679307E-02  0.38507978277E+01  0.38508708325E+01  0.20000000000E-01 0. -1.
</event>
<event>
 5   0  0.3603037E+08  0.9118800E+02  0.7818608E-02  0.1180000E+00
       11   -1    0    0    0    0  0.00000000000E+00  0.00000000000E+00  0.39999999673E+01  0.40000000000E+01  0.51109989000E-03 0. -1.
     -623   -1    0    0    0    0  0.00000000000E+00  0.00000000000E+00  0.12525980253E-10  0.17130000000E+03  0.17130000000E+03 0. -1.
       11    1    1    2    0    0  0.43299457692E-03  0.26935801045E-02  0.13207944915E+00  0.13210861049E+00  0.51109989000E-03 0. -1.
     -623    1    1    2    0    0 -0.34952743173E-03  0.17598494383E-03  0.81902646194E-04  0.17130000000E+03  0.17130000000E+03 0. -1.
      622    1    1    2    0    0 -0.83467145194E-04 -0.28695650484E-02  0.38678386156E+01  0.38678913890E+01  0.20000000000E-01 0. -1.
</event>
<event>
 5   0  0.3603037E+08  0.9118800E+02  0.7818608E-02  0.1180000E+00
       11   -1    0    0    0    0  0.00000000000E+00  0.00000000000E+00  0.39999999673E+01  0.40000000000E+01  0.51109989000E-03 0.  1.
     -623   -1    0    0    0    0  0.00000000000E+00  0.00000000000E+00  0.12525980253E-10  0.17130000000E+03  0.17130000000E+03 0.  1.
       11    1    1    2    0    0 -0.27576365739E-05  0.46502055584E-03  0.13355523981E-01  0.13373387509E-01  0.51109989000E-03 0. -1.
     -623    1    1    2    0    0  0.43294743987E-03  0.73822733070E-04  0.68059136275E-04  0.17130000000E+03  0.17130000000E+03 0.  1.
      622    1    1    2    0    0 -0.43018980329E-03 -0.53884328891E-03  0.39865763842E+01  0.39866266119E+01  0.20000000000E-01 0.  1.
</event>
<event>
 5   0  0.3603037E+08  0.9118800E+02  0.7818608E-02  0.1180000E+00
       11   -1    0    0    0    0  0.00000000000E+00  0.00000000000E+00  0.39999999673E+01  0.40000000000E+01  0.51109989000E-03 0.  1.
     -623   -1    0    0    0    0  0.00000000000E+00  0.00000000000E+00  0.12525980253E-10  0.17130000000E+03  0.17130000000E+03 0. -1.
       11    1    1    2    0    0 -0.10983224013E-02 -0.77554246428E-03  0.53190166010E-01  0.53209611550E-01  0.51109989000E-03 0.  1.
     -623    1    1    2    0    0 -0.15014072514E-03  0.85053623825E-04  0.70345276349E-04  0.17130000000E+03  0.17130000000E+03 0. -1.
      622    1    1    2    0    0  0.12484631265E-02  0.69048884046E-03  0.39467394561E+01  0.39467903883E+01  0.20000000000E-01 0.  1.
</event>
<event>
 5   0  0.3603037E+08  0.9118800E+02  0.7818608E-02  0.1180000E+00
       11   -1    0    0    0    0  0.00000000000E+00  0.00000000000E+00  0.39999999673E+01  0.40000000000E+01  0.51109989000E-03 0.  1.
     -623   -1    0    0    0    0  0.00000000000E+00  0.00000000000E+00  0.12525980253E-10  0.17130000000E+03  0.17130000000E+03 0. -1.
       11    1    1    2    0    0 -0.24111302869E-02 -0.10083864955E-01  0.24986236676E+00  0.25007791072E+00  0.51109989000E-03 0.  1.
     -623    1    1    2    0    0 -0.79029001536E-03  0.11690801762E-01  0.27095801471E-03  0.17130000040E+03  0.17130000000E+03 0. -1.
      622    1    1    2    0    0  0.32014203023E-02 -0.16069368070E-02  0.37498666426E+01  0.37499216883E+01  0.20000000000E-01 0.  1.
</event>
<event>
 5   0  0.3603037E+08  0.9118800E+02  0.7818608E-02  0.1180000E+00
       11   -1    0    0    0    0  0.00000000000E+00  0.00000000000E+00  0.39999999673E+01  0.40000000000E+01  0.51109989000E-03 0. -1.
     -623   -1    0    0    0    0  0.00000000000E+00  0.00000000000E+00  0.12525980253E-10  0.17130000000E+03  0.17130000000E+03 0.  1.
       11    1    1    2    0    0  0.14905625658E-02 -0.27544587290E-02  0.14762694028E+00  0.14766104273E+00  0.51109989000E-03 0. -1.
     -623    1    1    2    0    0 -0.93053641346E-02  0.69780545594E-03  0.94716477770E-04  0.17130000025E+03  0.17130000000E+03 0.  1.
      622    1    1    2    0    0  0.78148015688E-02  0.20566532730E-02  0.38522783106E+01  0.38523387031E+01  0.20000000000E-01 0. -1.
</event>
<event>
 5   0  0.3603037E+08  0.9118800E+02  0.7818608E-02  0.1180000E+00
       11   -1    0    0    0    0  0.00000000000E+00  0.00000000000E+00  0.39999999673E+01  0.40000000000E+01  0.51109989000E-03 0.  1.
     -623   -1    0    0    0    0  0.00000000000E+00  0.00000000000E+00  0.12525980253E-10  0.17130000000E+03  0.17130000000E+03 0. -1.
       11    1    1    2    0    0  0.32715292620E-02 -0.17033954945E-02  0.49690464747E-01  0.49829789964E-01  0.51109989000E-03 0.  1.
     -623    1    1    2    0    0  0.20807776148E-02  0.25042516768E-03  0.19382990381E-03  0.17130000001E+03  0.17130000000E+03 0. -1.
      622    1    1    2    0    0 -0.53523068768E-02  0.14529703268E-02  0.39501156727E+01  0.39501701971E+01  0.20000000000E-01 0.  1.
</event>
<event>
 5   0  0.3603037E+08  0.9118800E+02  0.7818608E-02  0.1180000E+00
       11   -1    0    0    0    0  0.00000000000E+00  0.00000000000E+00  0.39999999673E+01  0.40000000000E+01  0.51109989000E-03 0.  1.
     -623   -1    0    0    0    0  0.00000000000E+00  0.00000000000E+00  0.12525980253E-10  0.17130000000E+03  0.17130000000E+03 0. -1.
       11    1    1    2    0    0 -0.19389390976E-01 -0.29011646784E-02  0.43205416528E+00  0.43249904994E+00  0.51109989000E-03 0.  1.
     -623    1    1    2    0    0  0.21863356418E-01 -0.27366347360E-02  0.50764464873E-03  0.17130000142E+03  0.17130000000E+03 0. -1.
      622    1    1    2    0    0 -0.24739654420E-02  0.56377994144E-02  0.35674381574E+01  0.35674995322E+01  0.20000000000E-01 0.  1.
</event>
<event>
 5   0  0.3603037E+08  0.9118800E+02  0.7818608E-02  0.1180000E+00
       11   -1    0    0    0    0  0.00000000000E+00  0.00000000000E+00  0.39999999673E+01  0.40000000000E+01  0.51109989000E-03 0. -1.
     -623   -1    0    0    0    0  0.00000000000E+00  0.00000000000E+00  0.12525980253E-10  0.17130000000E+03  0.17130000000E+03 0.  1.
       11    1    1    2    0    0  0.13301380896E-02  0.37140241817E-03  0.81359164437E-01  0.81372489627E-01  0.51109989000E-03 0. -1.
     -623    1    1    2    0    0 -0.19609757401E-04  0.34256217661E-04  0.64571320725E-04  0.17130000000E+03  0.17130000000E+03 0.  1.
      622    1    1    2    0    0 -0.13105283322E-02 -0.40565863583E-03  0.39185762316E+01  0.39186275104E+01  0.20000000000E-01 0. -1.
</event>
<event>
 5   0  0.3603037E+08  0.9118800E+02  0.7818608E-02  0.1180000E+00
       11   -1    0    0    0    0  0.00000000000E+00  0.00000000000E+00  0.39999999673E+01  0.40000000000E+01  0.51109989000E-03 0.  1.
     -623   -1    0    0    0    0  0.00000000000E+00  0.00000000000E+00  0.12525980253E-10  0.17130000000E+03  0.17130000000E+03 0.  1.
       11    1    1    2    0    0 -0.87773894792E-02 -0.30506701837E-02  0.23635342400E-01  0.25401570554E-01  0.51109989000E-03 0.  1.
     -623    1    1    2    0    0  0.62415634388E-02  0.12218189503E-03  0.18185266092E-02  0.17130000012E+03  0.17130000000E+03 0.  1.
      622    1    1    2    0    0  0.25358260403E-02  0.29284882887E-02  0.39745460984E+01  0.39745983060E+01  0.20000000000E-01 0.  1.
</event>
<event>
 5   0  0.3603037E+08  0.9118800E+02  0.7818608E-02  0.1180000E+00
       11   -1    0    0    0    0  0.00000000000E+00  0.00000000000E+00  0.39999999673E+01  0.40000000000E+01  0.51109989000E-03 0. -1.
     -623   -1    0    0    0    0  0.00000000000E+00  0.00000000000E+00  0.12525980253E-10  0.17130000000E+03  0.17130000000E+03 0.  1.
       11    1    1    2    0    0  0.32551468282E-01  0.15257845776E-01  0.22521687631E+01  0.22524557262E+01  0.51109989000E-03 0. -1.
     -623    1    1    2    0    0 -0.11283653712E-01  0.64218838453E-03  0.60352850141E-03  0.17130000037E+03  0.17130000000E+03 0.  1.
      622    1    1    2    0    0 -0.21267814570E-01 -0.15900034161E-01  0.17472276757E+01  0.17475438999E+01  0.20000000000E-01 0. -1.
</event>
<event>
 5   0  0.3603037E+08  0.9118800E+02  0.7818608E-02  0.1180000E+00
       11   -1    0    0    0    0  0.00000000000E+00  0.00000000000E+00  0.39999999673E+01  0.40000000000E+01  0.51109989000E-03 0. -1.
     -623   -1    0    0    0    0  0.00000000000E+00  0.00000000000E+00  0.12525980253E-10  0.17130000000E+03  0.17130000000E+03 0. -1.
       11    1    1    2    0    0  0.77566024614E-03  0.55496375230E-03  0.34511570938E-02  0.36168136698E-02  0.51109989000E-03 0. -1.
     -623    1    1    2    0    0 -0.45619547340E-03 -0.35612337822E-02  0.21685077675E-03  0.17130000004E+03  0.17130000000E+03 0. -1.
      622    1    1    2    0    0 -0.31946477274E-03  0.30062700299E-02  0.39963319595E+01  0.39963831486E+01  0.20000000000E-01 0. -1.
</event>
<event>
 5   0  0.3603037E+08  0.9118800E+02  0.7818608E-02  0.1180000E+00
       11   -1    0    0    0    0  0.00000000000E+00  0.00000000000E+00  0.39999999673E+01  0.40000000000E+01  0.51109989000E-03 0.  1.
     -623   -1    0    0    0    0  0.00000000000E+00  0.00000000000E+00  0.12525980253E-10  0.17130000000E+03  0.17130000000E+03 0. -1.
       11    1    1    2    0    0 -0.16635685281E-01  0.46276612471E-01  0.63848016449E+00  0.64037133958E+00  0.51109989000E-03 0.  1.
     -623    1    1    2    0    0 -0.65374131357E-02 -0.51897060295E-02  0.22820707368E-02  0.17130000022E+03  0.17130000000E+03 0. -1.
      622    1    1    2    0    0  0.23173098417E-01 -0.41086906441E-01  0.33592377321E+01  0.33596284419E+01  0.20000000000E-01 0.  1.
</event>
<event>
 5   0  0.3603037E+08  0.9118800E+02  0.7818608E-02  0.1180000E+00
       11   -1    0    0    0    0  0.00000000000E+00  0.00000000000E+00  0.39999999673E+01  0.40000000000E+01  0.51109989000E-03 0.  1.
     -623   -1    0    0    0    0  0.00000000000E+00  0.00000000000E+00  0.12525980253E-10  0.17130000000E+03  0.17130000000E+03 0.  1.
       11    1    1    2    0    0  0.41848259472E-02 -0.63331337173E-02  0.91555885468E-02  0.11904090657E-01  0.51109989000E-03 0. -1.
     -623    1    1    2    0    0 -0.36137471148E-02  0.75115789145E-02  0.27990597137E-02  0.17130000023E+03  0.17130000000E+03 0.  1.
      622    1    1    2    0    0 -0.57107883241E-03 -0.11784451972E-02  0.39880453191E+01  0.39880956837E+01  0.20000000000E-01 0.  1.
</event>
<event>
 5   0  0.3603037E+08  0.9118800E+02  0.7818608E-02  0.1180000E+00
       11   -1    0    0    0    0  0.00000000000E+00  0.00000000000E+00  0.39999999673E+01  0.40000000000E+01  0.51109989000E-03 0.  1.
     -623   -1    0    0    0    0  0.00000000000E+00  0.00000000000E+00  0.12525980253E-10  0.17130000000E+03  0.17130000000E+03 0.  1.
       11    1    1    2    0    0 -0.23146464232E-02 -0.13681546211E-02  0.49702640156E-01  0.49777937841E-01  0.51109989000E-03 0.  1.
     -623    1    1    2    0    0 -0.74409863464E-05 -0.57993157534E-03  0.12705934110E-03  0.17130000000E+03  0.17130000000E+03 0.  1.
      622    1    1    2    0    0  0.23220874095E-02  0.19480861965E-02  0.39501702679E+01  0.39502220611E+01  0.20000000000E-01 0.  1.
</event>
<event>
 5   0  0.3603037E+08  0.9118800E+02  0.7818608E-02  0.1180000E+00
       11   -1    0    0    0    0  0.00000000000E+00  0.00000000000E+00  0.39999999673E+01  0.40000000000E+01  0.51109989000E-03 0.  1.
     -623   -1    0    0    0    0  0.00000000000E+00  0.00000000000E+00  0.12525980253E-10  0.17130000000E+03  0.17130000000E+03 0.  1.
       11    1    1    2    0    0  0.36465296813E-02  0.11085815992E-02  0.19023952978E+01  0.19023991843E+01  0.51109989000E-03 0.  1.
     -623    1    1    2    0    0  0.17191618983E-03 -0.25715230296E-03  0.10285186328E-03  0.17130000000E+03  0.17130000000E+03 0.  1.
      622    1    1    2    0    0 -0.38184458712E-02 -0.85142929622E-03  0.20975018177E+01  0.20976008154E+01  0.20000000000E-01 0.  1.
</event>
<event>
 5   0  0.3603037E+08  0.9118800E+02  0.7818608E-02  0.1180000E+00
       11   -1    0    0    0    0  0.00000000000E+00  0.00000000000E+00  0.39999999673E+01  0.40000000000E+01  0.51109989000E-03 0. -1.
     -623   -1    0    0    0    0  0.00000000000E+00  0.00000000000E+00  0.12525980253E-10  0.17130000000E+03  0.17130000000E+03 0. -1.
       11    1    1    2    0    0  0.85579292308E-02 -0.22456379792E-02  0.31423978868E+00  0.31436473570E+00  0.51109989000E-03 0. -1.
     -623    1    1    2    0    0  0.18163109590E-02 -0.17013269053E-01  0.24495404202E-03  0.17130000085E+03  0.17130000000E+03 0. -1.
      622    1    1    2    0    0 -0.10374240190E-01  0.19258907032E-01  0.36855152246E+01  0.36856344096E+01  0.20000000000E-01 0. -1.
</event>
<event>
 5   0  0.3603037E+08  0.9118800E+02  0.7818608E-02  0.1180000E+00
       11   -1    0    0    0    0  0.00000000000E+00  0.00000000000E+00  0.39999999673E+01  0.40000000000E+01  0.51109989000E-03 0. -1.
     -623   -1    0    0    0    0  0.00000000000E+00  0.00000000000E+00  0.12525980253E-10  0.17130000000E+03  0.17130000000E+03 0.  1.
       11    1    1    2    0    0  0.18665550102E-03 -0.17492746533E-03  0.17010088007E-01  0.17019687319E-01  0.51109989000E-03 0. -1.
     -623    1    1    2    0    0 -0.25330409979E-03  0.65218392215E-03  0.59811234836E-04  0.17130000000E+03  0.17130000000E+03 0.  1.
      622    1    1    2    0    0  0.66648598770E-04 -0.47725645681E-03  0.39829300681E+01  0.39829803112E+01  0.20000000000E-01 0. -1.
</event>
<event>
 5   0  0.3603037E+08  0.9118800E+02  0.7818608E-02  0.1180000E+00
       11   -1    0    0    0    0  0.00000000000E+00  0.00000000000E+00  0.39999999673E+01  0.40000000000E+01  0.51109989000E-03 0.  1.
     -623   -1    0    0    0    0  0.00000000000E+00  0.00000000000E+00  0.12525980253E-10  0.17130000000E+03  0.17130000000E+03 0.  1.
       11    1    1    2    0    0  0.17525128381E-01 -0.18973141980E-01  0.85329430681E+00  0.85368527310E+00  0.51109989000E-03 0.  1.
     -623    1    1    2    0    0  0.50211632316E-03  0.10526935382E-01  0.51780922239E-03  0.17130000032E+03  0.17130000000E+03 0.  1.
      622    1    1    2    0    0 -0.18027244704E-01  0.84462065975E-02  0.31461878513E+01  0.31463144019E+01  0.20000000000E-01 0.  1.
</event>
<event>
 5   0  0.3603037E+08  0.9118800E+02  0.7818608E-02  0.1180000E+00
       11   -1    0    0    0    0  0.00000000000E+00  0.00000000000E+00  0.39999999673E+01  0.40000000000E+01  0.51109989000E-03 0. -1.
     -623   -1    0    0    0    0  0.00000000000E+00  0.00000000000E+00  0.12525980253E-10  0.17130000000E+03  0.17130000000E+03 0. -1.
       11    1    1    2    0    0 -0.14202978218E-01  0.11352421943E-01  0.77671672858E+00  0.77692968778E+00  0.51109989000E-03 0. -1.
     -623    1    1    2    0    0 -0.87471382278E-03 -0.15163374540E-02  0.32526627671E-03  0.17130000001E+03  0.17130000000E+03 0. -1.
      622    1    1    2    0    0  0.15077692041E-01 -0.98360844886E-02  0.32229579725E+01  0.32230703030E+01  0.20000000000E-01 0. -1.
</event>
<event>
 5   0  0.3603037E+08  0.9118800E+02  0.7818608E-02  0.1180000E+00
       11   -1    0    0    0    0  0.00000000000E+00  0.00000000000E+00  0.39999999673E+01  0.40000000000E+01  0.51109989000E-03 0. -1.
     -623   -1    0    0    0    0  0.00000000000E+00  0.00000000000E+00  0.12525980253E-10  0.17130000000E+03  0.17130000000E+03 0. -1.
       11    1    1    2    0    0  0.39872658090E-03 -0.38172997345E-02  0.79054753068E-01  0.79149516510E-01  0.51109989000E-03 0. -1.
     -623    1    1    2    0    0 -0.18106122296E-02  0.20666661988E-03  0.14766694587E-03  0.17130000001E+03  0.17130000000E+03 0. -1.
      622    1    1    2    0    0  0.14118856487E-02  0.36106331146E-02  0.39207975473E+01  0.39208504737E+01  0.20000000000E-01 0. -1.
</event>
<event>
 5   0  0.3603037E+08  0.9118800E+02  0.7818608E-02  0.1180000E+00
       11   -1    0    0    0    0  0.00000000000E+00  0.00000000000E+00  0.39999999673E+01  0.40000000000E+01  0.51109989000E-03 0. -1.
     -623   -1    0    0    0    0  0.00000000000E+00  0.00000000000E+00  0.12525980253E-10  0.17130000000E+03  0.17130000000E+03 0.  1.
       11    1    1    2    0    0  0.22342482614E-01  0.21221654554E-01  0.30171707618E+01  0.30173281578E+01  0.51109989000E-03 0. -1.
     -623    1    1    2    0    0  0.33138310208E-02 -0.27400376060E-02  0.86992823378E-03  0.17130000006E+03  0.17130000000E+03 0.  1.
      622    1    1    2    0    0 -0.25656313635E-01 -0.18481616948E-01  0.98195927737E+00  0.98267178600E+00  0.20000000000E-01 0. -1.
</event>
<event>
 5   0  0.3603037E+08  0.9118800E+02  0.7818608E-02  0.1180000E+00
       11   -1    0    0    0    0  0.00000000000E+00  0.00000000000E+00  0.39999999673E+01  0.40000000000E+01  0.51109989000E-03 0.  1.
     -623   -1    0    0    0    0  0.00000000000E+00  0.00000000000E+00  0.12525980253E-10  0.17130000000E+03  0.17130000000E+03 0.  1.
       11    1    1    2    0    0 -0.22828194249E-02  0.46364809338E-03  0.17849146757E+00  0.17850739887E+00  0.51109989000E-03 0.  1.
     -623    1    1    2    0    0  0.34370718249E-04 -0.11561643137E-03  0.68911960686E-04  0.17130000000E+03  0.17130000000E+03 0.  1.
      622    1    1    2    0    0  0.22484487067E-02 -0.34803166201E-03  0.38214395878E+01  0.38214926011E+01  0.20000000000E-01 0.  1.
</event>
<event>
 5   0  0.3603037E+08  0.9118800E+02  0.7818608E-02  0.1180000E+00
       11   -1    0    0    0    0  0.00000000000E+00  0.00000000000E+00  0.39999999673E+01  0.40000000000E+01  0.51109989000E-03 0. -1.
     -623   -1    0    0    0    0  0.00000000000E+00  0.00000000000E+00  0.12525980253E-10  0.17130000000E+03  0.17130000000E+03 0.  1.
       11    1    1    2    0    0  0.79468593953E-03 -0.36967671119E-02  0.78125014471E+00  0.78125946230E+00  0.51109989000E-03 0. -1.
     -623    1    1    2    0    0  0.16074121286E-02  0.20521478859E-02  0.72758020937E-04  0.17130000002E+03  0.17130000000E+03 0.  1.
      622    1    1    2    0    0 -0.24020980681E-02  0.16446192261E-02  0.32186770646E+01  0.32187405178E+01  0.20000000000E-01 0. -1.
</event>
<event>
 5   0  0.3603037E+08  0.9118800E+02  0.7818608E-02  0.1180000E+00
       11   -1    0    0    0    0  0.00000000000E+00  0.00000000000E+00  0.39999999673E+01  0.40000000000E+01  0.51109989000E-03 0. -1.
     -623   -1    0    0    0    0  0.00000000000E+00  0.00000000000E+00  0.12525980253E-10  0.17130000000E+03  0.17130000000E+03 0. -1.
       11    1    1    2    0    0  0.11982828408E-04  0.27719910352E-03  0.46291576187E-01  0.46295229029E-01  0.51109989000E-03 0. -1.
     -623    1    1    2    0    0 -0.17633863579E-03  0.49956465183E-04  0.54223050469E-04  0.17130000000E+03  0.17130000000E+03 0. -1.
      622    1    1    2    0    0  0.16435580738E-03 -0.32715556871E-03  0.39536541681E+01  0.39537047709E+01  0.20000000000E-01 0. -1.
</event>
<event>
 5   0  0.3603037E+08  0.9118800E+02  0.7818608E-02  0.1180000E+00
       11   -1    0    0    0    0  0.00000000000E+00  0.00000000000E+00  0.39999999673E+01  0.40000000000E+01  0.51109989000E-03 0.  1.
     -623   -1    0    0    0    0  0.00000000000E+00  0.00000000000E+00  0.12525980253E-10  0.17130000000E+03  0.17130000000E+03 0. -1.
       11    1    1    2    0    0 -0.14740457165E-03 -0.26371912429E-02  0.86365032844E-02  0.90458231602E-02  0.51109989000E-03 0.  1.
     -623    1    1    2    0    0  0.61017634692E-03  0.42707579552E-03  0.46004191495E-03  0.17130000000E+03  0.17130000000E+03 0. -1.
      622    1    1    2    0    0 -0.46277177527E-03  0.22101154474E-02  0.39909034222E+01  0.39909541746E+01  0.20000000000E-01 0.  1.
</event>
<event>
 5   0  0.3603037E+08  0.9118800E+02  0.7818608E-02  0.1180000E+00
       11   -1    0    0    0    0  0.00000000000E+00  0.00000000000E+00  0.39999999673E+01  0.40000000000E+01  0.51109989000E-03 0. -1.
     -623   -1    0    0    0    0  0.00000000000E+00  0.00000000000E+00  0.12525980253E-10  0.17130000000E+03  0.17130000000E+03 0.  1.
       11    1    1    2    0    0  0.28311484260E-02  0.16458358154E-02  0.93377571604E-01  0.93436375550E-01  0.51109989000E-03 0. -1.
     -623    1    1    2    0    0 -0.58643850270E-02  0.21158745134E-02  0.11306974663E-03  0.17130000011E+03  0.17130000000E+03 0.  1.
      622    1    1    2    0    0  0.30332366010E-02 -0.37617103289E-02  0.39065093260E+01  0.39065635110E+01  0.20000000000E-01 0. -1.
</event>
<event>
 5   0  0.3603037E+08  0.9118800E+02  0.7818608E-02  0.1180000E+00
       11   -1    0    0    0    0  0.00000000000E+00  0.00000000000E+00  0.39999999673E+01  0.40000000000E+01  0.51109989000E-03 0.  1.
     -623   -1    0    0    0    0  0.00000000000E+00  0.00000000000E+00  0.12525980253E-10  0.17130000000E+03  0.17130000000E+03 0. -1.
       11    1    1    2    0    0  0.43502163614E-02  0.40805813472E-02  0.12137433899E+01  0.12137581527E+01  0.51109989000E-03 0.  1.
     -623    1    1    2    0    0  0.69240693482E-03 -0.95439281738E-03  0.92833577620E-04  0.17130000000E+03  0.17130000000E+03 0. -1.
      622    1    1    2    0    0 -0.50426232962E-02 -0.31261885298E-02  0.27861637439E+01  0.27862418432E+01  0.20000000000E-01 0.  1.
</event>
<event>
 5   0  0.3603037E+08  0.9118800E+02  0.7818608E-02  0.1180000E+00
       11   -1    0    0    0    0  0.00000000000E+00  0.00000000000E+00  0.39999999673E+01  0.40000000000E+01  0.51109989000E-03 0.  1.
     -623   -1    0    0    0    0  0.00000000000E+00  0.00000000000E+00  0.12525980253E-10  0.17130000000E+03  0.17130000000E+03 0.  1.
       11    1    1    2    0    0  0.11353450539E-03  0.12600183101E-02  0.47001829112E-01  0.47021630095E-01  0.51109989000E-03 0.  1.
     -623    1    1    2    0    0  0.19108295172E-03 -0.50612233371E-03  0.70447925896E-04  0.17130000000E+03  0.17130000000E+03 0.  1.
      622    1    1    2    0    0 -0.30461745711E-03 -0.75389597642E-03  0.39529276903E+01  0.39529783690E+01  0.20000000000E-01 0.  1.
</event>
<event>
 5   0  0.3603037E+08  0.9118800E+02  0.7818608E-02  0.1180000E+00
       11   -1    0    0    0    0  0.00000000000E+00  0.00000000000E+00  0.39999999673E+01  0.40000000000E+01  0.51109989000E-03 0. -1.
     -623   -1    0    0    0    0  0.00000000000E+00  0.00000000000E+00  0.12525980253E-10  0.17130000000E+03  0.17130000000E+03 0. -1.
       11    1    1    2    0    0 -0.21901468013E-02  0.13712462168E-02  0.26608267918E-01  0.26738328325E-01  0.51109989000E-03 0. -1.
     -623    1    1    2    0    0  0.25430076865E-03  0.22875579345E-03  0.18115875602E-03  0.17130000000E+03  0.17130000000E+03 0. -1.
      622    1    1    2    0    0  0.19358460327E-02 -0.16000020103E-02  0.39732105407E+01  0.39732616712E+01  0.20000000000E-01 0. -1.
</event>
<event>
 5   0  0.3603037E+08  0.9118800E+02  0.7818608E-02  0.1180000E+00
       11   -1    0    0    0    0  0.00000000000E+00  0.00000000000E+00  0.39999999673E+01  0.40000000000E+01  0.51109989000E-03 0. -1.
     -623   -1    0    0    0    0  0.00000000000E+00  0.00000000000E+00  0.12525980253E-10  0.17130000000E+03  0.17130000000E+03 0.  1.
       11    1    1    2    0    0 -0.97885004174E-02 -0.44434649469E-02  0.35124234246E-01  0.36735979279E-01  0.51109989000E-03 0. -1.
     -623    1    1    2    0    0  0.12040295738E-01 -0.25264168926E-02  0.16693945676E-02  0.17130000045E+03  0.17130000000E+03 0.  1.
      622    1    1    2    0    0 -0.22517953202E-02  0.69698818395E-02  0.39632063385E+01  0.39632635708E+01  0.20000000000E-01 0. -1.
</event>
<event>
 5   0  0.3603037E+08  0.9118800E+02  0.7818608E-02  0.1180000E+00
       11   -1    0    0    0    0  0.00000000000E+00  0.00000000000E+00  0.39999999673E+01  0.40000000000E+01  0.51109989000E-03 0. -1.
     -623   -1    0    0    0    0  0.00000000000E+00  0.00000000000E+00  0.12525980253E-10  0.17130000000E+03  0.17130000000E+03 0. -1.
       11    1    1    2    0    0  0.20546140592E-02  0.15053029002E-02  0.49277115047E-01  0.49345543519E-01  0.51109989000E-03 0. -1.
     -623    1    1    2    0    0  0.50037985387E-03  0.75008810140E-03  0.12049309656E-03  0.17130000000E+03  0.17130000000E+03 0. -1.
      622    1    1    2    0    0 -0.25549939130E-02 -0.22553910016E-02  0.39506023592E+01  0.39506544541E+01  0.20000000000E-01 0.  0.
</event>
<event>
 5   0  0.3603037E+08  0.9118800E+02  0.7818608E-02  0.1180000E+00
       11   -1    0    0    0    0  0.00000000000E+00  0.00000000000E+00  0.39999999673E+01  0.40000000000E+01  0.51109989000E-03 0. -1.
     -623   -1    0    0    0    0  0.00000000000E+00  0.00000000000E+00  0.12525980253E-10  0.17130000000E+03  0.17130000000E+03 0. -1.
       11    1    1    2    0    0 -0.44897565709E-02  0.14220227272E-01  0.26016531668E+01  0.26016959535E+01  0.51109989000E-03 0. -1.
     -623    1    1    2    0    0  0.41398171130E-02 -0.12884993977E-01  0.18700789797E-03  0.17130000053E+03  0.17130000000E+03 0. -1.
      622    1    1    2    0    0  0.34993945789E-03 -0.13352332946E-02  0.13981597927E+01  0.13983035118E+01  0.20000000000E-01 0.  0.
</event>
<event>
 5   0  0.3603037E+08  0.9118800E+02  0.7818608E-02  0.1180000E+00
       11   -1    0    0    0    0  0.00000000000E+00  0.00000000000E+00  0.39999999673E+01  0.40000000000E+01  0.51109989000E-03 0. -1.
     -623   -1    0    0    0    0  0.00000000000E+00  0.00000000000E+00  0.12525980253E-10  0.17130000000E+03  0.17130000000E+03 0.  1.
       11    1    1    2    0    0 -0.19140623844E-01 -0.48879152032E-02  0.40849576062E+00  0.40897347451E+00  0.51109989000E-03 0. -1.
     -623    1    1    2    0    0  0.46879638208E-02 -0.26910814635E-02  0.57054447581E-03  0.17130000009E+03  0.17130000000E+03 0.  1.
      622    1    1    2    0    0  0.14452660024E-01  0.75789966668E-02  0.35909336623E+01  0.35910264392E+01  0.20000000000E-01 0. -1.
</event>
<event>
 5   0  0.3603037E+08  0.9118800E+02  0.7818608E-02  0.1180000E+00
       11   -1    0    0    0    0  0.00000000000E+00  0.00000000000E+00  0.39999999673E+01  0.40000000000E+01  0.51109989000E-03 0.  1.
     -623   -1    0    0    0    0  0.00000000000E+00  0.00000000000E+00  0.12525980253E-10  0.17130000000E+03  0.17130000000E+03 0.  1.
       11    1    1    2    0    0  0.60732050292E-02  0.27208975061E-02  0.12823478480E+01  0.12823652177E+01  0.51109989000E-03 0.  1.
     -623    1    1    2    0    0  0.60083108923E-03 -0.36331747851E-03  0.10015095396E-03  0.17130000000E+03  0.17130000000E+03 0.  1.
      622    1    1    2    0    0 -0.66740361184E-02 -0.23575800276E-02  0.27175519684E+01  0.27176347808E+01  0.20000000000E-01 0.  1.
</event>
<event>
 5   0  0.3603037E+08  0.9118800E+02  0.7818608E-02  0.1180000E+00
       11   -1    0    0    0    0  0.00000000000E+00  0.00000000000E+00  0.39999999673E+01  0.40000000000E+01  0.51109989000E-03 0.  1.
     -623   -1    0    0    0    0  0.00000000000E+00  0.00000000000E+00  0.12525980253E-10  0.17130000000E+03  0.17130000000E+03 0. -1.
       11    1    1    2    0    0  0.13017798760E-01  0.50261476268E-02  0.31836947928E+01  0.31837254153E+01  0.51109989000E-03 0.  1.
     -623    1    1    2    0    0  0.98811870769E-02  0.56483001105E-02  0.66722130120E-03  0.17130000038E+03  0.17130000000E+03 0. -1.
      622    1    1    2    0    0 -0.22898985837E-01 -0.10674447737E-01  0.81563795327E+00  0.81627420528E+00  0.20000000000E-01 0.  1.
</event>
<event>
 5   0  0.3603037E+08  0.9118800E+02  0.7818608E-02  0.1180000E+00
       11   -1    0    0    0    0  0.00000000000E+00  0.00000000000E+00  0.39999999673E+01  0.40000000000E+01  0.51109989000E-03 0.  1.
     -623   -1    0    0    0    0  0.00000000000E+00  0.00000000000E+00  0.12525980253E-10  0.17130000000E+03  0.17130000000E+03 0.  1.
       11    1    1    2    0    0  0.25519653788E-02  0.44375386924E-02  0.63207818135E+00  0.63209911630E+00  0.51109989000E-03 0.  1.
     -623    1    1    2    0    0 -0.77438483229E-02  0.96166544861E-02  0.11405858725E-03  0.17130000045E+03  0.17130000000E+03 0.  1.
      622    1    1    2    0    0  0.51918829441E-02 -0.14054193178E-01  0.33678077274E+01  0.33679004387E+01  0.20000000000E-01 0.  0.
</event>
<event>
 5   0  0.3603037E+08  0.9118800E+02  0.7818608E-02  0.1180000E+00
       11   -1    0    0    0    0  0.00000000000E+00  0.00000000000E+00  0.39999999673E+01  0.40000000000E+01  0.51109989000E-03 0.  1.
     -623   -1    0    0    0    0  0.00000000000E+00  0.00000000000E+00  0.12525980253E-10  0.17130000000E+03  0.17130000000E+03 0.  1.
       11    1    1    2    0    0  0.23953946100E-02  0.15475761907E-02  0.26794325374E+00  0.26795891729E+00  0.51109989000E-03 0.  1.
     -623    1    1    2    0    0 -0.13465043521E-03  0.23599254823E-04  0.70236822270E-04  0.17130000000E+03  0.17130000000E+03 0.  1.
      622    1    1    2    0    0 -0.22607441748E-02 -0.15711754455E-02  0.37319864768E+01  0.37320410826E+01  0.20000000000E-01 0.  1.
</event>
<event>
 5   0  0.3603037E+08  0.9118800E+02  0.7818608E-02  0.1180000E+00
       11   -1    0    0    0    0  0.00000000000E+00  0.00000000000E+00  0.39999999673E+01  0.40000000000E+01  0.51109989000E-03 0. -1.
     -623   -1    0    0    0    0  0.00000000000E+00  0.00000000000E+00  0.12525980253E-10  0.17130000000E+03  0.17130000000E+03 0.  1.
       11    1    1    2    0    0  0.40314560962E-02 -0.37081125775E-03  0.12437333801E+00  0.12444026104E+00  0.51109989000E-03 0. -1.
     -623    1    1    2    0    0 -0.34125443415E-02  0.45791460027E-02  0.12092571783E-03  0.17130000010E+03  0.17130000000E+03 0.  1.
      622    1    1    2    0    0 -0.61891175466E-03 -0.42083347450E-02  0.38755057036E+01  0.38755596437E+01  0.20000000000E-01 0. -1.
</event>
<event>
 5   0  0.3603037E+08  0.9118800E+02  0.7818608E-02  0.1180000E+00
       11   -1    0    0    0    0  0.00000000000E+00  0.00000000000E+00  0.39999999673E+01  0.40000000000E+01  0.51109989000E-03 0. -1.
     -623   -1    0    0    0    0  0.00000000000E+00  0.00000000000E+00  0.12525980253E-10  0.17130000000E+03  0.17130000000E+03 0.  1.
       11    1    1    2    0    0 -0.10796402693E-02 -0.13469270191E-02  0.76830350720E-02  0.78911397558E-02  0.51109989000E-03 0. -1.
     -623    1    1    2    0    0  0.25128046486E-02  0.54963314101E-03  0.25852757309E-03  0.17130000002E+03  0.17130000000E+03 0.  1.
      622    1    1    2    0    0 -0.14331643794E-02  0.79729387808E-03  0.39920584047E+01  0.39921088407E+01  0.20000000000E-01 0. -1.
</event>
<event>
 5   0  0.3603037E+08  0.9118800E+02  0.7818608E-02  0.1180000E+00
       11   -1    0    0    0    0  0.00000000000E+00  0.00000000000E+00  0.39999999673E+01  0.40000000000E+01  0.51109989000E-03 0.  1.
     -623   -1    0    0    0    0  0.00000000000E+00  0.00000000000E+00  0.12525980253E-10  0.17130000000E+03  0.17130000000E+03 0. -1.
       11    1    1    2    0    0 -0.35760317008E-02 -0.84495579493E-02  0.10779482480E+01  0.10779874163E+01  0.51109989000E-03 0.  1.
     -623    1    1    2    0    0  0.47032460021E-03 -0.39530336364E-03  0.12262100122E-03  0.17130000000E+03  0.17130000000E+03 0. -1.
      622    1    1    2    0    0  0.31057071006E-02  0.88448613129E-02  0.29219290984E+01  0.29220125826E+01  0.20000000000E-01 0.  1.
</event>
<event>
 5   0  0.3603037E+08  0.9118800E+02  0.7818608E-02  0.1180000E+00
       11   -1    0    0    0    0  0.00000000000E+00  0.00000000000E+00  0.39999999673E+01  0.40000000000E+01  0.51109989000E-03 0.  1.
     -623   -1    0    0    0    0  0.00000000000E+00  0.00000000000E+00  0.12525980253E-10  0.17130000000E+03  0.17130000000E+03 0. -1.
       11    1    1    2    0    0  0.47472540112E-02 -0.15911935752E-01  0.45214481141E+00  0.45244990643E+00  0.51109989000E-03 0.  1.
     -623    1    1    2    0    0 -0.53809919418E-03  0.10400913599E-03  0.39915913304E-03  0.17130000000E+03  0.17130000000E+03 0. -1.
      622    1    1    2    0    0 -0.42091548171E-02  0.15807926616E-01  0.35474559968E+01  0.35475500922E+01  0.20000000000E-01 0.  1.
</event>
<event>
 5   0  0.3603037E+08  0.9118800E+02  0.7818608E-02  0.1180000E+00
       11   -1    0    0    0    0  0.00000000000E+00  0.00000000000E+00  0.39999999673E+01  0.40000000000E+01  0.51109989000E-03 0.  1.
     -623   -1    0    0    0    0  0.00000000000E+00  0.00000000000E+00  0.12525980253E-10  0.17130000000E+03  0.17130000000E+03 0. -1.
       11    1    1    2    0    0  0.10579030380E-02 -0.77478633548E-03  0.26206442131E-01  0.26244204749E-01  0.51109989000E-03 0.  1.
     -623    1    1    2    0    0 -0.35440464688E-02  0.58609826596E-02  0.92230270017E-04  0.17130000014E+03  0.17130000000E+03 0. -1.
      622    1    1    2    0    0  0.24861434308E-02 -0.50861963241E-02  0.39737012950E+01  0.39737556583E+01  0.20000000000E-01 0.  1.
</event>
<event>
 5   0  0.3603037E+08  0.9118800E+02  0.7818608E-02  0.1180000E+00
       11   -1    0    0    0    0  0.00000000000E+00  0.00000000000E+00  0.39999999673E+01  0.40000000000E+01  0.51109989000E-03 0. -1.
     -623   -1    0    0    0    0  0.00000000000E+00  0.00000000000E+00  0.12525980253E-10  0.17130000000E+03  0.17130000000E+03 0.  1.
       11    1    1    2    0    0 -0.72609418161E-03  0.17359655472E-03  0.16351596960E-01  0.16376608097E-01  0.51109989000E-03 0. -1.
     -623    1    1    2    0    0  0.17135070437E-02 -0.76844539017E-03  0.75361461865E-04  0.17130000001E+03  0.17130000000E+03 0.  1.
      622    1    1    2    0    0 -0.98741286209E-03  0.59484883546E-03  0.39835730089E+01  0.39836233816E+01  0.20000000000E-01 0. -1.
</event>
<event>
 5   0  0.3603037E+08  0.9118800E+02  0.7818608E-02  0.1180000E+00
       11   -1    0    0    0    0  0.00000000000E+00  0.00000000000E+00  0.39999999673E+01  0.40000000000E+01  0.51109989000E-03 0. -1.
     -623   -1    0    0    0    0  0.00000000000E+00  0.00000000000E+00  0.12525980253E-10  0.17130000000E+03  0.17130000000E+03 0. -1.
       11    1    1    2    0    0  0.26224584879E-02 -0.96513552583E-02  0.20006839346E+01  0.20007089976E+01  0.51109989000E-03 0. -1.
     -623    1    1    2    0    0 -0.10732095629E-02 -0.23187667156E-02  0.16152359180E-03  0.17130000002E+03  0.17130000000E+03 0. -1.
      622    1    1    2    0    0 -0.15492489250E-02  0.11970121974E-01  0.19991545092E+01  0.19992909832E+01  0.20000000000E-01 0.  1.
</event>
<event>
 5   0  0.3603037E+08  0.9118800E+02  0.7818608E-02  0.1180000E+00
       11   -1    0    0    0    0  0.00000000000E+00  0.00000000000E+00  0.39999999673E+01  0.40000000000E+01  0.51109989000E-03 0. -1.
     -623   -1    0    0    0    0  0.00000000000E+00  0.00000000000E+00  0.12525980253E-10  0.17130000000E+03  0.17130000000E+03 0.  1.
       11    1    1    2    0    0  0.53008719955E-03 -0.30334809891E-03  0.59579385198E+00  0.59579438423E+00  0.51109989000E-03 0. -1.
     -623    1    1    2    0    0 -0.70761527666E-02 -0.62957323398E-02  0.72203106636E-04  0.17130000026E+03  0.17130000000E+03 0.  1.
      622    1    1    2    0    0  0.65460655671E-02  0.65990804387E-02  0.34041339123E+01  0.34042053539E+01  0.20000000000E-01 0. -1.
</event>
<event>
 5   0  0.3603037E+08  0.9118800E+02  0.7818608E-02  0.1180000E+00
       11   -1    0    0    0    0  0.00000000000E+00  0.00000000000E+00  0.39999999673E+01  0.40000000000E+01  0.51109989000E-03 0.  1.
     -623   -1    0    0    0    0  0.00000000000E+00  0.00000000000E+00  0.12525980253E-10  0.17130000000E+03  0.17130000000E+03 0. -1.
       11    1    1    2    0    0 -0.14668326271E-01 -0.12447847429E-02  0.15959160596E+01  0.15959840349E+01  0.51109989000E-03 0.  1.
     -623    1    1    2    0    0  0.20460126782E-01  0.59097631034E-02  0.16396568506E-03  0.17130000132E+03  0.17130000000E+03 0. -1.
      622    1    1    2    0    0 -0.57918005114E-02 -0.46649783604E-02  0.24039199421E+01  0.24040146412E+01  0.20000000000E-01 0. -1.
</event>
<event>
 5   0  0.3603037E+08  0.9118800E+02  0.7818608E-02  0.1180000E+00
       11   -1    0    0    0    0  0.00000000000E+00  0.00000000000E+00  0.39999999673E+01  0.40000000000E+01  0.51109989000E-03 0. -1.
     -623   -1    0    0    0    0  0.00000000000E+00  0.00000000000E+00  0.12525980253E-10  0.17130000000E+03  0.17130000000E+03 0.  1.
       11    1    1    2    0    0 -0.21187189409E-02 -0.22687827654E-02  0.30987227240E+01  0.30987243211E+01  0.51109989000E-03 0. -1.
     -623    1    1    2    0    0 -0.81537282537E-03 -0.13763507022E-04  0.23116973552E-03  0.17130000000E+03  0.17130000000E+03 0.  1.
      622    1    1    2    0    0  0.29340917663E-02  0.22825462724E-02  0.90104607360E+00  0.90127567684E+00  0.20000000000E-01 0. -1.
</event>
<event>
 5   0  0.3603037E+08  0.9118800E+02  0.7818608E-02  0.1180000E+00
       11   -1    0    0    0    0  0.00000000000E+00  0.00000000000E+00  0.39999999673E+01  0.40000000000E+01  0.51109989000E-03 0. -1.
     -623   -1    0    0    0    0  0.00000000000E+00  0.00000000000E+00  0.12525980253E-10  0.17130000000E+03  0.17130000000E+03 0. -1.
       11    1    1    2    0    0 -0.36654348851E-03  0.86303158328E-03  0.89642835893E-03  0.13942675909E-02  0.51109989000E-03 0. -1.
     -623    1    1    2    0    0  0.95216696809E-03 -0.22587220825E-02  0.54812922096E-03  0.17130000002E+03  0.17130000000E+03 0. -1.
      622    1    1    2    0    0 -0.58562347958E-03  0.13956904993E-02  0.39985554098E+01  0.39986057140E+01  0.20000000000E-01 0. -1.
</event>
<event>
 5   0  0.3603037E+08  0.9118800E+02  0.7818608E-02  0.1180000E+00
       11   -1    0    0    0    0  0.00000000000E+00  0.00000000000E+00  0.39999999673E+01  0.40000000000E+01  0.51109989000E-03 0.  1.
     -623   -1    0    0    0    0  0.00000000000E+00  0.00000000000E+00  0.12525980253E-10  0.17130000000E+03  0.17130000000E+03 0. -1.
       11    1    1    2    0    0  0.33714498317E-02 -0.55001513852E-03  0.37886437317E-01  0.38043561161E-01  0.51109989000E-03 0. -1.
     -623    1    1    2    0    0 -0.19700997869E-02 -0.73278116972E-04  0.20787996822E-03  0.17130000001E+03  0.17130000000E+03 0. -1.
      622    1    1    2    0    0 -0.14013500448E-02  0.62329325549E-03  0.39619056501E+01  0.39619564274E+01  0.20000000000E-01 0.  1.
</event>
<event>
 5   0  0.3603037E+08  0.9118800E+02  0.7818608E-02  0.1180000E+00
       11   -1    0    0    0    0  0.00000000000E+00  0.00000000000E+00  0.39999999673E+01  0.40000000000E+01  0.51109989000E-03 0.  1.
     -623   -1    0    0    0    0  0.00000000000E+00  0.00000000000E+00  0.12525980253E-10  0.17130000000E+03  0.17130000000E+03 0. -1.
       11    1    1    2    0    0 -0.91945705419E-04  0.39219280925E-03  0.17456993612E+00  0.17457114907E+00  0.51109989000E-03 0.  1.
     -623    1    1    2    0    0  0.32203210073E-03  0.20812867207E-02  0.54281932482E-04  0.17130000001E+03  0.17130000000E+03 0. -1.
      622    1    1    2    0    0 -0.23008639531E-03 -0.24734795300E-02  0.38253757493E+01  0.38254288380E+01  0.20000000000E-01 0.  1.
</event>
<event>
 5   0  0.3603037E+08  0.9118800E+02  0.7818608E-02  0.1180000E+00
       11   -1    0    0    0    0  0.00000000000E+00  0.00000000000E+00  0.39999999673E+01  0.40000000000E+01  0.51109989000E-03 0. -1.
     -623   -1    0    0    0    0  0.00000000000E+00  0.00000000000E+00  0.12525980253E-10  0.17130000000E+03  0.17130000000E+03 0.  1.
       11    1    1    2    0    0 -0.64776972452E-02 -0.11918886859E-01  0.35104317661E+00  0.35130555574E+00  0.51109989000E-03 0. -1.
     -623    1    1    2    0    0 -0.28302937757E-02  0.16073354129E-01  0.33217681394E-03  0.17130000078E+03  0.17130000000E+03 0.  1.
      622    1    1    2    0    0  0.93079910208E-02 -0.41544672697E-02  0.36486246139E+01  0.36486936665E+01  0.20000000000E-01 0. -1.
</event>
<event>
 5   0  0.3603037E+08  0.9118800E+02  0.7818608E-02  0.1180000E+00
       11   -1    0    0    0    0  0.00000000000E+00  0.00000000000E+00  0.39999999673E+01  0.40000000000E+01  0.51109989000E-03 0. -1.
     -623   -1    0    0    0    0  0.00000000000E+00  0.00000000000E+00  0.12525980253E-10  0.17130000000E+03  0.17130000000E+03 0. -1.
       11    1    1    2    0    0 -0.11749641078E-02 -0.62406655971E-03  0.12362567893E+00  0.12363389386E+00  0.51109989000E-03 0. -1.
     -623    1    1    2    0    0 -0.10885251631E-02  0.85256871579E-03  0.60450531922E-04  0.17130000001E+03  0.17130000000E+03 0. -1.
      622    1    1    2    0    0  0.22634892709E-02 -0.22850215608E-03  0.38763138379E+01  0.38763661005E+01  0.20000000000E-01 0. -1.
</event>
<event>
 5   0  0.3603037E+08  0.9118800E+02  0.7818608E-02  0.1180000E+00
       11   -1    0    0    0    0  0.00000000000E+00  0.00000000000E+00  0.39999999673E+01  0.40000000000E+01  0.51109989000E-03 0. -1.
     -623   -1    0    0    0    0  0.00000000000E+00  0.00000000000E+00  0.12525980253E-10  0.17130000000E+03  0.17130000000E+03 0. -1.
       11    1    1    2    0    0 -0.14609953324E-03 -0.13187702486E-03  0.10608282881E-01  0.10622411394E-01  0.51109989000E-03 0. -1.
     -623    1    1    2    0    0  0.97862105787E-03 -0.31774878638E-03  0.64344630038E-04  0.17130000000E+03  0.17130000000E+03 0. -1.
      622    1    1    2    0    0 -0.83252152463E-03  0.44962581123E-03  0.39893273398E+01  0.39893775855E+01  0.20000000000E-01 0. -1.
</event>
<event>
 5   0  0.3603037E+08  0.9118800E+02  0.7818608E-02  0.1180000E+00
       11   -1    0    0    0    0  0.00000000000E+00  0.00000000000E+00  0.39999999673E+01  0.40000000000E+01  0.51109989000E-03 0. -1.
     -623   -1    0    0    0    0  0.00000000000E+00  0.00000000000E+00  0.12525980253E-10  0.17130000000E+03  0.17130000000E+03 0.  1.
       11    1    1    2    0    0 -0.10342572619E-01 -0.10551518251E-01  0.16976976430E+01  0.16977620127E+01  0.51109989000E-03 0. -1.
     -623    1    1    2    0    0 -0.31301430719E-03  0.21097958438E-02  0.19136167145E-03  0.17130000001E+03  0.17130000000E+03 0.  1.
      622    1    1    2    0    0  0.10655586926E-01  0.84417224068E-02  0.23021109626E+01  0.23022379739E+01  0.20000000000E-01 0. -1.
</event>
<event>
 5   0  0.3603037E+08  0.9118800E+02  0.7818608E-02  0.1180000E+00
       11   -1    0    0    0    0  0.00000000000E+00  0.00000000000E+00  0.39999999673E+01  0.40000000000E+01  0.51109989000E-03 0.  1.
     -623   -1    0    0    0    0  0.00000000000E+00  0.00000000000E+00  0.12525980253E-10  0.17130000000E+03  0.17130000000E+03 0. -1.
       11    1    1    2    0    0  0.33036773098E-02 -0.25361569901E-02  0.45430002013E-01  0.45623378653E-01  0.51109989000E-03 0.  1.
     -623    1    1    2    0    0  0.63840979506E-03  0.38816195177E-03  0.24647134283E-03  0.17130000000E+03  0.17130000000E+03 0. -1.
      622    1    1    2    0    0 -0.39420871049E-02  0.21479950383E-02  0.39543234940E+01  0.39543766195E+01  0.20000000000E-01 0.  1.
</event>
<event>
 5   0  0.3603037E+08  0.9118800E+02  0.7818608E-02  0.1180000E+00
       11   -1    0    0    0    0  0.00000000000E+00  0.00000000000E+00  0.39999999673E+01  0.40000000000E+01  0.51109989000E-03 0. -1.
     -623   -1    0    0    0    0  0.00000000000E+00  0.00000000000E+00  0.12525980253E-10  0.17130000000E+03  0.17130000000E+03 0.  1.
       11    1    1    2    0    0  0.22521470064E-02  0.17288501946E-02  0.52332355819E-01  0.52411809496E-01  0.51109989000E-03 0. -1.
     -623    1    1    2    0    0 -0.76605039781E-03 -0.21619334107E-02  0.13040409981E-03  0.17130000002E+03  0.17130000000E+03 0.  1.
      622    1    1    2    0    0 -0.14860966086E-02  0.43308321607E-03  0.39475372074E+01  0.39475881751E+01  0.20000000000E-01 0. -1.
</event>
<event>
 5   0  0.3603037E+08  0.9118800E+02  0.7818608E-02  0.1180000E+00
       11   -1    0    0    0    0  0.00000000000E+00  0.00000000000E+00  0.39999999673E+01  0.40000000000E+01  0.51109989000E-03 0. -1.
     -623   -1    0    0    0    0  0.00000000000E+00  0.00000000000E+00  0.12525980253E-10  0.17130000000E+03  0.17130000000E+03 0.  1.
       11    1    1    2    0    0  0.12358107515E-01 -0.46257680840E-02  0.25640115512E+01  0.25640455567E+01  0.51109989000E-03 0. -1.
     -623    1    1    2    0    0  0.54322780714E-03 -0.27364154670E-03  0.23958325408E-03  0.17130000000E+03  0.17130000000E+03 0.  1.
      622    1    1    2    0    0 -0.12901335322E-01  0.48994096307E-02  0.14357488329E+01  0.14359544421E+01  0.20000000000E-01 0.  0.
</event>
<event>
 5   0  0.3603037E+08  0.9118800E+02  0.7818608E-02  0.1180000E+00
       11   -1    0    0    0    0  0.00000000000E+00  0.00000000000E+00  0.39999999673E+01  0.40000000000E+01  0.51109989000E-03 0. -1.
     -623   -1    0    0    0    0  0.00000000000E+00  0.00000000000E+00  0.12525980253E-10  0.17130000000E+03  0.17130000000E+03 0.  1.
       11    1    1    2    0    0 -0.23877671848E-02 -0.59736915583E-02  0.23644710347E-01  0.24509589363E-01  0.51109989000E-03 0. -1.
     -623    1    1    2    0    0  0.14654830453E-02  0.37042862831E-02  0.91595845817E-03  0.17130000005E+03  0.17130000000E+03 0.  1.
      622    1    1    2    0    0  0.92228413950E-03  0.22694052753E-02  0.39754392986E+01  0.39754903619E+01  0.20000000000E-01 0. -1.
</event>
<event>
 5   0  0.3603037E+08  0.9118800E+02  0.7818608E-02  0.1180000E+00
       11   -1    0    0    0    0  0.00000000000E+00  0.00000000000E+00  0.39999999673E+01  0.40000000000E+01  0.51109989000E-03 0. -1.
     -623   -1    0    0    0    0  0.00000000000E+00  0.00000000000E+00  0.12525980253E-10  0.17130000000E+03  0.17130000000E+03 0.  1.
       11    1    1    2    0    0 -0.56220507666E-02 -0.51133738638E-02  0.22833402996E+00  0.22846103499E+00  0.51109989000E-03 0. -1.
     -623    1    1    2    0    0 -0.24525459238E-03  0.43679972106E-03  0.18746567036E-03  0.17130000000E+03  0.17130000000E+03 0.  1.
      622    1    1    2    0    0  0.58673053590E-02  0.46765741427E-02  0.37714784717E+01  0.37715389642E+01  0.20000000000E-01 0. -1.
</event>
<event>
 5   0  0.3603037E+08  0.9118800E+02  0.7818608E-02  0.1180000E+00
       11   -1    0    0    0    0  0.00000000000E+00  0.00000000000E+00  0.39999999673E+01  0.40000000000E+01  0.51109989000E-03 0. -1.
     -623   -1    0    0    0    0  0.00000000000E+00  0.00000000000E+00  0.12525980253E-10  0.17130000000E+03  0.17130000000E+03 0.  1.
       11    1    1    2    0    0  0.17549662798E-02  0.61013933606E-03  0.10137694888E-01  0.10319217799E-01  0.51109989000E-03 0. -1.
     -623    1    1    2    0    0  0.20256439225E-02  0.45253127614E-02  0.23678827511E-03  0.17130000007E+03  0.17130000000E+03 0.  1.
      622    1    1    2    0    0 -0.37806102022E-02 -0.51354520975E-02  0.39896254842E+01  0.39896807103E+01  0.20000000000E-01 0. -1.
</event>
<event>
 5   0  0.3603037E+08  0.9118800E+02  0.7818608E-02  0.1180000E+00
       11   -1    0    0    0    0  0.00000000000E+00  0.00000000000E+00  0.39999999673E+01  0.40000000000E+01  0.51109989000E-03 0. -1.
     -623   -1    0    0    0    0  0.00000000000E+00  0.00000000000E+00  0.12525980253E-10  0.17130000000E+03  0.17130000000E+03 0. -1.
       11    1    1    2    0    0 -0.18932486408E-02  0.13566922785E-02  0.13250349942E+00  0.13252495457E+00  0.51109989000E-03 0. -1.
     -623    1    1    2    0    0  0.49004675500E-03  0.20787093493E-04  0.73636776194E-04  0.17130000000E+03  0.17130000000E+03 0. -1.
      622    1    1    2    0    0  0.14032018858E-02 -0.13774793720E-02  0.38674228312E+01  0.38674750447E+01  0.20000000000E-01 0. -1.
</event>
<event>
 5   0  0.3603037E+08  0.9118800E+02  0.7818608E-02  0.1180000E+00
       11   -1    0    0    0    0  0.00000000000E+00  0.00000000000E+00  0.39999999673E+01  0.40000000000E+01  0.51109989000E-03 0.  1.
     -623   -1    0    0    0    0  0.00000000000E+00  0.00000000000E+00  0.12525980253E-10  0.17130000000E+03  0.17130000000E+03 0.  1.
       11    1    1    2    0    0  0.15933034340E-02  0.44583277562E-02  0.11487287506E+00  0.11497153538E+00  0.51109989000E-03 0. -1.
     -623    1    1    2    0    0  0.11794789844E-02  0.69997980905E-03  0.15452724529E-03  0.17130000001E+03  0.17130000000E+03 0.  1.
      622    1    1    2    0    0 -0.27727824184E-02 -0.51583075653E-02  0.38849725651E+01  0.38850284591E+01  0.20000000000E-01 0.  1.
</event>
<event>
 5   0  0.3603037E+08  0.9118800E+02  0.7818608E-02  0.1180000E+00
       11   -1    0    0    0    0  0.00000000000E+00  0.00000000000E+00  0.39999999673E+01  0.40000000000E+01  0.51109989000E-03 0. -1.
     -623   -1    0    0    0    0  0.00000000000E+00  0.00000000000E+00  0.12525980253E-10  0.17130000000E+03  0.17130000000E+03 0. -1.
       11    1    1    2    0    0 -0.18335604761E-01 -0.65252563026E-02  0.31362199348E+01  0.31362803628E+01  0.51109989000E-03 0. -1.
     -623    1    1    2    0    0  0.65334205116E-02  0.90804651530E-02  0.37678994331E-03  0.17130000037E+03  0.17130000000E+03 0. -1.
      622    1    1    2    0    0  0.11802184250E-01 -0.25552088504E-02  0.86340324262E+00  0.86371927153E+00  0.20000000000E-01 0.  0.
</event>
<event>
 5   0  0.3603037E+08  0.9118800E+02  0.7818608E-02  0.1180000E+00
       11   -1    0    0    0    0  0.00000000000E+00  0.00000000000E+00  0.39999999673E+01  0.40000000000E+01  0.51109989000E-03 0. -1.
     -623   -1    0    0    0    0  0.00000000000E+00  0.00000000000E+00  0.12525980253E-10  0.17130000000E+03  0.17130000000E+03 0. -1.
       11    1    1    2    0    0  0.15930319313E-02  0.35348989943E-03  0.16398936091E-01  0.16487844946E-01  0.51109989000E-03 0. -1.
     -623    1    1    2    0    0  0.35624643978E-06 -0.27851675389E-03  0.13940314904E-03  0.17130000000E+03  0.17130000000E+03 0. -1.
      622    1    1    2    0    0 -0.15933881778E-02 -0.74973145541E-04  0.39834616281E+01  0.39835121548E+01  0.20000000000E-01 0. -1.
</event>
<event>
 5   0  0.3603037E+08  0.9118800E+02  0.7818608E-02  0.1180000E+00
       11   -1    0    0    0    0  0.00000000000E+00  0.00000000000E+00  0.39999999673E+01  0.40000000000E+01  0.51109989000E-03 0. -1.
     -623   -1    0    0    0    0  0.00000000000E+00  0.00000000000E+00  0.12525980253E-10  0.17130000000E+03  0.17130000000E+03 0. -1.
       11    1    1    2    0    0  0.55626516606E-03  0.27085860382E-02  0.21569239292E-01  0.21751762574E-01  0.51109989000E-03 0. -1.
     -623    1    1    2    0    0  0.15404871866E-02  0.18956244407E-02  0.23599884636E-03  0.17130000002E+03  0.17130000000E+03 0. -1.
      622    1    1    2    0    0 -0.20967523526E-02 -0.46042104789E-02  0.39781947292E+01  0.39782482198E+01  0.20000000000E-01 0. -1.
</event>
<event>
 5   0  0.3603037E+08  0.9118800E+02  0.7818608E-02  0.1180000E+00
       11   -1    0    0    0    0  0.00000000000E+00  0.00000000000E+00  0.39999999673E+01  0.40000000000E+01  0.51109989000E-03 0.  1.
     -623   -1    0    0    0    0  0.00000000000E+00  0.00000000000E+00  0.12525980253E-10  0.17130000000E+03  0.17130000000E+03 0. -1.
       11    1    1    2    0    0  0.29707957523E-02 -0.27042489411E-02  0.11056174434E+00  0.11063588533E+00  0.51109989000E-03 0.  1.
     -623    1    1    2    0    0  0.21569415010E-03 -0.60315368667E-03  0.12824384265E-03  0.17130000000E+03  0.17130000000E+03 0. -1.
      622    1    1    2    0    0 -0.31864899024E-02  0.33074026278E-02  0.38893099792E+01  0.38893641134E+01  0.20000000000E-01 0.  1.
</event>
<event>
 5   0  0.3603037E+08  0.9118800E+02  0.7818608E-02  0.1180000E+00
       11   -1    0    0    0    0  0.00000000000E+00  0.00000000000E+00  0.39999999673E+01  0.40000000000E+01  0.51109989000E-03 0.  1.
     -623   -1    0    0    0    0  0.00000000000E+00  0.00000000000E+00  0.12525980253E-10  0.17130000000E+03  0.17130000000E+03 0.  1.
       11    1    1    2    0    0  0.59976387815E-02 -0.15587497306E-02  0.13203536113E+00  0.13218169004E+00  0.51109989000E-03 0.  1.
     -623    1    1    2    0    0  0.21477773686E-02 -0.22822561172E-02  0.20851839147E-03  0.17130000003E+03  0.17130000000E+03 0.  1.
      622    1    1    2    0    0 -0.81454161501E-02  0.38410058478E-02  0.38677560878E+01  0.38678182812E+01  0.20000000000E-01 0.  1.
</event>
<event>
 5   0  0.3603037E+08  0.9118800E+02  0.7818608E-02  0.1180000E+00
       11   -1    0    0    0    0  0.00000000000E+00  0.00000000000E+00  0.39999999673E+01  0.40000000000E+01  0.51109989000E-03 0.  1.
     -623   -1    0    0    0    0  0.00000000000E+00  0.00000000000E+00  0.12525980253E-10  0.17130000000E+03  0.17130000000E+03 0. -1.
       11    1    1    2    0    0 -0.82679926926E-03  0.16574841340E-02  0.32362821203E-01  0.32419812910E-01  0.51109989000E-03 0.  1.
     -623    1    1    2    0    0 -0.53466840482E-03 -0.32954192416E-03  0.10782496011E-03  0.17130000000E+03  0.17130000000E+03 0. -1.
      622    1    1    2    0    0  0.13614676741E-02 -0.13279422098E-02  0.39675293212E+01  0.39675801859E+01  0.20000000000E-01 0.  1.
</event>
<event>
 5   0  0.3603037E+08  0.9118800E+02  0.7818608E-02  0.1180000E+00
       11   -1    0    0    0    0  0.00000000000E+00  0.00000000000E+00  0.39999999673E+01  0.40000000000E+01  0.51109989000E-03 0.  1.
     -623   -1    0    0    0    0  0.00000000000E+00  0.00000000000E+00  0.12525980253E-10  0.17130000000E+03  0.17130000000E+03 0.  1.
       11    1    1    2    0    0  0.33992610006E-03 -0.60438622089E-03  0.94327998050E-01  0.94331931331E-01  0.51109989000E-03 0.  1.
     -623    1    1    2    0    0 -0.16291220045E-02 -0.39179071392E-03  0.55456627436E-04  0.17130000001E+03  0.17130000000E+03 0.  1.
      622    1    1    2    0    0  0.12891959045E-02  0.99617693480E-03  0.39056165127E+01  0.39056680605E+01  0.20000000000E-01 0.  1.
</event>
<event>
 5   0  0.3603037E+08  0.9118800E+02  0.7818608E-02  0.1180000E+00
       11   -1    0    0    0    0  0.00000000000E+00  0.00000000000E+00  0.39999999673E+01  0.40000000000E+01  0.51109989000E-03 0.  1.
     -623   -1    0    0    0    0  0.00000000000E+00  0.00000000000E+00  0.12525980253E-10  0.17130000000E+03  0.17130000000E+03 0.  1.
       11    1    1    2    0    0  0.50955335333E-02  0.17205073260E-02  0.13379622596E+00  0.13390524975E+00  0.51109989000E-03 0.  1.
     -623    1    1    2    0    0 -0.76002291710E-04  0.10103404113E-03  0.16441112224E-03  0.17130000000E+03  0.17130000000E+03 0.  1.
      622    1    1    2    0    0 -0.50195312416E-02 -0.18215413672E-02  0.38660393303E+01  0.38660947501E+01  0.20000000000E-01 0.  1.
</event>
<event>
 5   0  0.3603037E+08  0.9118800E+02  0.7818608E-02  0.1180000E+00
       11   -1    0    0    0    0  0.00000000000E+00  0.00000000000E+00  0.39999999673E+01  0.40000000000E+01  0.51109989000E-03 0.  1.
     -623   -1    0    0    0    0  0.00000000000E+00  0.00000000000E+00  0.12525980253E-10  0.17130000000E+03  0.17130000000E+03 0. -1.
       11    1    1    2    0    0  0.12447325948E-01 -0.58533431088E-02  0.24639738270E+01  0.24640122724E+01  0.51109989000E-03 0.  1.
     -623    1    1    2    0    0  0.37367468986E-02 -0.75858730319E-02  0.31291182806E-03  0.17130000021E+03  0.17130000000E+03 0. -1.
      622    1    1    2    0    0 -0.16184072847E-01  0.13439216141E-01  0.15357132286E+01  0.15359875186E+01  0.20000000000E-01 0.  0.
</event>
<event>
 5   0  0.3603037E+08  0.9118800E+02  0.7818608E-02  0.1180000E+00
       11   -1    0    0    0    0  0.00000000000E+00  0.00000000000E+00  0.39999999673E+01  0.40000000000E+01  0.51109989000E-03 0. -1.
     -623   -1    0    0    0    0  0.00000000000E+00  0.00000000000E+00  0.12525980253E-10  0.17130000000E+03  0.17130000000E+03 0.  1.
       11    1    1    2    0    0  0.77069249740E-03 -0.19616072028E-02  0.46011788075E-01  0.46062867191E-01  0.51109989000E-03 0. -1.
     -623    1    1    2    0    0 -0.15510414053E-02 -0.91525464287E-03  0.10276240410E-03  0.17130000001E+03  0.17130000000E+03 0.  1.
      622    1    1    2    0    0  0.78034890794E-03  0.28768618456E-02  0.39538854169E+01  0.39539371233E+01  0.20000000000E-01 0. -1.
</event>
<event>
 5   0  0.3603037E+08  0.9118800E+02  0.7818608E-02  0.1180000E+00
       11   -1    0    0    0    0  0.00000000000E+00  0.00000000000E+00  0.39999999673E+01  0.40000000000E+01  0.51109989000E-03 0.  1.
     -623   -1    0    0    0    0  0.00000000000E+00  0.00000000000E+00  0.12525980253E-10  0.17130000000E+03  0.17130000000E+03 0.  1.
       11    1    1    2    0    0  0.10033150989E-02  0.18533544550E-03  0.66627172059E-02  0.67597345465E-02  0.51109989000E-03 0.  1.
     -623    1    1    2    0    0 -0.50835964373E-04  0.56440288319E-03  0.14725463380E-03  0.17130000000E+03  0.17130000000E+03 0.  1.
      622    1    1    2    0    0 -0.95247913457E-03 -0.74973832869E-03  0.39931899955E+01  0.39932402645E+01  0.20000000000E-01 0.  1.
</event>
<event>
 5   0  0.3603037E+08  0.9118800E+02  0.7818608E-02  0.1180000E+00
       11   -1    0    0    0    0  0.00000000000E+00  0.00000000000E+00  0.39999999673E+01  0.40000000000E+01  0.51109989000E-03 0. -1.
     -623   -1    0    0    0    0  0.00000000000E+00  0.00000000000E+00  0.12525980253E-10  0.17130000000E+03  0.17130000000E+03 0. -1.
       11    1    1    2    0    0 -0.20652921768E-01 -0.10958781961E-01  0.26686623676E+01  0.26687648325E+01  0.51109989000E-03 0. -1.
     -623    1    1    2    0    0 -0.49910496278E-02 -0.93725323483E-03  0.55296681025E-03  0.17130000008E+03  0.17130000000E+03 0. -1.
      622    1    1    2    0    0  0.25643971396E-01  0.11896035195E-01  0.13307846330E+01  0.13312350913E+01  0.20000000000E-01 0.  1.
</event>
<event>
 5   0  0.3603037E+08  0.9118800E+02  0.7818608E-02  0.1180000E+00
       11   -1    0    0    0    0  0.00000000000E+00  0.00000000000E+00  0.39999999673E+01  0.40000000000E+01  0.51109989000E-03 0. -1.
     -623   -1    0    0    0    0  0.00000000000E+00  0.00000000000E+00  0.12525980253E-10  0.17130000000E+03  0.17130000000E+03 0.  1.
       11    1    1    2    0    0 -0.86348056615E-03 -0.12572864871E-02  0.46476604735E+00  0.46476883109E+00  0.51109989000E-03 0. -1.
     -623    1    1    2    0    0  0.34397462323E-02 -0.34662861147E-02  0.63489029269E-04  0.17130000007E+03  0.17130000000E+03 0.  1.
      622    1    1    2    0    0 -0.25762656662E-02  0.47235726018E-02  0.35351704310E+01  0.35352310993E+01  0.20000000000E-01 0. -1.
</event>
<event>
 5   0  0.3603037E+08  0.9118800E+02  0.7818608E-02  0.1180000E+00
       11   -1    0    0    0    0  0.00000000000E+00  0.00000000000E+00  0.39999999673E+01  0.40000000000E+01  0.51109989000E-03 0.  1.
     -623   -1    0    0    0    0  0.00000000000E+00  0.00000000000E+00  0.12525980253E-10  0.17130000000E+03  0.17130000000E+03 0.  1.
       11    1    1    2    0    0  0.12638810913E-01  0.71335156687E-03  0.16317110700E+01  0.16317602537E+01  0.51109989000E-03 0.  1.
     -623    1    1    2    0    0  0.11359188697E-02  0.13775016271E-02  0.17459763567E-03  0.17130000001E+03  0.17130000000E+03 0.  1.
      622    1    1    2    0    0 -0.13774729783E-01 -0.20908531939E-02  0.23681142998E+01  0.23682397369E+01  0.20000000000E-01 0.  1.
</event>
<event>
 5   0  0.3603037E+08  0.9118800E+02  0.7818608E-02  0.1180000E+00
       11   -1    0    0    0    0  0.00000000000E+00  0.00000000000E+00  0.39999999673E+01  0.40000000000E+01  0.51109989000E-03 0.  1.
     -623   -1    0    0    0    0  0.00000000000E+00  0.00000000000E+00  0.12525980253E-10  0.17130000000E+03  0.17130000000E+03 0. -1.
       11    1    1    2    0    0  0.14376355085E-01  0.27400048969E-02  0.14417755823E+00  0.14491934560E+00  0.51109989000E-03 0.  1.
     -623    1    1    2    0    0 -0.13975470960E-01 -0.59235379290E-02  0.79564438695E-03  0.17130000067E+03  0.17130000000E+03 0. -1.
      622    1    1    2    0    0 -0.40088412512E-03  0.31835330321E-02  0.38550267647E+01  0.38550799800E+01  0.20000000000E-01 0.  1.
</event>
<event>
 5   0  0.3603037E+08  0.9118800E+02  0.7818608E-02  0.1180000E+00
       11   -1    0    0    0    0  0.00000000000E+00  0.00000000000E+00  0.39999999673E+01  0.40000000000E+01  0.51109989000E-03 0. -1.
     -623   -1    0    0    0    0  0.00000000000E+00  0.00000000000E+00  0.12525980253E-10  0.17130000000E+03  0.17130000000E+03 0.  1.
       11    1    1    2    0    0  0.57828871736E-02  0.14028414322E-01  0.11881867138E+01  0.11882837062E+01  0.51109989000E-03 0. -1.
     -623    1    1    2    0    0  0.95940430875E-03  0.19334724588E-03  0.21214676518E-03  0.17130000000E+03  0.17130000000E+03 0.  1.
      622    1    1    2    0    0 -0.67422914823E-02 -0.14221761568E-01  0.28116011068E+01  0.28117162909E+01  0.20000000000E-01 0.  1.
</event>
<event>
 5   0  0.3603037E+08  0.9118800E+02  0.7818608E-02  0.1180000E+00
       11   -1    0    0    0    0  0.00000000000E+00  0.00000000000E+00  0.39999999673E+01  0.40000000000E+01  0.51109989000E-03 0.  1.
     -623   -1    0    0    0    0  0.00000000000E+00  0.00000000000E+00  0.12525980253E-10  0.17130000000E+03  0.17130000000E+03 0.  1.
       11    1    1    2    0    0 -0.68027160971E-03 -0.37801783277E-03  0.14070207775E+00  0.14070515830E+00  0.51109989000E-03 0.  1.
     -623    1    1    2    0    0  0.28771416243E-02  0.36435494536E-02  0.56940976053E-04  0.17130000006E+03  0.17130000000E+03 0.  1.
      622    1    1    2    0    0 -0.21968700146E-02 -0.32655316208E-02  0.38592409486E+01  0.38592947788E+01  0.20000000000E-01 0.  1.
</event>
<event>
 5   0  0.3603037E+08  0.9118800E+02  0.7818608E-02  0.1180000E+00
       11   -1    0    0    0    0  0.00000000000E+00  0.00000000000E+00  0.39999999673E+01  0.40000000000E+01  0.51109989000E-03 0.  1.
     -623   -1    0    0    0    0  0.00000000000E+00  0.00000000000E+00  0.12525980253E-10  0.17130000000E+03  0.17130000000E+03 0.  1.
       11    1    1    2    0    0 -0.32958220558E-02 -0.75436689070E-02  0.38927497699E+00  0.38936234835E+00  0.51109989000E-03 0.  1.
     -623    1    1    2    0    0  0.35870383484E-02  0.17448229472E-02  0.14744595430E-03  0.17130000005E+03  0.17130000000E+03 0.  1.
      622    1    1    2    0    0 -0.29121629259E-03  0.57988459598E-02  0.36105775444E+01  0.36106376051E+01  0.20000000000E-01 0.  1.
</event>
<event>
 5   0  0.3603037E+08  0.9118800E+02  0.7818608E-02  0.1180000E+00
       11   -1    0    0    0    0  0.00000000000E+00  0.00000000000E+00  0.39999999673E+01  0.40000000000E+01  0.51109989000E-03 0. -1.
     -623   -1    0    0    0    0  0.00000000000E+00  0.00000000000E+00  0.12525980253E-10  0.17130000000E+03  0.17130000000E+03 0. -1.
       11    1    1    2    0    0  0.69021983987E-03 -0.45909306552E-03  0.61961726656E-01  0.61969379228E-01  0.51109989000E-03 0. -1.
     -623    1    1    2    0    0  0.51113292179E-04 -0.38556233646E-03  0.58567882202E-04  0.17130000000E+03  0.17130000000E+03 0. -1.
      622    1    1    2    0    0 -0.74133313205E-03  0.84465540198E-03  0.39379796728E+01  0.39380306203E+01  0.20000000000E-01 0. -1.
</event>
<event>
 5   0  0.3603037E+08  0.9118800E+02  0.7818608E-02  0.1180000E+00
       11   -1    0    0    0    0  0.00000000000E+00  0.00000000000E+00  0.39999999673E+01  0.40000000000E+01  0.51109989000E-03 0. -1.
     -623   -1    0    0    0    0  0.00000000000E+00  0.00000000000E+00  0.12525980253E-10  0.17130000000E+03  0.17130000000E+03 0. -1.
       11    1    1    2    0    0  0.11643099453E-01 -0.23511785743E-01  0.21715521299E+01  0.21717106805E+01  0.51109989000E-03 0. -1.
     -623    1    1    2    0    0  0.16830591731E-02  0.37992913820E-02  0.42281559968E-03  0.17130000005E+03  0.17130000000E+03 0. -1.
      622    1    1    2    0    0 -0.13326158626E-01  0.19712494361E-01  0.18280250219E+01  0.18282892686E+01  0.20000000000E-01 0. -1.
</event>
<event>
 5   0  0.3603037E+08  0.9118800E+02  0.7818608E-02  0.1180000E+00
       11   -1    0    0    0    0  0.00000000000E+00  0.00000000000E+00  0.39999999673E+01  0.40000000000E+01  0.51109989000E-03 0. -1.
     -623   -1    0    0    0    0  0.00000000000E+00  0.00000000000E+00  0.12525980253E-10  0.17130000000E+03  0.17130000000E+03 0. -1.
       11    1    1    2    0    0 -0.13459931754E-02 -0.94879208818E-03  0.14421642538E+00  0.14422673287E+00  0.51109989000E-03 0. -1.
     -623    1    1    2    0    0 -0.10296800982E-03  0.50136980222E-03  0.62444459591E-04  0.17130000000E+03  0.17130000000E+03 0. -1.
      622    1    1    2    0    0  0.14489611852E-02  0.44742228596E-03  0.38557210975E+01  0.38557732664E+01  0.20000000000E-01 0. -1.
</event>
<event>
 5   0  0.3603037E+08  0.9118800E+02  0.7818608E-02  0.1180000E+00
       11   -1    0    0    0    0  0.00000000000E+00  0.00000000000E+00  0.39999999673E+01  0.40000000000E+01  0.51109989000E-03 0.  1.
     -623   -1    0    0    0    0  0.00000000000E+00  0.00000000000E+00  0.12525980253E-10  0.17130000000E+03  0.17130000000E+03 0.  1.
       11    1    1    2    0    0 -0.24356427366E-02 -0.22569345770E-02  0.25853826367E-01  0.26071203804E-01  0.51109989000E-03 0.  1.
     -623    1    1    2    0    0  0.19702034037E-02  0.52110964429E-02  0.26888926165E-03  0.17130000009E+03  0.17130000000E+03 0.  1.
      622    1    1    2    0    0  0.46543933288E-03 -0.29541618660E-02  0.39738772517E+01  0.39739287054E+01  0.20000000000E-01 0.  1.
</event>
<event>
 5   0  0.3603037E+08  0.9118800E+02  0.7818608E-02  0.1180000E+00
       11   -1    0    0    0    0  0.00000000000E+00  0.00000000000E+00  0.39999999673E+01  0.40000000000E+01  0.51109989000E-03 0. -1.
     -623   -1    0    0    0    0  0.00000000000E+00  0.00000000000E+00  0.12525980253E-10  0.17130000000E+03  0.17130000000E+03 0.  1.
       11    1    1    2    0    0 -0.73642321620E-02 -0.26699785683E-02  0.50356830321E-01  0.50965010371E-01  0.51109989000E-03 0. -1.
     -623    1    1    2    0    0  0.56917658207E-02  0.33905344612E-02  0.65934230216E-03  0.17130000013E+03  0.17130000000E+03 0.  1.
      622    1    1    2    0    0  0.16724663414E-02 -0.72055589288E-03  0.39489837947E+01  0.39490348602E+01  0.20000000000E-01 0. -1.
</event>
<event>
 5   0  0.3603037E+08  0.9118800E+02  0.7818608E-02  0.1180000E+00
       11   -1    0    0    0    0  0.00000000000E+00  0.00000000000E+00  0.39999999673E+01  0.40000000000E+01  0.51109989000E-03 0. -1.
     -623   -1    0    0    0    0  0.00000000000E+00  0.00000000000E+00  0.12525980253E-10  0.17130000000E+03  0.17130000000E+03 0. -1.
       11    1    1    2    0    0 -0.63096475742E-02  0.96676606570E-02  0.33864212714E+01  0.33864409878E+01  0.51109989000E-03 0. -1.
     -623    1    1    2    0    0 -0.48609635277E-03 -0.15087705968E-02  0.43768271046E-03  0.17130000001E+03  0.17130000000E+03 0. -1.
      622    1    1    2    0    0  0.67957439270E-02 -0.81588900602E-02  0.61314101325E+00  0.61355900429E+00  0.20000000000E-01 0. -1.
</event>
<event>
 5   0  0.3603037E+08  0.9118800E+02  0.7818608E-02  0.1180000E+00
       11   -1    0    0    0    0  0.00000000000E+00  0.00000000000E+00  0.39999999673E+01  0.40000000000E+01  0.51109989000E-03 0. -1.
     -623   -1    0    0    0    0  0.00000000000E+00  0.00000000000E+00  0.12525980253E-10  0.17130000000E+03  0.17130000000E+03 0.  1.
       11    1    1    2    0    0 -0.37389927958E-02  0.70368707934E-02  0.33018710154E+01  0.33018806703E+01  0.51109989000E-03 0. -1.
     -623    1    1    2    0    0 -0.10088035754E-03  0.18369937984E-02  0.36316459936E-03  0.17130000001E+03  0.17130000000E+03 0.  1.
      622    1    1    2    0    0  0.38398731533E-02 -0.88738645919E-02  0.69776578737E+00  0.69811931940E+00  0.20000000000E-01 0.  0.
</event>
<event>
 5   0  0.3603037E+08  0.9118800E+02  0.7818608E-02  0.1180000E+00
       11   -1    0    0    0    0  0.00000000000E+00  0.00000000000E+00  0.39999999673E+01  0.40000000000E+01  0.51109989000E-03 0. -1.
     -623   -1    0    0    0    0  0.00000000000E+00  0.00000000000E+00  0.12525980253E-10  0.17130000000E+03  0.17130000000E+03 0. -1.
       11    1    1    2    0    0 -0.49842016924E-02  0.19564573013E-02  0.46135137264E+00  0.46138272643E+00  0.51109989000E-03 0. -1.
     -623    1    1    2    0    0  0.68710210070E-02 -0.30893965269E-02  0.88690947821E-04  0.17130000017E+03  0.17130000000E+03 0. -1.
      622    1    1    2    0    0 -0.18868193146E-02  0.11329392256E-02  0.35385599038E+01  0.35386171079E+01  0.20000000000E-01 0. -1.
</event>
<event>
 5   0  0.3603037E+08  0.9118800E+02  0.7818608E-02  0.1180000E+00
       11   -1    0    0    0    0  0.00000000000E+00  0.00000000000E+00  0.39999999673E+01  0.40000000000E+01  0.51109989000E-03 0. -1.
     -623   -1    0    0    0    0  0.00000000000E+00  0.00000000000E+00  0.12525980253E-10  0.17130000000E+03  0.17130000000E+03 0. -1.
       11    1    1    2    0    0  0.40787054862E-01  0.13786791437E-01  0.83200050097E+00  0.83311389035E+00  0.51109989000E-03 0. -1.
     -623    1    1    2    0    0  0.12039436232E-02  0.34523557897E-02  0.15018885471E-02  0.17130000005E+03  0.17130000000E+03 0. -1.
      622    1    1    2    0    0 -0.41990998486E-01 -0.17239147227E-01  0.31664975778E+01  0.31668860640E+01  0.20000000000E-01 0. -1.
</event>
<event>
 5   0  0.3603037E+08  0.9118800E+02  0.7818608E-02  0.1180000E+00
       11   -1    0    0    0    0  0.00000000000E+00  0.00000000000E+00  0.39999999673E+01  0.40000000000E+01  0.51109989000E-03 0.  1.
     -623   -1    0    0    0    0  0.00000000000E+00  0.00000000000E+00  0.12525980253E-10  0.17130000000E+03  0.17130000000E+03 0.  1.
       11    1    1    2    0    0 -0.27945676439E-02 -0.26782297173E-02  0.27387552629E+00  0.27390335457E+00  0.51109989000E-03 0.  1.
     -623    1    1    2    0    0 -0.80406452980E-04 -0.21158023702E-04  0.83558494790E-04  0.17130000000E+03  0.17130000000E+03 0.  1.
      622    1    1    2    0    0  0.28749740969E-02  0.26993877410E-02  0.37260408826E+01  0.37260966454E+01  0.20000000000E-01 0.  1.
</event>
<event>
 5   0  0.3603037E+08  0.9118800E+02  0.7818608E-02  0.1180000E+00
       11   -1    0    0    0    0  0.00000000000E+00  0.00000000000E+00  0.39999999673E+01  0.40000000000E+01  0.51109989000E-03 0.  1.
     -623   -1    0    0    0    0  0.00000000000E+00  0.00000000000E+00  0.12525980253E-10  0.17130000000E+03  0.17130000000E+03 0.  1.
       11    1    1    2    0    0 -0.53862446806E-03  0.38536874251E-03  0.12256983336E-01  0.12285499074E-01  0.51109989000E-03 0.  1.
     -623    1    1    2    0    0  0.13992798981E-02 -0.12775630333E-02  0.78840639225E-04  0.17130000001E+03  0.17130000000E+03 0.  1.
      622    1    1    2    0    0 -0.86065543009E-03  0.89219429078E-03  0.39876641434E+01  0.39877144904E+01  0.20000000000E-01 0.  1.
</event>
<event>
 5   0  0.3603037E+08  0.9118800E+02  0.7818608E-02  0.1180000E+00
       11   -1    0    0    0    0  0.00000000000E+00  0.00000000000E+00  0.39999999673E+01  0.40000000000E+01  0.51109989000E-03 0.  1.
     -623   -1    0    0    0    0  0.00000000000E+00  0.00000000000E+00  0.12525980253E-10  0.17130000000E+03  0.17130000000E+03 0.  1.
       11    1    1    2    0    0 -0.79049352863E-02  0.51931819503E-02  0.18505313526E+01  0.18505555937E+01  0.51109989000E-03 0.  1.
     -623    1    1    2    0    0  0.12598499292E-02 -0.63823097263E-03  0.13236236570E-03  0.17130000001E+03  0.17130000000E+03 0.  1.
      622    1    1    2    0    0  0.66450853572E-02 -0.45549509777E-02  0.21493362523E+01  0.21494444004E+01  0.20000000000E-01 0.  0.
</event>
<event>
 5   0  0.3603037E+08  0.9118800E+02  0.7818608E-02  0.1180000E+00
       11   -1    0    0    0    0  0.00000000000E+00  0.00000000000E+00  0.39999999673E+01  0.40000000000E+01  0.51109989000E-03 0.  1.
     -623   -1    0    0    0    0  0.00000000000E+00  0.00000000000E+00  0.12525980253E-10  0.17130000000E+03  0.17130000000E+03 0. -1.
       11    1    1    2    0    0  0.46689420124E-03  0.47716310824E-03  0.11361580342E-01  0.11392646906E-01  0.51109989000E-03 0.  1.
     -623    1    1    2    0    0 -0.54182564915E-03 -0.13036949657E-02  0.81269235173E-04  0.17130000001E+03  0.17130000000E+03 0. -1.
      622    1    1    2    0    0  0.74931447910E-04  0.82653185749E-03  0.39885571178E+01  0.39886073473E+01  0.20000000000E-01 0.  1.
</event>
<event>
 5   0  0.3603037E+08  0.9118800E+02  0.7818608E-02  0.1180000E+00
       11   -1    0    0    0    0  0.00000000000E+00  0.00000000000E+00  0.39999999673E+01  0.40000000000E+01  0.51109989000E-03 0.  1.
     -623   -1    0    0    0    0  0.00000000000E+00  0.00000000000E+00  0.12525980253E-10  0.17130000000E+03  0.17130000000E+03 0. -1.
       11    1    1    2    0    0  0.12744718216E-02  0.84016145681E-03  0.11094748069E+01  0.11094759747E+01  0.51109989000E-03 0.  1.
     -623    1    1    2    0    0 -0.21917584380E-02 -0.14221509720E-02  0.70551712631E-04  0.17130000002E+03  0.17130000000E+03 0. -1.
      622    1    1    2    0    0  0.91728661642E-03  0.58198951523E-03  0.28904546088E+01  0.28905240053E+01  0.20000000000E-01 0.  1.
</event>
<event>
 5   0  0.3603037E+08  0.9118800E+02  0.7818608E-02  0.1180000E+00
       11   -1    0    0    0    0  0.00000000000E+00  0.00000000000E+00  0.39999999673E+01  0.40000000000E+01  0.51109989000E-03 0. -1.
     -623   -1    0    0    0    0  0.00000000000E+00  0.00000000000E+00  0.12525980253E-10  0.17130000000E+03  0.17130000000E+03 0.  1.
       11    1    1    2    0    0  0.28026333684E-02  0.32958392668E-02  0.27273320398E-01  0.27619061143E-01  0.51109989000E-03 0. -1.
     -623    1    1    2    0    0 -0.81044486106E-03 -0.14139577284E-02  0.39700960115E-03  0.17130000001E+03  0.17130000000E+03 0.  1.
      622    1    1    2    0    0 -0.19921885073E-02 -0.18818815383E-02  0.39723296374E+01  0.39723809306E+01  0.20000000000E-01 0. -1.
</event>
<event>
 5   0  0.3603037E+08  0.9118800E+02  0.7818608E-02  0.1180000E+00
       11   -1    0    0    0    0  0.00000000000E+00  0.00000000000E+00  0.39999999673E+01  0.40000000000E+01  0.51109989000E-03 0. -1.
     -623   -1    0    0    0    0  0.00000000000E+00  0.00000000000E+00  0.12525980253E-10  0.17130000000E+03  0.17130000000E+03 0.  1.
       11    1    1    2    0    0 -0.57818331741E-03  0.44752302528E-03  0.25466800438E-02  0.26984022208E-02  0.51109989000E-03 0. -1.
     -623    1    1    2    0    0 -0.55462710281E-03  0.11089702391E-03  0.20192417959E-03  0.17130000000E+03  0.17130000000E+03 0.  1.
      622    1    1    2    0    0  0.11328104202E-02 -0.55842004919E-03  0.39972513631E+01  0.39973015967E+01  0.20000000000E-01 0. -1.
</event>
<event>
 5   0  0.3603037E+08  0.9118800E+02  0.7818608E-02  0.1180000E+00
       11   -1    0    0    0    0  0.00000000000E+00  0.00000000000E+00  0.39999999673E+01  0.40000000000E+01  0.51109989000E-03 0.  1.
     -623   -1    0    0    0    0  0.00000000000E+00  0.00000000000E+00  0.12525980253E-10  0.17130000000E+03  0.17130000000E+03 0. -1.
       11    1    1    2    0    0  0.22304107002E-02  0.16353973755E-03  0.31663550770E-01  0.31746545415E-01  0.51109989000E-03 0.  1.
     -623    1    1    2    0    0 -0.90864289281E-04 -0.90638352843E-03  0.13401112847E-03  0.17130000000E+03  0.17130000000E+03 0. -1.
      622    1    1    2    0    0 -0.21395464109E-02  0.74284379088E-03  0.39682024055E+01  0.39682534521E+01  0.20000000000E-01 0.  1.
</event>
<event>
 5   0  0.3603037E+08  0.9118800E+02  0.7818608E-02  0.1180000E+00
       11   -1    0    0    0    0  0.00000000000E+00  0.00000000000E+00  0.39999999673E+01  0.40000000000E+01  0.51109989000E-03 0. -1.
     -623   -1    0    0    0    0  0.00000000000E+00  0.00000000000E+00  0.12525980253E-10  0.17130000000E+03  0.17130000000E+03 0. -1.
       11    1    1    2    0    0  0.49142558685E-03  0.47097420356E-02  0.15123729491E+00  0.15131227234E+00  0.51109989000E-03 0. -1.
     -623    1    1    2    0    0 -0.18201112950E-02  0.14424345307E-02  0.13207329612E-03  0.17130000002E+03  0.17130000000E+03 0. -1.
      622    1    1    2    0    0  0.13286857082E-02 -0.61521765663E-02  0.38486305992E+01  0.38486877119E+01  0.20000000000E-01 0. -1.
</event>
<event>
 5   0  0.3603037E+08  0.9118800E+02  0.7818608E-02  0.1180000E+00
       11   -1    0    0    0    0  0.00000000000E+00  0.00000000000E+00  0.39999999673E+01  0.40000000000E+01  0.51109989000E-03 0. -1.
     -623   -1    0    0    0    0  0.00000000000E+00  0.00000000000E+00  0.12525980253E-10  0.17130000000E+03  0.17130000000E+03 0. -1.
       11    1    1    2    0    0 -0.53446542559E-02 -0.40084971587E-02  0.15393161737E+01  0.15393307563E+01  0.51109989000E-03 0. -1.
     -623    1    1    2    0    0  0.12745622663E-01  0.27690956583E-02  0.10776908881E-03  0.17130000050E+03  0.17130000000E+03 0. -1.
      622    1    1    2    0    0 -0.74009684070E-02  0.12394015005E-02  0.24605760246E+01  0.24606687471E+01  0.20000000000E-01 0.  0.
</event>
<event>
 5   0  0.3603037E+08  0.9118800E+02  0.7818608E-02  0.1180000E+00
       11   -1    0    0    0    0  0.00000000000E+00  0.00000000000E+00  0.39999999673E+01  0.40000000000E+01  0.51109989000E-03 0. -1.
     -623   -1    0    0    0    0  0.00000000000E+00  0.00000000000E+00  0.12525980253E-10  0.17130000000E+03  0.17130000000E+03 0. -1.
       11    1    1    2    0    0 -0.17932110833E-02 -0.73340150390E-03  0.17479756975E-01  0.17594220951E-01  0.51109989000E-03 0. -1.
     -623    1    1    2    0    0  0.75735387687E-03 -0.34545564763E-03  0.16493550977E-03  0.17130000000E+03  0.17130000000E+03 0. -1.
      622    1    1    2    0    0  0.10358572065E-02  0.10788571515E-02  0.39823552749E+01  0.39824057769E+01  0.20000000000E-01 0. -1.
</event>
<event>
 5   0  0.3603037E+08  0.9118800E+02  0.7818608E-02  0.1180000E+00
       11   -1    0    0    0    0  0.00000000000E+00  0.00000000000E+00  0.39999999673E+01  0.40000000000E+01  0.51109989000E-03 0. -1.
     -623   -1    0    0    0    0  0.00000000000E+00  0.00000000000E+00  0.12525980253E-10  0.17130000000E+03  0.17130000000E+03 0. -1.
       11    1    1    2    0    0  0.74238677785E-02 -0.33592278668E-01  0.31442888464E+01  0.31444770894E+01  0.51109989000E-03 0. -1.
     -623    1    1    2    0    0 -0.20259767904E-02  0.29601220049E-01  0.45093417618E-03  0.17130000257E+03  0.17130000000E+03 0. -1.
      622    1    1    2    0    0 -0.53978909881E-02  0.39910586193E-02  0.85526018682E+00  0.85552034046E+00  0.20000000000E-01 0. -1.
</event>
<event>
 5   0  0.3603037E+08  0.9118800E+02  0.7818608E-02  0.1180000E+00
       11   -1    0    0    0    0  0.00000000000E+00  0.00000000000E+00  0.39999999673E+01  0.40000000000E+01  0.51109989000E-03 0.  1.
     -623   -1    0    0    0    0  0.00000000000E+00  0.00000000000E+00  0.12525980253E-10  0.17130000000E+03  0.17130000000E+03 0.  1.
       11    1    1    2    0    0  0.21633298149E-02 -0.13759247866E-02  0.10770970684E+00  0.10774142812E+00  0.51109989000E-03 0.  1.
     -623    1    1    2    0    0 -0.44203372447E-04 -0.12288518193E-03  0.83938564708E-04  0.17130000000E+03  0.17130000000E+03 0.  1.
      622    1    1    2    0    0 -0.21191264425E-02  0.14988099685E-02  0.38922063220E+01  0.38922585718E+01  0.20000000000E-01 0.  1.
</event>
<event>
 5   0  0.3603037E+08  0.9118800E+02  0.7818608E-02  0.1180000E+00
       11   -1    0    0    0    0  0.00000000000E+00  0.00000000000E+00  0.39999999673E+01  0.40000000000E+01  0.51109989000E-03 0. -1.
     -623   -1    0    0    0    0  0.00000000000E+00  0.00000000000E+00  0.12525980253E-10  0.17130000000E+03  0.17130000000E+03 0.  1.
       11    1    1    2    0    0 -0.80857197404E-02 -0.65517206451E-02  0.29691954506E+01  0.29692137324E+01  0.51109989000E-03 0. -1.
     -623    1    1    2    0    0 -0.15678445557E-02  0.27208058496E-03  0.27664790680E-03  0.17130000001E+03  0.17130000000E+03 0.  1.
      622    1    1    2    0    0  0.96535642961E-02  0.62796400601E-02  0.10305278689E+01  0.10307862599E+01  0.20000000000E-01 0. -1.
</event>
<event>
 5   0  0.3603037E+08  0.9118800E+02  0.7818608E-02  0.1180000E+00
       11   -1    0    0    0    0  0.00000000000E+00  0.00000000000E+00  0.39999999673E+01  0.40000000000E+01  0.51109989000E-03 0.  1.
     -623   -1    0    0    0    0  0.00000000000E+00  0.00000000000E+00  0.12525980253E-10  0.17130000000E+03  0.17130000000E+03 0. -1.
       11    1    1    2    0    0  0.47485296263E-02 -0.43906992866E-02  0.57064303488E+00  0.57067991138E+00  0.51109989000E-03 0.  1.
     -623    1    1    2    0    0  0.22619948447E-02  0.99922159141E-03  0.10402579536E-03  0.17130000002E+03  0.17130000000E+03 0. -1.
      622    1    1    2    0    0 -0.70105244710E-02  0.33914776952E-02  0.34292529067E+01  0.34293200707E+01  0.20000000000E-01 0.  1.
</event>
<event>
 5   0  0.3603037E+08  0.9118800E+02  0.7818608E-02  0.1180000E+00
       11   -1    0    0    0    0  0.00000000000E+00  0.00000000000E+00  0.39999999673E+01  0.40000000000E+01  0.51109989000E-03 0. -1.
     -623   -1    0    0    0    0  0.00000000000E+00  0.00000000000E+00  0.12525980253E-10  0.17130000000E+03  0.17130000000E+03 0.  1.
       11    1    1    2    0    0  0.34195676315E-01 -0.24091320063E-01  0.13256544955E+01  0.13263143815E+01  0.51109989000E-03 0. -1.
     -623    1    1    2    0    0 -0.15167533938E-02 -0.11717715121E-02  0.10537601367E-02  0.17130000001E+03  0.17130000000E+03 0.  1.
      622    1    1    2    0    0 -0.32678922922E-01  0.25263091575E-01  0.26732917117E+01  0.26736856045E+01  0.20000000000E-01 0. -1.
</event>
<event>
 5   0  0.3603037E+08  0.9118800E+02  0.7818608E-02  0.1180000E+00
       11   -1    0    0    0    0  0.00000000000E+00  0.00000000000E+00  0.39999999673E+01  0.40000000000E+01  0.51109989000E-03 0. -1.
     -623   -1    0    0    0    0  0.00000000000E+00  0.00000000000E+00  0.12525980253E-10  0.17130000000E+03  0.17130000000E+03 0.  1.
       11    1    1    2    0    0 -0.12982714393E-01 -0.20073675954E-02  0.39680552526E+00  0.39702325687E+00  0.51109989000E-03 0. -1.
     -623    1    1    2    0    0  0.77342562729E-03 -0.73523830980E-02  0.30621342757E-03  0.17130000016E+03  0.17130000000E+03 0.  1.
      622    1    1    2    0    0  0.12209288765E-01  0.93597506934E-02  0.36028882287E+01  0.36029765833E+01  0.20000000000E-01 0.  0.
</event>
<event>
 5   0  0.3603037E+08  0.9118800E+02  0.7818608E-02  0.1180000E+00
       11   -1    0    0    0    0  0.00000000000E+00  0.00000000000E+00  0.39999999673E+01  0.40000000000E+01  0.51109989000E-03 0.  1.
     -623   -1    0    0    0    0  0.00000000000E+00  0.00000000000E+00  0.12525980253E-10  0.17130000000E+03  0.17130000000E+03 0.  1.
       11    1    1    2    0    0 -0.17289783723E-02  0.92581523149E-02  0.17356601267E+01  0.17356857548E+01  0.51109989000E-03 0.  1.
     -623    1    1    2    0    0  0.29948750264E-03 -0.97682548693E-04  0.13290624473E-03  0.17130000000E+03  0.17130000000E+03 0.  1.
      622    1    1    2    0    0  0.14294908697E-02 -0.91604697662E-02  0.22642069344E+01  0.22643142448E+01  0.20000000000E-01 0. -1.
</event>
<event>
 5   0  0.3603037E+08  0.9118800E+02  0.7818608E-02  0.1180000E+00
       11   -1    0    0    0    0  0.00000000000E+00  0.00000000000E+00  0.39999999673E+01  0.40000000000E+01  0.51109989000E-03 0. -1.
     -623   -1    0    0    0    0  0.00000000000E+00  0.00000000000E+00  0.12525980253E-10  0.17130000000E+03  0.17130000000E+03 0. -1.
       11    1    1    2    0    0 -0.96292643771E-02  0.53524980474E-02  0.23017568364E+01  0.23017832580E+01  0.51109989000E-03 0. -1.
     -623    1    1    2    0    0 -0.18141658885E-03 -0.12436732811E-02  0.17748007419E-03  0.17130000000E+03  0.17130000000E+03 0. -1.
      622    1    1    2    0    0  0.98106809659E-02 -0.41088247664E-02  0.16980656509E+01  0.16982167373E+01  0.20000000000E-01 0.  1.
</event>
<event>
 5   0  0.3603037E+08  0.9118800E+02  0.7818608E-02  0.1180000E+00
       11   -1    0    0    0    0  0.00000000000E+00  0.00000000000E+00  0.39999999673E+01  0.40000000000E+01  0.51109989000E-03 0. -1.
     -623   -1    0    0    0    0  0.00000000000E+00  0.00000000000E+00  0.12525980253E-10  0.17130000000E+03  0.17130000000E+03 0.  1.
       11    1    1    2    0    0  0.35132867068E-03  0.19526425518E-02  0.46898533097E-01  0.46943262275E-01  0.51109989000E-03 0. -1.
     -623    1    1    2    0    0 -0.43090030475E-03 -0.34659774933E-03  0.95618596740E-04  0.17130000000E+03  0.17130000000E+03 0.  1.
      622    1    1    2    0    0  0.79571634071E-04 -0.16060448025E-02  0.39530058157E+01  0.39530567368E+01  0.20000000000E-01 0. -1.
</event>
<event>
 5   0  0.3603037E+08  0.9118800E+02  0.7818608E-02  0.1180000E+00
       11   -1    0    0    0    0  0.00000000000E+00  0.00000000000E+00  0.39999999673E+01  0.40000000000E+01  0.51109989000E-03 0.  1.
     -623   -1    0    0    0    0  0.00000000000E+00  0.00000000000E+00  0.12525980253E-10  0.17130000000E+03  0.17130000000E+03 0. -1.
       11    1    1    2    0    0  0.14151547899E-03 -0.51820441999E-03  0.14380936718E-01  0.14400039066E-01  0.51109989000E-03 0.  1.
     -623    1    1    2    0    0  0.58103893141E-04 -0.18408678044E-03  0.69317672018E-04  0.17130000000E+03  0.17130000000E+03 0. -1.
      622    1    1    2    0    0 -0.19961937213E-03  0.70229120043E-03  0.39855497130E+01  0.39855999608E+01  0.20000000000E-01 0.  1.
</event>
<event>
 5   0  0.3603037E+08  0.9118800E+02  0.7818608E-02  0.1180000E+00
       11   -1    0    0    0    0  0.00000000000E+00  0.00000000000E+00  0.39999999673E+01  0.40000000000E+01  0.51109989000E-03 0.  1.
     -623   -1    0    0    0    0  0.00000000000E+00  0.00000000000E+00  0.12525980253E-10  0.17130000000E+03  0.17130000000E+03 0. -1.
       11    1    1    2    0    0 -0.61412094829E-02  0.60718223338E-02  0.65720796507E-01  0.66287749965E-01  0.51109989000E-03 0.  1.
     -623    1    1    2    0    0  0.33338596781E-02 -0.79674803717E-03  0.62233785973E-03  0.17130000004E+03  0.17130000000E+03 0. -1.
      622    1    1    2    0    0  0.28073498047E-02 -0.52750742966E-02  0.39336568330E+01  0.39337122146E+01  0.20000000000E-01 0.  1.
</event>
<event>
 5   0  0.3603037E+08  0.9118800E+02  0.7818608E-02  0.1180000E+00
       11   -1    0    0    0    0  0.00000000000E+00  0.00000000000E+00  0.39999999673E+01  0.40000000000E+01  0.51109989000E-03 0.  1.
     -623   -1    0    0    0    0  0.00000000000E+00  0.00000000000E+00  0.12525980253E-10  0.17130000000E+03  0.17130000000E+03 0. -1.
       11    1    1    2    0    0 -0.31197492073E-02  0.27915853111E-02  0.66180528529E+00  0.66181872340E+00  0.51109989000E-03 0.  1.
     -623    1    1    2    0    0  0.71787092231E-03 -0.10087298291E-01  0.82454191697E-04  0.17130000030E+03  0.17130000000E+03 0. -1.
      622    1    1    2    0    0  0.24018782850E-02  0.72957129801E-02  0.33381122279E+01  0.33381809781E+01  0.20000000000E-01 0.  1.
</event>
<event>
 5   0  0.3603037E+08  0.9118800E+02  0.7818608E-02  0.1180000E+00
       11   -1    0    0    0    0  0.00000000000E+00  0.00000000000E+00  0.39999999673E+01  0.40000000000E+01  0.51109989000E-03 0. -1.
     -623   -1    0    0    0    0  0.00000000000E+00  0.00000000000E+00  0.12525980253E-10  0.17130000000E+03  0.17130000000E+03 0. -1.
       11    1    1    2    0    0 -0.84133611658E-02 -0.50223470754E-02  0.12435418469E+01  0.12435805542E+01  0.51109989000E-03 0. -1.
     -623    1    1    2    0    0 -0.10966980190E-04  0.52731920716E-03  0.12777346528E-03  0.17130000000E+03  0.17130000000E+03 0. -1.
      622    1    1    2    0    0  0.84243281460E-02  0.44950278682E-02  0.27563303470E+01  0.27564194450E+01  0.20000000000E-01 0. -1.
</event>
<event>
 5   0  0.3603037E+08  0.9118800E+02  0.7818608E-02  0.1180000E+00
       11   -1    0    0    0    0  0.00000000000E+00  0.00000000000E+00  0.39999999673E+01  0.40000000000E+01  0.51109989000E-03 0. -1.
     -623   -1    0    0    0    0  0.00000000000E+00  0.00000000000E+00  0.12525980253E-10  0.17130000000E+03  0.17130000000E+03 0.  1.
       11    1    1    2    0    0 -0.27458296119E-02  0.58824856217E-03  0.45335798530E-01  0.45425559603E-01  0.51109989000E-03 0. -1.
     -623    1    1    2    0    0  0.41828675970E-03  0.14525131954E-03  0.14105672496E-03  0.17130000000E+03  0.17130000000E+03 0.  1.
      622    1    1    2    0    0  0.23275428522E-02 -0.73349988171E-03  0.39545231121E+01  0.39545744398E+01  0.20000000000E-01 0. -1.
</event>
<event>
 5   0  0.3603037E+08  0.9118800E+02  0.7818608E-02  0.1180000E+00
       11   -1    0    0    0    0  0.00000000000E+00  0.00000000000E+00  0.39999999673E+01  0.40000000000E+01  0.51109989000E-03 0.  1.
     -623   -1    0    0    0    0  0.00000000000E+00  0.00000000000E+00  0.12525980253E-10  0.17130000000E+03  0.17130000000E+03 0. -1.
       11    1    1    2    0    0 -0.29432345974E-03 -0.30476016345E-04  0.20446723653E-01  0.20455250784E-01  0.51109989000E-03 0.  1.
     -623    1    1    2    0    0  0.33255441248E-03  0.66552959872E-03  0.58804294000E-04  0.17130000000E+03  0.17130000000E+03 0. -1.
      622    1    1    2    0    0 -0.38230952742E-04 -0.63505358237E-03  0.39794944394E+01  0.39795447476E+01  0.20000000000E-01 0.  1.
</event>
<event>
 5   0  0.3603037E+08  0.9118800E+02  0.7818608E-02  0.1180000E+00
       11   -1    0    0    0    0  0.00000000000E+00  0.00000000000E+00  0.39999999673E+01  0.40000000000E+01  0.51109989000E-03 0. -1.
     -623   -1    0    0    0    0  0.00000000000E+00  0.00000000000E+00  0.12525980253E-10  0.17130000000E+03  0.17130000000E+03 0. -1.
       11    1    1    2    0    0 -0.86711646944E-02 -0.42820350222E-02  0.13352050162E+01  0.13352401363E+01  0.51109989000E-03 0. -1.
     -623    1    1    2    0    0  0.49263922158E-02 -0.32117351851E-02  0.12341167325E-03  0.17130000010E+03  0.17130000000E+03 0. -1.
      622    1    1    2    0    0  0.37447724786E-02  0.74937702073E-02  0.26646715395E+01  0.26647597628E+01  0.20000000000E-01 0.  1.
</event>
<event>
 5   0  0.3603037E+08  0.9118800E+02  0.7818608E-02  0.1180000E+00
       11   -1    0    0    0    0  0.00000000000E+00  0.00000000000E+00  0.39999999673E+01  0.40000000000E+01  0.51109989000E-03 0.  1.
     -623   -1    0    0    0    0  0.00000000000E+00  0.00000000000E+00  0.12525980253E-10  0.17130000000E+03  0.17130000000E+03 0.  1.
       11    1    1    2    0    0  0.17286912200E-03  0.59836386570E-03  0.18924835697E+00  0.18925007202E+00  0.51109989000E-03 0.  1.
     -623    1    1    2    0    0 -0.52571465306E-03 -0.10458127389E-02  0.54212494236E-04  0.17130000000E+03  0.17130000000E+03 0.  1.
      622    1    1    2    0    0  0.35284553106E-03  0.44744887325E-03  0.38106973979E+01  0.38107499240E+01  0.20000000000E-01 0.  1.
</event>
<event>
 5   0  0.3603037E+08  0.9118800E+02  0.7818608E-02  0.1180000E+00
       11   -1    0    0    0    0  0.00000000000E+00  0.00000000000E+00  0.39999999673E+01  0.40000000000E+01  0.51109989000E-03 0. -1.
     -623   -1    0    0    0    0  0.00000000000E+00  0.00000000000E+00  0.12525980253E-10  0.17130000000E+03  0.17130000000E+03 0. -1.
       11    1    1    2    0    0  0.35479578135E-02 -0.16513230110E-02  0.12046561553E+00  0.12053024773E+00  0.51109989000E-03 0. -1.
     -623    1    1    2    0    0  0.57090878818E-03  0.12531492661E-02  0.11836589842E-03  0.17130000001E+03  0.17130000000E+03 0. -1.
      622    1    1    2    0    0 -0.41188666017E-02  0.39817374486E-03  0.38794159859E+01  0.38794697467E+01  0.20000000000E-01 0. -1.
</event>
<event>
 5   0  0.3603037E+08  0.9118800E+02  0.7818608E-02  0.1180000E+00
       11   -1    0    0    0    0  0.00000000000E+00  0.00000000000E+00  0.39999999673E+01  0.40000000000E+01  0.51109989000E-03 0.  1.
     -623   -1    0    0    0    0  0.00000000000E+00  0.00000000000E+00  0.12525980253E-10  0.17130000000E+03  0.17130000000E+03 0. -1.
       11    1    1    2    0    0 -0.39176593970E-02  0.10324839277E-01  0.70099338255E+00  0.70108054741E+00  0.51109989000E-03 0.  1.
     -623    1    1    2    0    0  0.35501319299E-04 -0.20876223440E-02  0.16033993825E-03  0.17130000001E+03  0.17130000000E+03 0. -1.
      622    1    1    2    0    0  0.38821580777E-02 -0.82372169326E-02  0.32988462449E+01  0.32989194398E+01  0.20000000000E-01 0.  0.
</event>
<event>
 5   0  0.3603037E+08  0.9118800E+02  0.7818608E-02  0.1180000E+00
       11   -1    0    0    0    0  0.00000000000E+00  0.00000000000E+00  0.39999999673E+01  0.40000000000E+01  0.51109989000E-03 0. -1.
     -623   -1    0    0    0    0  0.00000000000E+00  0.00000000000E+00  0.12525980253E-10  0.17130000000E+03  0.17130000000E+03 0.  1.
       11    1    1    2    0    0  0.45778820771E-02 -0.45154528687E-02  0.64994586513E+00  0.64997787281E+00  0.51109989000E-03 0. -1.
     -623    1    1    2    0    0 -0.87560781187E-03  0.77757785429E-02  0.95487783795E-04  0.17130000018E+03  0.17130000000E+03 0.  1.
      622    1    1    2    0    0 -0.37022742653E-02 -0.32603256742E-02  0.33499586144E+01  0.33500219484E+01  0.20000000000E-01 0. -1.
</event>
<event>
 5   0  0.3603037E+08  0.9118800E+02  0.7818608E-02  0.1180000E+00
       11   -1    0    0    0    0  0.00000000000E+00  0.00000000000E+00  0.39999999673E+01  0.40000000000E+01  0.51109989000E-03 0. -1.
     -623   -1    0    0    0    0  0.00000000000E+00  0.00000000000E+00  0.12525980253E-10  0.17130000000E+03  0.17130000000E+03 0. -1.
       11    1    1    2    0    0 -0.47304791036E-01 -0.12101356340E-01  0.18936735732E+01  0.18943030510E+01  0.51109989000E-03 0. -1.
     -623    1    1    2    0    0  0.31782137347E-01  0.23468524160E-01  0.81688801798E-03  0.17130000456E+03  0.17130000000E+03 0. -1.
      622    1    1    2    0    0  0.15522653689E-01 -0.11367167820E-01  0.21055095062E+01  0.21056923911E+01  0.20000000000E-01 0. -1.
</event>
<event>
 5   0  0.3603037E+08  0.9118800E+02  0.7818608E-02  0.1180000E+00
       11   -1    0    0    0    0  0.00000000000E+00  0.00000000000E+00  0.39999999673E+01  0.40000000000E+01  0.51109989000E-03 0. -1.
     -623   -1    0    0    0    0  0.00000000000E+00  0.00000000000E+00  0.12525980253E-10  0.17130000000E+03  0.17130000000E+03 0. -1.
       11    1    1    2    0    0  0.18411591166E-02  0.53646856863E-02  0.99518339409E+00  0.99519968790E+00  0.51109989000E-03 0. -1.
     -623    1    1    2    0    0 -0.46827742079E-02 -0.11015429289E-01  0.89897408365E-04  0.17130000042E+03  0.17130000000E+03 0. -1.
      622    1    1    2    0    0  0.28416150913E-02  0.56507436022E-02  0.30047266759E+01  0.30047998939E+01  0.20000000000E-01 0. -1.
</event>
<event>
 5   0  0.3603037E+08  0.9118800E+02  0.7818608E-02  0.1180000E+00
       11   -1    0    0    0    0  0.00000000000E+00  0.00000000000E+00  0.39999999673E+01  0.40000000000E+01  0.51109989000E-03 0. -1.
     -623   -1    0    0    0    0  0.00000000000E+00  0.00000000000E+00  0.12525980253E-10  0.17130000000E+03  0.17130000000E+03 0. -1.
       11    1    1    2    0    0 -0.28274503121E-02  0.19718607573E-02  0.58083886819E+00  0.58084932188E+00  0.51109989000E-03 0. -1.
     -623    1    1    2    0    0  0.76498370973E-02  0.48314592791E-02  0.79324047289E-04  0.17130000024E+03  0.17130000000E+03 0. -1.
      622    1    1    2    0    0 -0.48223867852E-02 -0.68033200365E-02  0.34190817751E+01  0.34191504392E+01  0.20000000000E-01 0. -1.
</event>
<event>
 5   0  0.3603037E+08  0.9118800E+02  0.7818608E-02  0.1180000E+00
       11   -1    0    0    0    0  0.00000000000E+00  0.00000000000E+00  0.39999999673E+01  0.40000000000E+01  0.51109989000E-03 0. -1.
     -623   -1    0    0    0    0  0.00000000000E+00  0.00000000000E+00  0.12525980253E-10  0.17130000000E+03  0.17130000000E+03 0. -1.
       11    1    1    2    0    0  0.45433908234E-04  0.41686222673E-02  0.29685517771E-01  0.29981171808E-01  0.51109989000E-03 0. -1.
     -623    1    1    2    0    0  0.44936336319E-03 -0.57683273268E-02  0.34645050951E-03  0.17130000010E+03  0.17130000000E+03 0. -1.
      622    1    1    2    0    0 -0.49479727142E-03  0.15997050596E-02  0.39699679991E+01  0.39700187301E+01  0.20000000000E-01 0. -1.
</event>
<event>
 5   0  0.3603037E+08  0.9118800E+02  0.7818608E-02  0.1180000E+00
       11   -1    0    0    0    0  0.00000000000E+00  0.00000000000E+00  0.39999999673E+01  0.40000000000E+01  0.51109989000E-03 0. -1.
     -623   -1    0    0    0    0  0.00000000000E+00  0.00000000000E+00  0.12525980253E-10  0.17130000000E+03  0.17130000000E+03 0.  1.
       11    1    1    2    0    0  0.51138119566E-02 -0.13516446714E-01  0.23278676818E+01  0.23279125951E+01  0.51109989000E-03 0. -1.
     -623    1    1    2    0    0  0.10010785797E-02 -0.62466410872E-02  0.29260231479E-03  0.17130000012E+03  0.17130000000E+03 0.  1.
      622    1    1    2    0    0 -0.61148905362E-02  0.19763087801E-01  0.16718396833E+01  0.16720872878E+01  0.20000000000E-01 0.  0.
</event>
<event>
 5   0  0.3603037E+08  0.9118800E+02  0.7818608E-02  0.1180000E+00
       11   -1    0    0    0    0  0.00000000000E+00  0.00000000000E+00  0.39999999673E+01  0.40000000000E+01  0.51109989000E-03 0.  1.
     -623   -1    0    0    0    0  0.00000000000E+00  0.00000000000E+00  0.12525980253E-10  0.17130000000E+03  0.17130000000E+03 0.  1.
       11    1    1    2    0    0  0.30694278684E-02 -0.31593795429E-02  0.68838242331E-01  0.68980924137E-01  0.51109989000E-03 0.  1.
     -623    1    1    2    0    0 -0.51691369666E-03 -0.54091330188E-04  0.19566997303E-03  0.17130000000E+03  0.17130000000E+03 0.  1.
      622    1    1    2    0    0 -0.25525141718E-02  0.32134708731E-02  0.39309660551E+01  0.39310190750E+01  0.20000000000E-01 0.  1.
</event>
<event>
 5   0  0.3603037E+08  0.9118800E+02  0.7818608E-02  0.1180000E+00
       11   -1    0    0    0    0  0.00000000000E+00  0.00000000000E+00  0.39999999673E+01  0.40000000000E+01  0.51109989000E-03 0. -1.
     -623   -1    0    0    0    0  0.00000000000E+00  0.00000000000E+00  0.12525980253E-10  0.17130000000E+03  0.17130000000E+03 0. -1.
       11    1    1    2    0    0  0.80352863700E-04  0.11640955757E-02  0.19335305926E-01  0.19377225054E-01  0.51109989000E-03 0. -1.
     -623    1    1    2    0    0  0.10096454337E-02 -0.95138117942E-03  0.92290762632E-04  0.17130000001E+03  0.17130000000E+03 0. -1.
      622    1    1    2    0    0 -0.10899982974E-02 -0.21271439625E-03  0.39805723707E+01  0.39806227693E+01  0.20000000000E-01 0. -1.
</event>
<event>
 5   0  0.3603037E+08  0.9118800E+02  0.7818608E-02  0.1180000E+00
       11   -1    0    0    0    0  0.00000000000E+00  0.00000000000E+00  0.39999999673E+01  0.40000000000E+01  0.51109989000E-03 0.  1.
     -623   -1    0    0    0    0  0.00000000000E+00  0.00000000000E+00  0.12525980253E-10  0.17130000000E+03  0.17130000000E+03 0.  1.
       11    1    1    2    0    0 -0.15728490133E-01  0.16734563018E-02  0.31217932647E+01  0.31218333772E+01  0.51109989000E-03 0.  1.
     -623    1    1    2    0    0 -0.68480027166E-03 -0.92591852468E-03  0.42161798025E-03  0.17130000000E+03  0.17130000000E+03 0.  1.
      622    1    1    2    0    0  0.16413290405E-01 -0.74753777713E-03  0.87778508466E+00  0.87816661846E+00  0.20000000000E-01 0.  1.
</event>
<event>
 5   0  0.3603037E+08  0.9118800E+02  0.7818608E-02  0.1180000E+00
       11   -1    0    0    0    0  0.00000000000E+00  0.00000000000E+00  0.39999999673E+01  0.40000000000E+01  0.51109989000E-03 0.  1.
     -623   -1    0    0    0    0  0.00000000000E+00  0.00000000000E+00  0.12525980253E-10  0.17130000000E+03  0.17130000000E+03 0. -1.
       11    1    1    2    0    0 -0.17338884572E-02 -0.93284075658E-03  0.32943394030E-01  0.33006135680E-01  0.51109989000E-03 0.  1.
     -623    1    1    2    0    0  0.19604081593E-02 -0.16024427127E-02  0.11396071156E-03  0.17130000002E+03  0.17130000000E+03 0. -1.
      622    1    1    2    0    0 -0.22651970203E-03  0.25352834692E-02  0.39669426126E+01  0.39669938456E+01  0.20000000000E-01 0.  1.
</event>
<event>
 5   0  0.3603037E+08  0.9118800E+02  0.7818608E-02  0.1180000E+00
       11   -1    0    0    0    0  0.00000000000E+00  0.00000000000E+00  0.39999999673E+01  0.40000000000E+01  0.51109989000E-03 0. -1.
     -623   -1    0    0    0    0  0.00000000000E+00  0.00000000000E+00  0.12525980253E-10  0.17130000000E+03  0.17130000000E+03 0. -1.
       11    1    1    2    0    0  0.57343533876E-02  0.40554573634E-02  0.18174668867E+00  0.18188306574E+00  0.51109989000E-03 0. -1.
     -623    1    1    2    0    0 -0.21005193636E-02 -0.57999216600E-04  0.19256152697E-03  0.17130000001E+03  0.17130000000E+03 0. -1.
      622    1    1    2    0    0 -0.36338340239E-02 -0.39974581468E-02  0.38180607172E+01  0.38181169213E+01  0.20000000000E-01 0. -1.
</event>
<event>
 5   0  0.3603037E+08  0.9118800E+02  0.7818608E-02  0.1180000E+00
       11   -1    0    0    0    0  0.00000000000E+00  0.00000000000E+00  0.39999999673E+01  0.40000000000E+01  0.51109989000E-03 0. -1.
     -623   -1    0    0    0    0  0.00000000000E+00  0.00000000000E+00  0.12525980253E-10  0.17130000000E+03  0.17130000000E+03 0. -1.
       11    1    1    2    0    0  0.12853270545E-02  0.14884933169E-02  0.27438961547E-01  0.27514096562E-01  0.51109989000E-03 0. -1.
     -623    1    1    2    0    0 -0.21009516261E-02 -0.82554363139E-02  0.13150826098E-03  0.17130000021E+03  0.17130000000E+03 0. -1.
      622    1    1    2    0    0  0.81562457166E-03  0.67669429970E-02  0.39724294976E+01  0.39724856916E+01  0.20000000000E-01 0. -1.
</event>
<event>
 5   0  0.3603037E+08  0.9118800E+02  0.7818608E-02  0.1180000E+00
       11   -1    0    0    0    0  0.00000000000E+00  0.00000000000E+00  0.39999999673E+01  0.40000000000E+01  0.51109989000E-03 0.  1.
     -623   -1    0    0    0    0  0.00000000000E+00  0.00000000000E+00  0.12525980253E-10  0.17130000000E+03  0.17130000000E+03 0. -1.
       11    1    1    2    0    0  0.30589787798E-02  0.57963457777E-02  0.29352485888E+00  0.29359846555E+00  0.51109989000E-03 0.  1.
     -623    1    1    2    0    0  0.24958495658E-03 -0.19419069353E-03  0.13324604635E-03  0.17130000000E+03  0.17130000000E+03 0. -1.
      622    1    1    2    0    0 -0.33085637364E-02 -0.56021550842E-02  0.37063418624E+01  0.37064015341E+01  0.20000000000E-01 0.  1.
</event>
<event>
 5   0  0.3603037E+08  0.9118800E+02  0.7818608E-02  0.1180000E+00
       11   -1    0    0    0    0  0.00000000000E+00  0.00000000000E+00  0.39999999673E+01  0.40000000000E+01  0.51109989000E-03 0.  1.
     -623   -1    0    0    0    0  0.00000000000E+00  0.00000000000E+00  0.12525980253E-10  0.17130000000E+03  0.17130000000E+03 0.  1.
       11    1    1    2    0    0 -0.26406382272E-02 -0.93086642961E-03  0.54068402778E+00  0.54069151890E+00  0.51109989000E-03 0.  1.
     -623    1    1    2    0    0 -0.10823572903E-03  0.13607768129E-03  0.66457572039E-04  0.17130000000E+03  0.17130000000E+03 0.  1.
      622    1    1    2    0    0  0.27488739562E-02  0.79478874833E-03  0.34592494820E+01  0.34593084810E+01  0.20000000000E-01 0.  1.
</event>
<event>
 5   0  0.3603037E+08  0.9118800E+02  0.7818608E-02  0.1180000E+00
       11   -1    0    0    0    0  0.00000000000E+00  0.00000000000E+00  0.39999999673E+01  0.40000000000E+01  0.51109989000E-03 0. -1.
     -623   -1    0    0    0    0  0.00000000000E+00  0.00000000000E+00  0.12525980253E-10  0.17130000000E+03  0.17130000000E+03 0.  1.
       11    1    1    2    0    0  0.38876252160E-02  0.18613252099E-01  0.31888365945E+01  0.31888933275E+01  0.51109989000E-03 0. -1.
     -623    1    1    2    0    0 -0.29065837529E-02 -0.97462566929E-02  0.35269354479E-03  0.17130000030E+03  0.17130000000E+03 0.  1.
      622    1    1    2    0    0 -0.98104146314E-03 -0.88669954060E-02  0.81081067934E+00  0.81110637020E+00  0.20000000000E-01 0. -1.
</event>
<event>
 5   0  0.3603037E+08  0.9118800E+02  0.7818608E-02  0.1180000E+00
       11   -1    0    0    0    0  0.00000000000E+00  0.00000000000E+00  0.39999999673E+01  0.40000000000E+01  0.51109989000E-03 0.  1.
     -623   -1    0    0    0    0  0.00000000000E+00  0.00000000000E+00  0.12525980253E-10  0.17130000000E+03  0.17130000000E+03 0.  1.
       11    1    1    2    0    0 -0.61501861529E-02 -0.67803878741E-02  0.62752709679E+00  0.62759407014E+00  0.51109989000E-03 0.  1.
     -623    1    1    2    0    0  0.64690909411E-03 -0.18059188740E-04  0.13759035499E-03  0.17130000000E+03  0.17130000000E+03 0.  1.
      622    1    1    2    0    0  0.55032770588E-02  0.67984470628E-02  0.33723352802E+01  0.33724059286E+01  0.20000000000E-01 0.  1.
</event>
<event>
 5   0  0.3603037E+08  0.9118800E+02  0.7818608E-02  0.1180000E+00
       11   -1    0    0    0    0  0.00000000000E+00  0.00000000000E+00  0.39999999673E+01  0.40000000000E+01  0.51109989000E-03 0. -1.
     -623   -1    0    0    0    0  0.00000000000E+00  0.00000000000E+00  0.12525980253E-10  0.17130000000E+03  0.17130000000E+03 0. -1.
       11    1    1    2    0    0 -0.37861171481E-02  0.33663706624E-02  0.54891009565E+00  0.54893371318E+00  0.51109989000E-03 0. -1.
     -623    1    1    2    0    0 -0.80898700074E-02 -0.16630129607E-02  0.10259252208E-03  0.17130000020E+03  0.17130000000E+03 0. -1.
      622    1    1    2    0    0  0.11875987155E-01 -0.17033577017E-02  0.34509872792E+01  0.34510660877E+01  0.20000000000E-01 0. -1.
</event>
<event>
 5   0  0.3603037E+08  0.9118800E+02  0.7818608E-02  0.1180000E+00
       11   -1    0    0    0    0  0.00000000000E+00  0.00000000000E+00  0.39999999673E+01  0.40000000000E+01  0.51109989000E-03 0.  1.
     -623   -1    0    0    0    0  0.00000000000E+00  0.00000000000E+00  0.12525980253E-10  0.17130000000E+03  0.17130000000E+03 0. -1.
       11    1    1    2    0    0 -0.63120713175E-03 -0.24239999190E-02  0.12333564283E+00  0.12336213443E+00  0.51109989000E-03 0.  1.
     -623    1    1    2    0    0 -0.41549568994E-03  0.30550043214E-03  0.78771368405E-04  0.17130000000E+03  0.17130000000E+03 0. -1.
      622    1    1    2    0    0  0.10467028217E-02  0.21184994869E-02  0.38765855532E+01  0.38766378648E+01  0.20000000000E-01 0.  1.
</event>
<event>
 5   0  0.3603037E+08  0.9118800E+02  0.7818608E-02  0.1180000E+00
       11   -1    0    0    0    0  0.00000000000E+00  0.00000000000E+00  0.39999999673E+01  0.40000000000E+01  0.51109989000E-03 0.  1.
     -623   -1    0    0    0    0  0.00000000000E+00  0.00000000000E+00  0.12525980253E-10  0.17130000000E+03  0.17130000000E+03 0.  1.
       11    1    1    2    0    0  0.55246568808E-02  0.40563936456E-02  0.17161346040E+01  0.17161483667E+01  0.51109989000E-03 0.  1.
     -623    1    1    2    0    0  0.30961968395E-02 -0.27178757561E-02  0.11801616397E-03  0.17130000005E+03  0.17130000000E+03 0.  1.
      622    1    1    2    0    0 -0.86208537203E-02 -0.13385178895E-02  0.22837473472E+01  0.22838515838E+01  0.20000000000E-01 0.  1.
</event>
<event>
 5   0  0.3603037E+08  0.9118800E+02  0.7818608E-02  0.1180000E+00
       11   -1    0    0    0    0  0.00000000000E+00  0.00000000000E+00  0.39999999673E+01  0.40000000000E+01  0.51109989000E-03 0.  1.
     -623   -1    0    0    0    0  0.00000000000E+00  0.00000000000E+00  0.12525980253E-10  0.17130000000E+03  0.17130000000E+03 0.  1.
       11    1    1    2    0    0 -0.32371530326E-02  0.54450982844E-02  0.25411721563E+01  0.25411801033E+01  0.51109989000E-03 0.  1.
     -623    1    1    2    0    0  0.12786416370E-02  0.32516639249E-03  0.15775095873E-03  0.17130000001E+03  0.17130000000E+03 0.  1.
      622    1    1    2    0    0  0.19585113956E-02 -0.57702646768E-02  0.14586700601E+01  0.14588198915E+01  0.20000000000E-01 0.  0.
</event>
<event>
 5   0  0.3603037E+08  0.9118800E+02  0.7818608E-02  0.1180000E+00
       11   -1    0    0    0    0  0.00000000000E+00  0.00000000000E+00  0.39999999673E+01  0.40000000000E+01  0.51109989000E-03 0. -1.
     -623   -1    0    0    0    0  0.00000000000E+00  0.00000000000E+00  0.12525980253E-10  0.17130000000E+03  0.17130000000E+03 0. -1.
       11    1    1    2    0    0 -0.15582228139E-01 -0.22650151566E-03  0.38977596129E+00  0.39008770599E+00  0.51109989000E-03 0. -1.
     -623    1    1    2    0    0  0.52588211402E-03  0.27683861026E-02  0.39943345292E-03  0.17130000002E+03  0.17130000000E+03 0. -1.
      622    1    1    2    0    0  0.15056346025E-01 -0.25418845869E-02  0.36098245726E+01  0.36099122704E+01  0.20000000000E-01 0. -1.
</event>
<event>
 5   0  0.3603037E+08  0.9118800E+02  0.7818608E-02  0.1180000E+00
       11   -1    0    0    0    0  0.00000000000E+00  0.00000000000E+00  0.39999999673E+01  0.40000000000E+01  0.51109989000E-03 0.  1.
     -623   -1    0    0    0    0  0.00000000000E+00  0.00000000000E+00  0.12525980253E-10  0.17130000000E+03  0.17130000000E+03 0.  1.
       11    1    1    2    0    0 -0.88639849937E-02  0.65096249322E-02  0.17018277318E+01  0.17018633421E+01  0.51109989000E-03 0.  1.
     -623    1    1    2    0    0  0.14298604107E-01  0.17974067833E-02  0.14465310011E-03  0.17130000061E+03  0.17130000000E+03 0.  1.
      622    1    1    2    0    0 -0.54346191133E-02 -0.83070317155E-02  0.22980275825E+01  0.22981360516E+01  0.20000000000E-01 0.  1.
</event>
<event>
 5   0  0.3603037E+08  0.9118800E+02  0.7818608E-02  0.1180000E+00
       11   -1    0    0    0    0  0.00000000000E+00  0.00000000000E+00  0.39999999673E+01  0.40000000000E+01  0.51109989000E-03 0. -1.
     -623   -1    0    0    0    0  0.00000000000E+00  0.00000000000E+00  0.12525980253E-10  0.17130000000E+03  0.17130000000E+03 0.  1.
       11    1    1    2    0    0 -0.19640663155E-02 -0.93143407804E-03  0.99447969075E-01  0.99473036050E-01  0.51109989000E-03 0. -1.
     -623    1    1    2    0    0  0.26685386719E-02  0.24603536302E-02  0.76711540202E-04  0.17130000004E+03  0.17130000000E+03 0.  1.
      622    1    1    2    0    0 -0.70447235644E-03 -0.15289195522E-02  0.39004752867E+01  0.39005269255E+01  0.20000000000E-01 0. -1.
</event>
<event>
 5   0  0.3603037E+08  0.9118800E+02  0.7818608E-02  0.1180000E+00
       11   -1    0    0    0    0  0.00000000000E+00  0.00000000000E+00  0.39999999673E+01  0.40000000000E+01  0.51109989000E-03 0. -1.
     -623   -1    0    0    0    0  0.00000000000E+00  0.00000000000E+00  0.12525980253E-10  0.17130000000E+03  0.17130000000E+03 0. -1.
       11    1    1    2    0    0 -0.21156053805E-02  0.16732011878E-02  0.81298785055E-01  0.81345123155E-01  0.51109989000E-03 0. -1.
     -623    1    1    2    0    0 -0.41453201357E-04 -0.60701443000E-03  0.98083561801E-04  0.17130000000E+03  0.17130000000E+03 0. -1.
      622    1    1    2    0    0  0.21570585818E-02 -0.10661867578E-02  0.39186030987E+01  0.39186548757E+01  0.20000000000E-01 0. -1.
</event>
<event>
 5   0  0.3603037E+08  0.9118800E+02  0.7818608E-02  0.1180000E+00
       11   -1    0    0    0    0  0.00000000000E+00  0.00000000000E+00  0.39999999673E+01  0.40000000000E+01  0.51109989000E-03 0. -1.
     -623   -1    0    0    0    0  0.00000000000E+00  0.00000000000E+00  0.12525980253E-10  0.17130000000E+03  0.17130000000E+03 0.  1.
       11    1    1    2    0    0  0.86202707262E-03  0.16468533746E-03  0.74847383286E-02  0.75533265364E-02  0.51109989000E-03 0. -1.
     -623    1    1    2    0    0  0.15641195846E-04 -0.33633059185E-03  0.11875101006E-03  0.17130000000E+03  0.17130000000E+03 0.  1.
      622    1    1    2    0    0 -0.87766826847E-03  0.17164525439E-03  0.39923964780E+01  0.39924466731E+01  0.20000000000E-01 0. -1.
</event>
<event>
 5   0  0.3603037E+08  0.9118800E+02  0.7818608E-02  0.1180000E+00
       11   -1    0    0    0    0  0.00000000000E+00  0.00000000000E+00  0.39999999673E+01  0.40000000000E+01  0.51109989000E-03 0.  1.
     -623   -1    0    0    0    0  0.00000000000E+00  0.00000000000E+00  0.12525980253E-10  0.17130000000E+03  0.17130000000E+03 0. -1.
       11    1    1    2    0    0  0.12117315768E-02 -0.79753566359E-03  0.90232414156E-02  0.91533854021E-02  0.51109989000E-03 0.  1.
     -623    1    1    2    0    0 -0.43054594580E-03  0.11982805370E-03  0.18036101915E-03  0.17130000000E+03  0.17130000000E+03 0. -1.
      622    1    1    2    0    0 -0.78118563099E-03  0.67770760990E-03  0.39907963649E+01  0.39908466139E+01  0.20000000000E-01 0.  1.
</event>
<event>
 5   0  0.3603037E+08  0.9118800E+02  0.7818608E-02  0.1180000E+00
       11   -1    0    0    0    0  0.00000000000E+00  0.00000000000E+00  0.39999999673E+01  0.40000000000E+01  0.51109989000E-03 0. -1.
     -623   -1    0    0    0    0  0.00000000000E+00  0.00000000000E+00  0.12525980253E-10  0.17130000000E+03  0.17130000000E+03 0. -1.
       11    1    1    2    0    0  0.23603394931E-02  0.25347011882E-02  0.75488313260E-02  0.83211770542E-02  0.51109989000E-03 0. -1.
     -623    1    1    2    0    0 -0.32096365170E-02 -0.45396858041E-03  0.82308295143E-03  0.17130000003E+03  0.17130000000E+03 0. -1.
      622    1    1    2    0    0  0.84929702382E-03 -0.20807326078E-02  0.39916280531E+01  0.39916787903E+01  0.20000000000E-01 0. -1.
</event>
<event>
 5   0  0.3603037E+08  0.9118800E+02  0.7818608E-02  0.1180000E+00
       11   -1    0    0    0    0  0.00000000000E+00  0.00000000000E+00  0.39999999673E+01  0.40000000000E+01  0.51109989000E-03 0.  1.
     -623   -1    0    0    0    0  0.00000000000E+00  0.00000000000E+00  0.12525980253E-10  0.17130000000E+03  0.17130000000E+03 0. -1.
       11    1    1    2    0    0 -0.30038308155E-02 -0.13546453264E-02  0.13274928786E+00  0.13279116203E+00  0.51109989000E-03 0.  1.
     -623    1    1    2    0    0  0.61353738010E-04 -0.25085763197E-03  0.95011699103E-04  0.17130000000E+03  0.17130000000E+03 0. -1.
      622    1    1    2    0    0  0.29424770775E-02  0.16055029584E-02  0.38671556678E+01  0.38672088378E+01  0.20000000000E-01 0.  1.
</event>
<event>
 5   0  0.3603037E+08  0.9118800E+02  0.7818608E-02  0.1180000E+00
       11   -1    0    0    0    0  0.00000000000E+00  0.00000000000E+00  0.39999999673E+01  0.40000000000E+01  0.51109989000E-03 0.  1.
     -623   -1    0    0    0    0  0.00000000000E+00  0.00000000000E+00  0.12525980253E-10  0.17130000000E+03  0.17130000000E+03 0. -1.
       11    1    1    2    0    0 -0.11673273451E-02  0.16849138891E-02  0.12784970741E+01  0.12784988194E+01  0.51109989000E-03 0.  1.
     -623    1    1    2    0    0  0.27094124793E-02 -0.36792316986E-02  0.76431141704E-04  0.17130000006E+03  0.17130000000E+03 0. -1.
      622    1    1    2    0    0 -0.15420851342E-02  0.19943178094E-02  0.27214264621E+01  0.27215011196E+01  0.20000000000E-01 0.  1.
</event>
<event>
 5   0  0.3603037E+08  0.9118800E+02  0.7818608E-02  0.1180000E+00
       11   -1    0    0    0    0  0.00000000000E+00  0.00000000000E+00  0.39999999673E+01  0.40000000000E+01  0.51109989000E-03 0.  1.
     -623   -1    0    0    0    0  0.00000000000E+00  0.00000000000E+00  0.12525980253E-10  0.17130000000E+03  0.17130000000E+03 0. -1.
       11    1    1    2    0    0 -0.41322003258E-02  0.17651286908E-01  0.21611011729E+00  0.21686974668E+00  0.51109989000E-03 0.  1.
     -623    1    1    2    0    0  0.10050596428E-01 -0.18788920678E-01  0.81859118357E-03  0.17130000133E+03  0.17130000000E+03 0. -1.
      622    1    1    2    0    0 -0.59183961018E-02  0.11376337701E-02  0.37830712589E+01  0.37831289261E+01  0.20000000000E-01 0.  1.
</event>
<event>
 5   0  0.3603037E+08  0.9118800E+02  0.7818608E-02  0.1180000E+00
       11   -1    0    0    0    0  0.00000000000E+00  0.00000000000E+00  0.39999999673E+01  0.40000000000E+01  0.51109989000E-03 0.  1.
     -623   -1    0    0    0    0  0.00000000000E+00  0.00000000000E+00  0.12525980253E-10  0.17130000000E+03  0.17130000000E+03 0. -1.
       11    1    1    2    0    0  0.18044334886E-02 -0.11792138148E-02  0.18069424719E-01  0.18204720717E-01  0.51109989000E-03 0.  1.
     -623    1    1    2    0    0 -0.12422167951E-03  0.14644114139E-02  0.18586340084E-03  0.17130000001E+03  0.17130000000E+03 0. -1.
      622    1    1    2    0    0 -0.16802118091E-02 -0.28519759912E-03  0.39817446792E+01  0.39817952729E+01  0.20000000000E-01 0.  1.
</event>
<event>
 5   0  0.3603037E+08  0.9118800E+02  0.7818608E-02  0.1180000E+00
       11   -1    0    0    0    0  0.00000000000E+00  0.00000000000E+00  0.39999999673E+01  0.40000000000E+01  0.51109989000E-03 0. -1.
     -623   -1    0    0    0    0  0.00000000000E+00  0.00000000000E+00  0.12525980253E-10  0.17130000000E+03  0.17130000000E+03 0. -1.
       11    1    1    2    0    0  0.57046418724E-03  0.59831640976E-02  0.32606940496E+00  0.32612519338E+00  0.51109989000E-03 0. -1.
     -623    1    1    2    0    0  0.11803922503E-02 -0.31900722205E-03  0.11498262365E-03  0.17130000000E+03  0.17130000000E+03 0. -1.
      622    1    1    2    0    0 -0.17508564376E-02 -0.56641568756E-02  0.36738155798E+01  0.36738748022E+01  0.20000000000E-01 0. -1.
</event>
<event>
 5   0  0.3603037E+08  0.9118800E+02  0.7818608E-02  0.1180000E+00
       11   -1    0    0    0    0  0.00000000000E+00  0.00000000000E+00  0.39999999673E+01  0.40000000000E+01  0.51109989000E-03 0.  1.
     -623   -1    0    0    0    0  0.00000000000E+00  0.00000000000E+00  0.12525980253E-10  0.17130000000E+03  0.17130000000E+03 0. -1.
       11    1    1    2    0    0  0.35924112272E-04 -0.63606259049E-03  0.13474798635E-02  0.15756870948E-02  0.51109989000E-03 0.  1.
     -623    1    1    2    0    0  0.10095789386E-02  0.25265255576E-03  0.27835306840E-03  0.17130000000E+03  0.17130000000E+03 0. -1.
      622    1    1    2    0    0 -0.10455030509E-02  0.38341003473E-03  0.39983741344E+01  0.39984243095E+01  0.20000000000E-01 0.  1.
</event>
<event>
 5   0  0.3603037E+08  0.9118800E+02  0.7818608E-02  0.1180000E+00
       11   -1    0    0    0    0  0.00000000000E+00  0.00000000000E+00  0.39999999673E+01  0.40000000000E+01  0.51109989000E-03 0.  1.
     -623   -1    0    0    0    0  0.00000000000E+00  0.00000000000E+00  0.12525980253E-10  0.17130000000E+03  0.17130000000E+03 0. -1.
       11    1    1    2    0    0 -0.70596855885E-03 -0.95408589627E-03  0.68586898879E+00  0.68587020614E+00  0.51109989000E-03 0.  1.
     -623    1    1    2    0    0  0.62031610927E-04 -0.11884336336E-02  0.62292195702E-04  0.17130000000E+03  0.17130000000E+03 0. -1.
      622    1    1    2    0    0  0.64393694792E-03  0.21425195299E-02  0.33140686864E+01  0.33141297897E+01  0.20000000000E-01 0.  1.
</event>
<event>
 5   0  0.3603037E+08  0.9118800E+02  0.7818608E-02  0.1180000E+00
       11   -1    0    0    0    0  0.00000000000E+00  0.00000000000E+00  0.39999999673E+01  0.40000000000E+01  0.51109989000E-03 0. -1.
     -623   -1    0    0    0    0  0.00000000000E+00  0.00000000000E+00  0.12525980253E-10  0.17130000000E+03  0.17130000000E+03 0. -1.
       11    1    1    2    0    0  0.20483799955E-02 -0.36439206928E-02  0.73359188628E+00  0.73360397413E+00  0.51109989000E-03 0. -1.
     -623    1    1    2    0    0  0.13795091809E-03  0.20784704891E-03  0.75824573831E-04  0.17130000000E+03  0.17130000000E+03 0. -1.
      622    1    1    2    0    0 -0.21863309136E-02  0.34360736439E-02  0.32663322565E+01  0.32663960257E+01  0.20000000000E-01 0. -1.
</event>
<event>
 5   0  0.3603037E+08  0.9118800E+02  0.7818608E-02  0.1180000E+00
       11   -1    0    0    0    0  0.00000000000E+00  0.00000000000E+00  0.39999999673E+01  0.40000000000E+01  0.51109989000E-03 0.  1.
     -623   -1    0    0    0    0  0.00000000000E+00  0.00000000000E+00  0.12525980253E-10  0.17130000000E+03  0.17130000000E+03 0.  1.
       11    1    1    2    0    0  0.68481915366E-03  0.42064384615E-03  0.72526162381E-02  0.73148877778E-02  0.51109989000E-03 0.  1.
     -623    1    1    2    0    0  0.13235762606E-02  0.61396227419E-03  0.11297625324E-03  0.17130000001E+03  0.17130000000E+03 0.  1.
      622    1    1    2    0    0 -0.20083954142E-02 -0.10346061203E-02  0.39926343749E+01  0.39926851060E+01  0.20000000000E-01 0.  1.
</event>
<event>
 5   0  0.3603037E+08  0.9118800E+02  0.7818608E-02  0.1180000E+00
       11   -1    0    0    0    0  0.00000000000E+00  0.00000000000E+00  0.39999999673E+01  0.40000000000E+01  0.51109989000E-03 0.  1.
     -623   -1    0    0    0    0  0.00000000000E+00  0.00000000000E+00  0.12525980253E-10  0.17130000000E+03  0.17130000000E+03 0. -1.
       11    1    1    2    0    0 -0.25841127020E-02 -0.15106749123E-01  0.92028340070E-01  0.93297203090E-01  0.51109989000E-03 0.  1.
     -623    1    1    2    0    0 -0.20737956779E-02  0.19529364268E-02  0.13449752842E-02  0.17130000003E+03  0.17130000000E+03 0. -1.
      622    1    1    2    0    0  0.46579083799E-02  0.13153812696E-01  0.39066266520E+01  0.39067027679E+01  0.20000000000E-01 0.  1.
</event>
<event>
 5   0  0.3603037E+08  0.9118800E+02  0.7818608E-02  0.1180000E+00
       11   -1    0    0    0    0  0.00000000000E+00  0.00000000000E+00  0.39999999673E+01  0.40000000000E+01  0.51109989000E-03 0.  1.
     -623   -1    0    0    0    0  0.00000000000E+00  0.00000000000E+00  0.12525980253E-10  0.17130000000E+03  0.17130000000E+03 0. -1.
       11    1    1    2    0    0  0.87917294976E-03  0.90736354568E-02  0.15858447934E+00  0.15884710294E+00  0.51109989000E-03 0.  1.
     -623    1    1    2    0    0 -0.47218300218E-02 -0.13991650879E-01  0.32036635799E-03  0.17130000064E+03  0.17130000000E+03 0. -1.
      622    1    1    2    0    0  0.38426570720E-02  0.49180154225E-02  0.38410951217E+01  0.38411522603E+01  0.20000000000E-01 0.  1.
</event>
<event>
 5   0  0.3603037E+08  0.9118800E+02  0.7818608E-02  0.1180000E+00
       11   -1    0    0    0    0  0.00000000000E+00  0.00000000000E+00  0.39999999673E+01  0.40000000000E+01  0.51109989000E-03 0. -1.
     -623   -1    0    0    0    0  0.00000000000E+00  0.00000000000E+00  0.12525980253E-10  0.17130000000E+03  0.17130000000E+03 0. -1.
       11    1    1    2    0    0  0.49494094080E-02 -0.39791639855E-02  0.49760319854E-01  0.50166533201E-01  0.51109989000E-03 0. -1.
     -623    1    1    2    0    0  0.10244385809E-02  0.17810115528E-03  0.46316640889E-03  0.17130000000E+03  0.17130000000E+03 0. -1.
      622    1    1    2    0    0 -0.59738479889E-02  0.38010628302E-02  0.39497764811E+01  0.39498334630E+01  0.20000000000E-01 0. -1.
</event>
<event>
 5   0  0.3603037E+08  0.9118800E+02  0.7818608E-02  0.1180000E+00
       11   -1    0    0    0    0  0.00000000000E+00  0.00000000000E+00  0.39999999673E+01  0.40000000000E+01  0.51109989000E-03 0.  1.
     -623   -1    0    0    0    0  0.00000000000E+00  0.00000000000E+00  0.12525980253E-10  0.17130000000E+03  0.17130000000E+03 0.  1.
       11    1    1    2    0    0 -0.41258948751E-03 -0.54969166921E-02  0.10506168743E+00  0.10520744132E+00  0.51109989000E-03 0.  1.
     -623    1    1    2    0    0 -0.21401829410E-03  0.27194899604E-02  0.19813477292E-03  0.17130000002E+03  0.17130000000E+03 0.  1.
      622    1    1    2    0    0  0.62660778161E-03  0.27774267317E-02  0.38947401452E+01  0.38947925368E+01  0.20000000000E-01 0.  1.
</event>
<event>
 5   0  0.3603037E+08  0.9118800E+02  0.7818608E-02  0.1180000E+00
       11   -1    0    0    0    0  0.00000000000E+00  0.00000000000E+00  0.39999999673E+01  0.40000000000E+01  0.51109989000E-03 0.  1.
     -623   -1    0    0    0    0  0.00000000000E+00  0.00000000000E+00  0.12525980253E-10  0.17130000000E+03  0.17130000000E+03 0. -1.
       11    1    1    2    0    0  0.77497135223E-03 -0.17998534539E-02  0.19865936196E+00  0.19866968407E+00  0.51109989000E-03 0.  1.
     -623    1    1    2    0    0  0.12270017849E-01  0.13010796921E-01  0.10275226286E-03  0.17130000093E+03  0.17130000000E+03 0. -1.
      622    1    1    2    0    0 -0.13044989202E-01 -0.11210943467E-01  0.38012378531E+01  0.38013293823E+01  0.20000000000E-01 0.  0.
</event>
<event>
 5   0  0.3603037E+08  0.9118800E+02  0.7818608E-02  0.1180000E+00
       11   -1    0    0    0    0  0.00000000000E+00  0.00000000000E+00  0.39999999673E+01  0.40000000000E+01  0.51109989000E-03 0. -1.
     -623   -1    0    0    0    0  0.00000000000E+00  0.00000000000E+00  0.12525980253E-10  0.17130000000E+03  0.17130000000E+03 0. -1.
       11    1    1    2    0    0  0.13879194060E-02 -0.37646970113E-02  0.93026119414E-02  0.10143918144E-01  0.51109989000E-03 0. -1.
     -623    1    1    2    0    0  0.14358467895E-03 -0.37847320291E-02  0.89888160935E-03  0.17130000004E+03  0.17130000000E+03 0. -1.
      622    1    1    2    0    0 -0.15315040850E-02  0.75494290404E-02  0.39897984738E+01  0.39898560376E+01  0.20000000000E-01 0. -1.
</event>
<event>
 5   0  0.3603037E+08  0.9118800E+02  0.7818608E-02  0.1180000E+00
       11   -1    0    0    0    0  0.00000000000E+00  0.00000000000E+00  0.39999999673E+01  0.40000000000E+01  0.51109989000E-03 0.  1.
     -623   -1    0    0    0    0  0.00000000000E+00  0.00000000000E+00  0.12525980253E-10  0.17130000000E+03  0.17130000000E+03 0. -1.
       11    1    1    2    0    0 -0.28727521727E-03  0.12362830696E-02  0.89144614294E-01  0.89155114282E-01  0.51109989000E-03 0.  1.
     -623    1    1    2    0    0 -0.92142960685E-04  0.23889529328E-03  0.61904358794E-04  0.17130000000E+03  0.17130000000E+03 0. -1.
      622    1    1    2    0    0  0.37941817795E-03 -0.14751783629E-02  0.39107934487E+01  0.39108448855E+01  0.20000000000E-01 0.  1.
</event>
<event>
 5   0  0.3603037E+08  0.9118800E+02  0.7818608E-02  0.1180000E+00
       11   -1    0    0    0    0  0.00000000000E+00  0.00000000000E+00  0.39999999673E+01  0.40000000000E+01  0.51109989000E-03 0. -1.
     -623   -1    0    0    0    0  0.00000000000E+00  0.00000000000E+00  0.12525980253E-10  0.17130000000E+03  0.17130000000E+03 0. -1.
       11    1    1    2    0    0 -0.19554338855E-03  0.95504159077E-03  0.87824388465E-01  0.87831285833E-01  0.51109989000E-03 0. -1.
     -623    1    1    2    0    0  0.80136901682E-04  0.15838945434E-03  0.58147852523E-04  0.17130000000E+03  0.17130000000E+03 0. -1.
      622    1    1    2    0    0  0.11540648687E-03 -0.11134310451E-02  0.39121174310E+01  0.39121687141E+01  0.20000000000E-01 0. -1.
</event>
<event>
 5   0  0.3603037E+08  0.9118800E+02  0.7818608E-02  0.1180000E+00
       11   -1    0    0    0    0  0.00000000000E+00  0.00000000000E+00  0.39999999673E+01  0.40000000000E+01  0.51109989000E-03 0. -1.
     -623   -1    0    0    0    0  0.00000000000E+00  0.00000000000E+00  0.12525980253E-10  0.17130000000E+03  0.17130000000E+03 0. -1.
       11    1    1    2    0    0 -0.17097576896E-01  0.57398250614E-02  0.60910816113E+00  0.60937532434E+00  0.51109989000E-03 0. -1.
     -623    1    1    2    0    0 -0.70324080456E-02 -0.45200575899E-01  0.64773578990E-03  0.17130000611E+03  0.17130000000E+03 0. -1.
      622    1    1    2    0    0  0.24129984941E-01  0.39460750838E-01  0.33902440704E+01  0.33906185666E+01  0.20000000000E-01 0. -1.
</event>
<event>
 5   0  0.3603037E+08  0.9118800E+02  0.7818608E-02  0.1180000E+00
       11   -1    0    0    0    0  0.00000000000E+00  0.00000000000E+00  0.39999999673E+01  0.40000000000E+01  0.51109989000E-03 0. -1.
     -623   -1    0    0    0    0  0.00000000000E+00  0.00000000000E+00  0.12525980253E-10  0.17130000000E+03  0.17130000000E+03 0. -1.
       11    1    1    2    0    0  0.11019025708E-01 -0.68935947333E-02  0.18027305634E+00  0.18074174016E+00  0.51109989000E-03 0. -1.
     -623    1    1    2    0    0 -0.34550825842E-02 -0.58677211531E-04  0.53487141590E-03  0.17130000004E+03  0.17130000000E+03 0. -1.
      622    1    1    2    0    0 -0.75639431234E-02  0.69522719449E-02  0.38191920396E+01  0.38192582241E+01  0.20000000000E-01 0. -1.
</event>
<event>
 5   0  0.3603037E+08  0.9118800E+02  0.7818608E-02  0.1180000E+00
       11   -1    0    0    0    0  0.00000000000E+00  0.00000000000E+00  0.39999999673E+01  0.40000000000E+01  0.51109989000E-03 0. -1.
     -623   -1    0    0    0    0  0.00000000000E+00  0.00000000000E+00  0.12525980253E-10  0.17130000000E+03  0.17130000000E+03 0.  1.
       11    1    1    2    0    0 -0.44221345857E-03 -0.65676846169E-03  0.43577524532E+00  0.43577626433E+00  0.51109989000E-03 0. -1.
     -623    1    1    2    0    0 -0.86452087738E-03 -0.36058114119E-03  0.57487322167E-04  0.17130000000E+03  0.17130000000E+03 0.  1.
      622    1    1    2    0    0  0.13067343360E-02  0.10173496029E-02  0.35641672347E+01  0.35642237331E+01  0.20000000000E-01 0. -1.
</event>
<event>
 5   0  0.3603037E+08  0.9118800E+02  0.7818608E-02  0.1180000E+00
       11   -1    0    0    0    0  0.00000000000E+00  0.00000000000E+00  0.39999999673E+01  0.40000000000E+01  0.51109989000E-03 0. -1.
     -623   -1    0    0    0    0  0.00000000000E+00  0.00000000000E+00  0.12525980253E-10  0.17130000000E+03  0.17130000000E+03 0.  1.
       11    1    1    2    0    0 -0.47462537609E-03  0.18501913789E-02  0.83552873673E-01  0.83576266960E-01  0.51109989000E-03 0. -1.
     -623    1    1    2    0    0 -0.11671846955E-03  0.15133913466E-03  0.74984203157E-04  0.17130000000E+03  0.17130000000E+03 0.  1.
      622    1    1    2    0    0  0.59134384564E-03 -0.20015305136E-02  0.39163721095E+01  0.39164237329E+01  0.20000000000E-01 0. -1.
</event>
<event>
 5   0  0.3603037E+08  0.9118800E+02  0.7818608E-02  0.1180000E+00
       11   -1    0    0    0    0  0.00000000000E+00  0.00000000000E+00  0.39999999673E+01  0.40000000000E+01  0.51109989000E-03 0.  1.
     -623   -1    0    0    0    0  0.00000000000E+00  0.00000000000E+00  0.12525980253E-10  0.17130000000E+03  0.17130000000E+03 0.  1.
       11    1    1    2    0    0 -0.19450116886E-01  0.17651044757E-01  0.20669224430E+00  0.20835501314E+00  0.51109989000E-03 0.  1.
     -623    1    1    2    0    0  0.17973664894E-01 -0.22514964755E-02  0.17480110286E-02  0.17130000097E+03  0.17130000000E+03 0.  1.
      622    1    1    2    0    0  0.14764519928E-02 -0.15399548282E-01  0.37915597120E+01  0.37916440202E+01  0.20000000000E-01 0.  1.
</event>
<event>
 5   0  0.3603037E+08  0.9118800E+02  0.7818608E-02  0.1180000E+00
       11   -1    0    0    0    0  0.00000000000E+00  0.00000000000E+00  0.39999999673E+01  0.40000000000E+01  0.51109989000E-03 0.  1.
     -623   -1    0    0    0    0  0.00000000000E+00  0.00000000000E+00  0.12525980253E-10  0.17130000000E+03  0.17130000000E+03 0. -1.
       11    1    1    2    0    0 -0.34987275465E-02  0.24352249357E-02  0.32946106376E+00  0.32948903650E+00  0.51109989000E-03 0.  1.
     -623    1    1    2    0    0  0.31786603578E-02  0.95823355453E-03  0.84043655899E-04  0.17130000003E+03  0.17130000000E+03 0. -1.
      622    1    1    2    0    0  0.32006718875E-03 -0.33934584902E-02  0.36704548599E+01  0.36705109313E+01  0.20000000000E-01 0.  1.
</event>
<event>
 5   0  0.3603037E+08  0.9118800E+02  0.7818608E-02  0.1180000E+00
       11   -1    0    0    0    0  0.00000000000E+00  0.00000000000E+00  0.39999999673E+01  0.40000000000E+01  0.51109989000E-03 0. -1.
     -623   -1    0    0    0    0  0.00000000000E+00  0.00000000000E+00  0.12525980253E-10  0.17130000000E+03  0.17130000000E+03 0. -1.
       11    1    1    2    0    0 -0.13770346538E-01  0.26118410218E-02  0.24660122409E+01  0.24660521238E+01  0.51109989000E-03 0. -1.
     -623    1    1    2    0    0 -0.40990210626E-02  0.18815352545E-02  0.28097512691E-03  0.17130000006E+03  0.17130000000E+03 0. -1.
      622    1    1    2    0    0  0.17869367601E-01 -0.44933762763E-02  0.15337067514E+01  0.15339478166E+01  0.20000000000E-01 0.  0.
</event>
<event>
 5   0  0.3603037E+08  0.9118800E+02  0.7818608E-02  0.1180000E+00
       11   -1    0    0    0    0  0.00000000000E+00  0.00000000000E+00  0.39999999673E+01  0.40000000000E+01  0.51109989000E-03 0. -1.
     -623   -1    0    0    0    0  0.00000000000E+00  0.00000000000E+00  0.12525980253E-10  0.17130000000E+03  0.17130000000E+03 0.  1.
       11    1    1    2    0    0  0.26503905024E-02 -0.11125234983E-01  0.29204475468E+01  0.29204699845E+01  0.51109989000E-03 0. -1.
     -623    1    1    2    0    0 -0.61354031275E-03 -0.69180831225E-05  0.26701901279E-03  0.17130000000E+03  0.17130000000E+03 0.  1.
      622    1    1    2    0    0 -0.20368501896E-02  0.11132153066E-01  0.10792854015E+01  0.10795300142E+01  0.20000000000E-01 0.  1.
</event>
<event>
 5   0  0.3603037E+08  0.9118800E+02  0.7818608E-02  0.1180000E+00
       11   -1    0    0    0    0  0.00000000000E+00  0.00000000000E+00  0.39999999673E+01  0.40000000000E+01  0.51109989000E-03 0. -1.
     -623   -1    0    0    0    0  0.00000000000E+00  0.00000000000E+00  0.12525980253E-10  0.17130000000E+03  0.17130000000E+03 0. -1.
       11    1    1    2    0    0  0.12854815495E-02 -0.11823034299E-02  0.87405319532E-02  0.89279574474E-02  0.51109989000E-03 0. -1.
     -623    1    1    2    0    0 -0.20185117171E-02  0.13922067283E-02  0.23759557037E-03  0.17130000002E+03  0.17130000000E+03 0. -1.
      622    1    1    2    0    0  0.73303016751E-03 -0.20990329839E-03  0.39910218398E+01  0.39910720248E+01  0.20000000000E-01 0. -1.
</event>
<event>
 5   0  0.3603037E+08  0.9118800E+02  0.7818608E-02  0.1180000E+00
       11   -1    0    0    0    0  0.00000000000E+00  0.00000000000E+00  0.39999999673E+01  0.40000000000E+01  0.51109989000E-03 0.  1.
     -623   -1    0    0    0    0  0.00000000000E+00  0.00000000000E+00  0.12525980253E-10  0.17130000000E+03  0.17130000000E+03 0.  1.
       11    1    1    2    0    0 -0.56985865236E-02 -0.33528971530E-02  0.14305199142E+00  0.14320561888E+00  0.51109989000E-03 0.  1.
     -623    1    1    2    0    0 -0.84590223173E-03 -0.43012302641E-03  0.21286247952E-03  0.17130000000E+03  0.17130000000E+03 0.  1.
      622    1    1    2    0    0  0.65444887554E-02  0.37830201794E-02  0.38567351135E+01  0.38567943784E+01  0.20000000000E-01 0.  1.
</event>
<event>
 5   0  0.3603037E+08  0.9118800E+02  0.7818608E-02  0.1180000E+00
       11   -1    0    0    0    0  0.00000000000E+00  0.00000000000E+00  0.39999999673E+01  0.40000000000E+01  0.51109989000E-03 0.  1.
     -623   -1    0    0    0    0  0.00000000000E+00  0.00000000000E+00  0.12525980253E-10  0.17130000000E+03  0.17130000000E+03 0.  1.
       11    1    1    2    0    0  0.84064694667E-02  0.84535587063E-04  0.61134874992E+00  0.61140676404E+00  0.51109989000E-03 0.  1.
     -623    1    1    2    0    0  0.26236777542E-03  0.12340586911E-02  0.12835349279E-03  0.17130000000E+03  0.17130000000E+03 0.  1.
      622    1    1    2    0    0 -0.86688372422E-02 -0.13185942782E-02  0.33885228640E+01  0.33885932313E+01  0.20000000000E-01 0.  1.
</event>
<event>
 5   0  0.3603037E+08  0.9118800E+02  0.7818608E-02  0.1180000E+00
       11   -1    0    0    0    0  0.00000000000E+00  0.00000000000E+00  0.39999999673E+01  0.40000000000E+01  0.51109989000E-03 0. -1.
     -623   -1    0    0    0    0  0.00000000000E+00  0.00000000000E+00  0.12525980253E-10  0.17130000000E+03  0.17130000000E+03 0. -1.
       11    1    1    2    0    0  0.31383203920E-02 -0.82288432078E-03  0.41927985730E-01  0.42056431169E-01  0.51109989000E-03 0. -1.
     -623    1    1    2    0    0 -0.55382757276E-02  0.24609666441E-03  0.17980387458E-03  0.17130000009E+03  0.17130000000E+03 0. -1.
      622    1    1    2    0    0  0.23999553356E-02  0.57678765638E-03  0.39578921778E+01  0.39579434790E+01  0.20000000000E-01 0. -1.
</event>
<event>
 5   0  0.3603037E+08  0.9118800E+02  0.7818608E-02  0.1180000E+00
       11   -1    0    0    0    0  0.00000000000E+00  0.00000000000E+00  0.39999999673E+01  0.40000000000E+01  0.51109989000E-03 0. -1.
     -623   -1    0    0    0    0  0.00000000000E+00  0.00000000000E+00  0.12525980253E-10  0.17130000000E+03  0.17130000000E+03 0.  1.
       11    1    1    2    0    0  0.15582948231E-02 -0.50547664090E-03  0.83761489171E-02  0.85501392135E-02  0.51109989000E-03 0. -1.
     -623    1    1    2    0    0 -0.58756171557E-03 -0.48669044771E-03  0.22430828107E-03  0.17130000000E+03  0.17130000000E+03 0.  1.
      622    1    1    2    0    0 -0.97073310753E-03  0.99216708862E-03  0.39913995102E+01  0.39914498589E+01  0.20000000000E-01 0. -1.
</event>
<event>
 5   0  0.3603037E+08  0.9118800E+02  0.7818608E-02  0.1180000E+00
       11   -1    0    0    0    0  0.00000000000E+00  0.00000000000E+00  0.39999999673E+01  0.40000000000E+01  0.51109989000E-03 0.  1.
     -623   -1    0    0    0    0  0.00000000000E+00  0.00000000000E+00  0.12525980253E-10  0.17130000000E+03  0.17130000000E+03 0.  1.
       11    1    1    2    0    0 -0.44401737490E-03 -0.14013639615E-02  0.21580009641E-01  0.21636058078E-01  0.51109989000E-03 0.  1.
     -623    1    1    2    0    0 -0.95366865149E-04 -0.86052400879E-04  0.10660274111E-03  0.17130000000E+03  0.17130000000E+03 0.  1.
      622    1    1    2    0    0  0.53938424005E-03  0.14874163624E-02  0.39783133550E+01  0.39783639418E+01  0.20000000000E-01 0.  1.
</event>
<event>
 5   0  0.3603037E+08  0.9118800E+02  0.7818608E-02  0.1180000E+00
       11   -1    0    0    0    0  0.00000000000E+00  0.00000000000E+00  0.39999999673E+01  0.40000000000E+01  0.51109989000E-03 0. -1.
     -623   -1    0    0    0    0  0.00000000000E+00  0.00000000000E+00  0.12525980253E-10  0.17130000000E+03  0.17130000000E+03 0.  1.
       11    1    1    2    0    0  0.10858635166E-02 -0.10855502513E-02  0.75855781081E-01  0.75873040421E-01  0.51109989000E-03 0. -1.
     -623    1    1    2    0    0 -0.43597289638E-03  0.23485898612E-02  0.68467532997E-04  0.17130000002E+03  0.17130000000E+03 0.  1.
      622    1    1    2    0    0 -0.64989062026E-03 -0.12630396099E-02  0.39240757187E+01  0.39241269429E+01  0.20000000000E-01 0. -1.
</event>
<event>
 5   0  0.3603037E+08  0.9118800E+02  0.7818608E-02  0.1180000E+00
       11   -1    0    0    0    0  0.00000000000E+00  0.00000000000E+00  0.39999999673E+01  0.40000000000E+01  0.51109989000E-03 0.  1.
     -623   -1    0    0    0    0  0.00000000000E+00  0.00000000000E+00  0.12525980253E-10  0.17130000000E+03  0.17130000000E+03 0.  1.
       11    1    1    2    0    0 -0.30324778670E-02 -0.57099696765E-03  0.50121599123E+00  0.50122575058E+00  0.51109989000E-03 0.  1.
     -623    1    1    2    0    0 -0.40156115038E-03  0.46779699563E-03  0.68577979283E-04  0.17130000000E+03  0.17130000000E+03 0.  1.
      622    1    1    2    0    0  0.34340390174E-02  0.10319997202E-03  0.34987153982E+01  0.34987742483E+01  0.20000000000E-01 0. -1.
</event>
<event>
 5   0  0.3603037E+08  0.9118800E+02  0.7818608E-02  0.1180000E+00
       11   -1    0    0    0    0  0.00000000000E+00  0.00000000000E+00  0.39999999673E+01  0.40000000000E+01  0.51109989000E-03 0. -1.
     -623   -1    0    0    0    0  0.00000000000E+00  0.00000000000E+00  0.12525980253E-10  0.17130000000E+03  0.17130000000E+03 0. -1.
       11    1    1    2    0    0  0.34706715927E-03  0.93794141526E-03  0.12317839251E+01  0.12317844372E+01  0.51109989000E-03 0. -1.
     -623    1    1    2    0    0 -0.44364785194E-03 -0.23336193495E-02  0.73099053988E-04  0.17130000002E+03  0.17130000000E+03 0. -1.
      622    1    1    2    0    0  0.96580692668E-04  0.13956779342E-02  0.27681429432E+01  0.27682155464E+01  0.20000000000E-01 0. -1.
</event>
<event>
 5   0  0.3603037E+08  0.9118800E+02  0.7818608E-02  0.1180000E+00
       11   -1    0    0    0    0  0.00000000000E+00  0.00000000000E+00  0.39999999673E+01  0.40000000000E+01  0.51109989000E-03 0.  1.
     -623   -1    0    0    0    0  0.00000000000E+00  0.00000000000E+00  0.12525980253E-10  0.17130000000E+03  0.17130000000E+03 0. -1.
       11    1    1    2    0    0  0.78017086222E-04  0.40872926879E-03  0.72532376166E-02  0.72831189629E-02  0.51109989000E-03 0.  1.
     -623    1    1    2    0    0  0.10252908287E-02 -0.10851522946E-02  0.80156488898E-04  0.17130000001E+03  0.17130000000E+03 0. -1.
      622    1    1    2    0    0 -0.11033079149E-02  0.67642302585E-03  0.39926665733E+01  0.39927168745E+01  0.20000000000E-01 0.  1.
</event>
<event>
 5   0  0.3603037E+08  0.9118800E+02  0.7818608E-02  0.1180000E+00
       11   -1    0    0    0    0  0.00000000000E+00  0.00000000000E+00  0.39999999673E+01  0.40000000000E+01  0.51109989000E-03 0.  1.
     -623   -1    0    0    0    0  0.00000000000E+00  0.00000000000E+00  0.12525980253E-10  0.17130000000E+03  0.17130000000E+03 0.  1.
       11    1    1    2    0    0  0.24732260821E-02  0.53438858695E-02  0.68558751575E-01  0.68813062736E-01  0.51109989000E-03 0.  1.
     -623    1    1    2    0    0 -0.78520476352E-02 -0.92585559545E-02  0.31121348355E-03  0.17130000043E+03  0.17130000000E+03 0.  1.
      622    1    1    2    0    0  0.53788215530E-02  0.39146700850E-02  0.39311300023E+01  0.39311865068E+01  0.20000000000E-01 0.  1.
</event>
<event>
 5   0  0.3603037E+08  0.9118800E+02  0.7818608E-02  0.1180000E+00
       11   -1    0    0    0    0  0.00000000000E+00  0.00000000000E+00  0.39999999673E+01  0.40000000000E+01  0.51109989000E-03 0.  1.
     -623   -1    0    0    0    0  0.00000000000E+00  0.00000000000E+00  0.12525980253E-10  0.17130000000E+03  0.17130000000E+03 0.  1.
       11    1    1    2    0    0 -0.17578543686E-01 -0.12663909940E-01  0.14870493491E+01  0.14872072511E+01  0.51109989000E-03 0.  1.
     -623    1    1    2    0    0  0.65560719301E-03  0.19149906528E-03  0.32540868994E-03  0.17130000000E+03  0.17130000000E+03 0.  1.
      622    1    1    2    0    0  0.16922936493E-01  0.12472410874E-01  0.25126252096E+01  0.25127927472E+01  0.20000000000E-01 0.  1.
</event>
<event>
 5   0  0.3603037E+08  0.9118800E+02  0.7818608E-02  0.1180000E+00
       11   -1    0    0    0    0  0.00000000000E+00  0.00000000000E+00  0.39999999673E+01  0.40000000000E+01  0.51109989000E-03 0. -1.
     -623   -1    0    0    0    0  0.00000000000E+00  0.00000000000E+00  0.12525980253E-10  0.17130000000E+03  0.17130000000E+03 0. -1.
       11    1    1    2    0    0  0.93404303730E-03  0.36443582906E-02  0.11809144136E+00  0.11815245884E+00  0.51109989000E-03 0. -1.
     -623    1    1    2    0    0 -0.59926929184E-03 -0.10001504021E-03  0.11414069751E-03  0.17130000000E+03  0.17130000000E+03 0. -1.
      622    1    1    2    0    0 -0.33477374546E-03 -0.35443432504E-02  0.38817943853E+01  0.38818475400E+01  0.20000000000E-01 0. -1.
</event>
<event>
 5   0  0.3603037E+08  0.9118800E+02  0.7818608E-02  0.1180000E+00
       11   -1    0    0    0    0  0.00000000000E+00  0.00000000000E+00  0.39999999673E+01  0.40000000000E+01  0.51109989000E-03 0.  1.
     -623   -1    0    0    0    0  0.00000000000E+00  0.00000000000E+00  0.12525980253E-10  0.17130000000E+03  0.17130000000E+03 0. -1.
       11    1    1    2    0    0  0.18595047625E-01 -0.87616646544E-02  0.30680278452E+01  0.30680967492E+01  0.51109989000E-03 0.  1.
     -623    1    1    2    0    0  0.19163327590E-02  0.53718879281E-03  0.54564257319E-03  0.17130000001E+03  0.17130000000E+03 0. -1.
      622    1    1    2    0    0 -0.20511380384E-01  0.82244758616E-02  0.93142647960E+00  0.93190323834E+00  0.20000000000E-01 0.  1.
</event>
<event>
 5   0  0.3603037E+08  0.9118800E+02  0.7818608E-02  0.1180000E+00
       11   -1    0    0    0    0  0.00000000000E+00  0.00000000000E+00  0.39999999673E+01  0.40000000000E+01  0.51109989000E-03 0. -1.
     -623   -1    0    0    0    0  0.00000000000E+00  0.00000000000E+00  0.12525980253E-10  0.17130000000E+03  0.17130000000E+03 0. -1.
       11    1    1    2    0    0 -0.11838918514E-02 -0.70182467379E-03  0.17582255271E-01  0.17643442955E-01  0.51109989000E-03 0. -1.
     -623    1    1    2    0    0  0.18135687678E-02 -0.25806626587E-03  0.11155217956E-03  0.17130000001E+03  0.17130000000E+03 0. -1.
      622    1    1    2    0    0 -0.62967691641E-03  0.95989093967E-03  0.39823061599E+01  0.39823565472E+01  0.20000000000E-01 0. -1.
</event>
<event>
 5   0  0.3603037E+08  0.9118800E+02  0.7818608E-02  0.1180000E+00
       11   -1    0    0    0    0  0.00000000000E+00  0.00000000000E+00  0.39999999673E+01  0.40000000000E+01  0.51109989000E-03 0.  1.
     -623   -1    0    0    0    0  0.00000000000E+00  0.00000000000E+00  0.12525980253E-10  0.17130000000E+03  0.17130000000E+03 0.  1.
       11    1    1    2    0    0 -0.22881091899E-01  0.11536533560E-01  0.68023546020E+00  0.68071813440E+00  0.51109989000E-03 0.  1.
     -623    1    1    2    0    0  0.75144635803E-02 -0.86145716218E-02  0.58013543958E-03  0.17130000038E+03  0.17130000000E+03 0.  1.
      622    1    1    2    0    0  0.15366628319E-01 -0.29219619383E-02  0.33191843717E+01  0.33192814832E+01  0.20000000000E-01 0.  1.
</event>
<event>
 5   0  0.3603037E+08  0.9118800E+02  0.7818608E-02  0.1180000E+00
       11   -1    0    0    0    0  0.00000000000E+00  0.00000000000E+00  0.39999999673E+01  0.40000000000E+01  0.51109989000E-03 0.  1.
     -623   -1    0    0    0    0  0.00000000000E+00  0.00000000000E+00  0.12525980253E-10  0.17130000000E+03  0.17130000000E+03 0.  1.
       11    1    1    2    0    0 -0.33690213145E-02  0.25359927589E-02  0.16805328945E+00  0.16810696261E+00  0.51109989000E-03 0.  1.
     -623    1    1    2    0    0  0.29821709177E-05 -0.17513368142E-03  0.10804024343E-03  0.17130000000E+03  0.17130000000E+03 0.  1.
      622    1    1    2    0    0  0.33660391435E-02 -0.23608590775E-02  0.38318386377E+01  0.38318930373E+01  0.20000000000E-01 0.  1.
</event>
<event>
 5   0  0.3603037E+08  0.9118800E+02  0.7818608E-02  0.1180000E+00
       11   -1    0    0    0    0  0.00000000000E+00  0.00000000000E+00  0.39999999673E+01  0.40000000000E+01  0.51109989000E-03 0.  1.
     -623   -1    0    0    0    0  0.00000000000E+00  0.00000000000E+00  0.12525980253E-10  0.17130000000E+03  0.17130000000E+03 0.  1.
       11    1    1    2    0    0  0.88909976140E-02 -0.73562361080E-02  0.49672330341E+00  0.49685759069E+00  0.51109989000E-03 0.  1.
     -623    1    1    2    0    0 -0.13768101961E-02 -0.49359253117E-03  0.20820722587E-03  0.17130000001E+03  0.17130000000E+03 0.  1.
      622    1    1    2    0    0 -0.75141874179E-02  0.78498286392E-02  0.35030684567E+01  0.35031424029E+01  0.20000000000E-01 0.  1.
</event>
<event>
 5   0  0.3603037E+08  0.9118800E+02  0.7818608E-02  0.1180000E+00
       11   -1    0    0    0    0  0.00000000000E+00  0.00000000000E+00  0.39999999673E+01  0.40000000000E+01  0.51109989000E-03 0.  1.
     -623   -1    0    0    0    0  0.00000000000E+00  0.00000000000E+00  0.12525980253E-10  0.17130000000E+03  0.17130000000E+03 0.  1.
       11    1    1    2    0    0 -0.16962898145E-02 -0.32912126184E-02  0.60628641866E-01  0.60743747953E-01  0.51109989000E-03 0.  1.
     -623    1    1    2    0    0  0.22101515215E-02 -0.68486043369E-03  0.16790064816E-03  0.17130000002E+03  0.17130000000E+03 0.  1.
      622    1    1    2    0    0 -0.51386170697E-03  0.39760730521E-02  0.39392034248E+01  0.39392562363E+01  0.20000000000E-01 0.  1.
</event>
<event>
 5   0  0.3603037E+08  0.9118800E+02  0.7818608E-02  0.1180000E+00
       11   -1    0    0    0    0  0.00000000000E+00  0.00000000000E+00  0.39999999673E+01  0.40000000000E+01  0.51109989000E-03 0. -1.
     -623   -1    0    0    0    0  0.00000000000E+00  0.00000000000E+00  0.12525980253E-10  0.17130000000E+03  0.17130000000E+03 0. -1.
       11    1    1    2    0    0  0.16398920143E-02 -0.30117805190E-02  0.63446461047E+00  0.63447408397E+00  0.51109989000E-03 0. -1.
     -623    1    1    2    0    0 -0.10116627075E-02 -0.10847413550E-02  0.71425722877E-04  0.17130000001E+03  0.17130000000E+03 0. -1.
      622    1    1    2    0    0 -0.62822930677E-03  0.40965218740E-02  0.33654639312E+01  0.33655259096E+01  0.20000000000E-01 0. -1.
</event>
<event>
 5   0  0.3603037E+08  0.9118800E+02  0.7818608E-02  0.1180000E+00
       11   -1    0    0    0    0  0.00000000000E+00  0.00000000000E+00  0.39999999673E+01  0.40000000000E+01  0.51109989000E-03 0. -1.
     -623   -1    0    0    0    0  0.00000000000E+00  0.00000000000E+00  0.12525980253E-10  0.17130000000E+03  0.17130000000E+03 0. -1.
       11    1    1    2    0    0 -0.39835812285E-02 -0.49314520188E-02  0.21774495566E+00  0.21783781828E+00  0.51109989000E-03 0. -1.
     -623    1    1    2    0    0  0.42814816398E-03 -0.32859093842E-03  0.15104000415E-03  0.17130000000E+03  0.17130000000E+03 0. -1.
      622    1    1    2    0    0  0.35554330646E-02  0.52600429573E-02  0.37821039717E+01  0.37821621808E+01  0.20000000000E-01 0. -1.
</event>
<event>
 5   0  0.3603037E+08  0.9118800E+02  0.7818608E-02  0.1180000E+00
       11   -1    0    0    0    0  0.00000000000E+00  0.00000000000E+00  0.39999999673E+01  0.40000000000E+01  0.51109989000E-03 0. -1.
     -623   -1    0    0    0    0  0.00000000000E+00  0.00000000000E+00  0.12525980253E-10  0.17130000000E+03  0.17130000000E+03 0. -1.
       11    1    1    2    0    0  0.99699361813E-03  0.73242468982E-03  0.23351557957E-01  0.23389889346E-01  0.51109989000E-03 0. -1.
     -623    1    1    2    0    0  0.62428531820E-04 -0.13336834205E-03  0.88779493458E-04  0.17130000000E+03  0.17130000000E+03 0. -1.
      622    1    1    2    0    0 -0.10594221500E-02 -0.59905634777E-03  0.39765596299E+01  0.39766101106E+01  0.20000000000E-01 0. -1.
</event>
<event>
 5   0  0.3603037E+08  0.9118800E+02  0.7818608E-02  0.1180000E+00
       11   -1    0    0    0    0  0.00000000000E+00  0.00000000000E+00  0.39999999673E+01  0.40000000000E+01  0.51109989000E-03 0.  1.
     -623   -1    0    0    0    0  0.00000000000E+00  0.00000000000E+00  0.12525980253E-10  0.17130000000E+03  0.17130000000E+03 0.  1.
       11    1    1    2    0    0 -0.17707153601E-02  0.43980921264E-02  0.34216929044E+00  0.34220251780E+00  0.51109989000E-03 0.  1.
     -623    1    1    2    0    0  0.30236265013E-02 -0.18292052313E-02  0.89025983995E-04  0.17130000004E+03  0.17130000000E+03 0.  1.
      622    1    1    2    0    0 -0.12529111412E-02 -0.25688868951E-02  0.36577416509E+01  0.36577974457E+01  0.20000000000E-01 0.  1.
</event>
<event>
 5   0  0.3603037E+08  0.9118800E+02  0.7818608E-02  0.1180000E+00
       11   -1    0    0    0    0  0.00000000000E+00  0.00000000000E+00  0.39999999673E+01  0.40000000000E+01  0.51109989000E-03 0. -1.
     -623   -1    0    0    0    0  0.00000000000E+00  0.00000000000E+00  0.12525980253E-10  0.17130000000E+03  0.17130000000E+03 0.  1.
       11    1    1    2    0    0 -0.78366651927E-03 -0.10056064923E-02  0.83262994169E-01  0.83274322553E-01  0.51109989000E-03 0. -1.
     -623    1    1    2    0    0 -0.77110757657E-04 -0.13933344016E-03  0.62621156806E-04  0.17130000000E+03  0.17130000000E+03 0.  1.
      622    1    1    2    0    0  0.86077727692E-03  0.11449399325E-02  0.39166743520E+01  0.39167256774E+01  0.20000000000E-01 0. -1.
</event>
<event>
 5   0  0.3603037E+08  0.9118800E+02  0.7818608E-02  0.1180000E+00
       11   -1    0    0    0    0  0.00000000000E+00  0.00000000000E+00  0.39999999673E+01  0.40000000000E+01  0.51109989000E-03 0. -1.
     -623   -1    0    0    0    0  0.00000000000E+00  0.00000000000E+00  0.12525980253E-10  0.17130000000E+03  0.17130000000E+03 0.  1.
       11    1    1    2    0    0  0.35184258396E-01  0.18792545120E-01  0.25998988375E+01  0.26002048608E+01  0.51109989000E-03 0. -1.
     -623    1    1    2    0    0 -0.33226851265E-01 -0.11914109026E-01  0.47078438496E-03  0.17130000364E+03  0.17130000000E+03 0.  1.
      622    1    1    2    0    0 -0.19574071309E-02 -0.68784360932E-02  0.13996303455E+01  0.13997915018E+01  0.20000000000E-01 0.  0.
</event>
<event>
 5   0  0.3603037E+08  0.9118800E+02  0.7818608E-02  0.1180000E+00
       11   -1    0    0    0    0  0.00000000000E+00  0.00000000000E+00  0.39999999673E+01  0.40000000000E+01  0.51109989000E-03 0.  1.
     -623   -1    0    0    0    0  0.00000000000E+00  0.00000000000E+00  0.12525980253E-10  0.17130000000E+03  0.17130000000E+03 0.  1.
       11    1    1    2    0    0  0.25695882070E-02 -0.37124265331E-02  0.52345026641E+00  0.52346998722E+00  0.51109989000E-03 0.  1.
     -623    1    1    2    0    0  0.26484683388E-02 -0.40373586588E-03  0.83591083461E-04  0.17130000002E+03  0.17130000000E+03 0.  1.
      622    1    1    2    0    0 -0.52180565459E-02  0.41161623989E-02  0.34764661099E+01  0.34765299918E+01  0.20000000000E-01 0.  1.
</event>
<event>
 5   0  0.3603037E+08  0.9118800E+02  0.7818608E-02  0.1180000E+00
       11   -1    0    0    0    0  0.00000000000E+00  0.00000000000E+00  0.39999999673E+01  0.40000000000E+01  0.51109989000E-03 0. -1.
     -623   -1    0    0    0    0  0.00000000000E+00  0.00000000000E+00  0.12525980253E-10  0.17130000000E+03  0.17130000000E+03 0. -1.
       11    1    1    2    0    0  0.11576945364E-02  0.20304377303E-02  0.10976369589E-01  0.11234092968E-01  0.51109989000E-03 0.  1.
     -623    1    1    2    0    0 -0.55509603033E-03 -0.14752399378E-02  0.30792356275E-03  0.17130000001E+03  0.17130000000E+03 0. -1.
      622    1    1    2    0    0 -0.60259850611E-03 -0.55519779254E-03  0.39887156742E+01  0.39887658995E+01  0.20000000000E-01 0. -1.
</event>
<event>
 5   0  0.3603037E+08  0.9118800E+02  0.7818608E-02  0.1180000E+00
       11   -1    0    0    0    0  0.00000000000E+00  0.00000000000E+00  0.39999999673E+01  0.40000000000E+01  0.51109989000E-03 0. -1.
     -623   -1    0    0    0    0  0.00000000000E+00  0.00000000000E+00  0.12525980253E-10  0.17130000000E+03  0.17130000000E+03 0. -1.
       11    1    1    2    0    0 -0.31030813530E-02  0.21176520037E-01  0.21139456645E+01  0.21140540692E+01  0.51109989000E-03 0. -1.
     -623    1    1    2    0    0  0.24932176091E-02 -0.28431883824E-01  0.23085605365E-03  0.17130000238E+03  0.17130000000E+03 0. -1.
      622    1    1    2    0    0  0.60986374389E-03  0.72553637868E-02  0.18858234468E+01  0.18859435529E+01  0.20000000000E-01 0. -1.
</event>
<event>
 5   0  0.3603037E+08  0.9118800E+02  0.7818608E-02  0.1180000E+00
       11   -1    0    0    0    0  0.00000000000E+00  0.00000000000E+00  0.39999999673E+01  0.40000000000E+01  0.51109989000E-03 0. -1.
     -623   -1    0    0    0    0  0.00000000000E+00  0.00000000000E+00  0.12525980253E-10  0.17130000000E+03  0.17130000000E+03 0. -1.
       11    1    1    2    0    0  0.52778912407E-03  0.35830217929E-02  0.21761005621E+00  0.21764079211E+00  0.51109989000E-03 0. -1.
     -623    1    1    2    0    0 -0.98528488957E-02 -0.55229487418E-02  0.95945819505E-04  0.17130000037E+03  0.17130000000E+03 0. -1.
      622    1    1    2    0    0  0.93250597716E-02  0.19399269489E-02  0.37822939653E+01  0.37823588355E+01  0.20000000000E-01 0. -1.
</event>
<event>
 5   0  0.3603037E+08  0.9118800E+02  0.7818608E-02  0.1180000E+00
       11   -1    0    0    0    0  0.00000000000E+00  0.00000000000E+00  0.39999999673E+01  0.40000000000E+01  0.51109989000E-03 0.  1.
     -623   -1    0    0    0    0  0.00000000000E+00  0.00000000000E+00  0.12525980253E-10  0.17130000000E+03  0.17130000000E+03 0. -1.
       11    1    1    2    0    0  0.33873826161E-02 -0.47231806565E-03  0.89175274359E-01  0.89242300642E-01  0.51109989000E-03 0.  1.
     -623    1    1    2    0    0 -0.22475207250E-02 -0.48017560421E-03  0.11843253425E-03  0.17130000002E+03  0.17130000000E+03 0. -1.
      622    1    1    2    0    0 -0.11398618911E-02  0.95249366986E-03  0.39107062605E+01  0.39107576839E+01  0.20000000000E-01 0.  1.
</event>
<event>
 5   0  0.3603037E+08  0.9118800E+02  0.7818608E-02  0.1180000E+00
       11   -1    0    0    0    0  0.00000000000E+00  0.00000000000E+00  0.39999999673E+01  0.40000000000E+01  0.51109989000E-03 0.  1.
     -623   -1    0    0    0    0  0.00000000000E+00  0.00000000000E+00  0.12525980253E-10  0.17130000000E+03  0.17130000000E+03 0.  1.
       11    1    1    2    0    0  0.43004522307E-02 -0.25892655646E-02  0.24639605495E+00  0.24644771312E+00  0.51109989000E-03 0.  1.
     -623    1    1    2    0    0 -0.60494361546E-02  0.50712295625E-02  0.10631875203E-03  0.17130000018E+03  0.17130000000E+03 0.  1.
      622    1    1    2    0    0  0.17489839239E-02 -0.24819639979E-02  0.37534975937E+01  0.37535521050E+01  0.20000000000E-01 0.  1.
</event>
<event>
 5   0  0.3603037E+08  0.9118800E+02  0.7818608E-02  0.1180000E+00
       11   -1    0    0    0    0  0.00000000000E+00  0.00000000000E+00  0.39999999673E+01  0.40000000000E+01  0.51109989000E-03 0.  1.
     -623   -1    0    0    0    0  0.00000000000E+00  0.00000000000E+00  0.12525980253E-10  0.17130000000E+03  0.17130000000E+03 0.  1.
       11    1    1    2    0    0 -0.21946145026E-02 -0.64659121816E-02  0.77641524721E-01  0.77942876102E-01  0.51109989000E-03 0.  1.
     -623    1    1    2    0    0 -0.52938485187E-03 -0.31069936858E-03  0.35911462948E-03  0.17130000000E+03  0.17130000000E+03 0.  1.
      622    1    1    2    0    0  0.27239993545E-02  0.67766115502E-02  0.39219993280E+01  0.39220571224E+01  0.20000000000E-01 0.  1.
</event>
<event>
 5   0  0.3603037E+08  0.9118800E+02  0.7818608E-02  0.1180000E+00
       11   -1    0    0    0    0  0.00000000000E+00  0.00000000000E+00  0.39999999673E+01  0.40000000000E+01  0.51109989000E-03 0. -1.
     -623   -1    0    0    0    0  0.00000000000E+00  0.00000000000E+00  0.12525980253E-10  0.17130000000E+03  0.17130000000E+03 0.  1.
       11    1    1    2    0    0 -0.17194104606E-02 -0.64647482633E-03  0.40894827807E-01  0.40939253365E-01  0.51109989000E-03 0. -1.
     -623    1    1    2    0    0 -0.16198121021E-04  0.38017912869E-03  0.95300118068E-04  0.17130000000E+03  0.17130000000E+03 0.  1.
      622    1    1    2    0    0  0.17356085817E-02  0.26629569764E-03  0.39590098394E+01  0.39590607462E+01  0.20000000000E-01 0. -1.
</event>
<event>
 5   0  0.3603037E+08  0.9118800E+02  0.7818608E-02  0.1180000E+00
       11   -1    0    0    0    0  0.00000000000E+00  0.00000000000E+00  0.39999999673E+01  0.40000000000E+01  0.51109989000E-03 0. -1.
     -623   -1    0    0    0    0  0.00000000000E+00  0.00000000000E+00  0.12525980253E-10  0.17130000000E+03  0.17130000000E+03 0. -1.
       11    1    1    2    0    0 -0.77119098292E-02 -0.54364104490E-02  0.36317735216E+00  0.36330025936E+00  0.51109989000E-03 0. -1.
     -623    1    1    2    0    0  0.56477977787E-04 -0.59789368501E-03  0.19093510881E-03  0.17130000000E+03  0.17130000000E+03 0. -1.
      622    1    1    2    0    0  0.76554318514E-02  0.60343041340E-02  0.36366316801E+01  0.36366997395E+01  0.20000000000E-01 0. -1.
</event>
<event>
 5   0  0.3603037E+08  0.9118800E+02  0.7818608E-02  0.1180000E+00
       11   -1    0    0    0    0  0.00000000000E+00  0.00000000000E+00  0.39999999673E+01  0.40000000000E+01  0.51109989000E-03 0.  1.
     -623   -1    0    0    0    0  0.00000000000E+00  0.00000000000E+00  0.12525980253E-10  0.17130000000E+03  0.17130000000E+03 0. -1.
       11    1    1    2    0    0 -0.49346051196E-02  0.17383796492E-02  0.15073160596E+00  0.15082324273E+00  0.51109989000E-03 0.  1.
     -623    1    1    2    0    0  0.60386680256E-02 -0.10351905569E-02  0.14389584799E-03  0.17130000011E+03  0.17130000000E+03 0. -1.
      622    1    1    2    0    0 -0.11040629059E-02 -0.70318909231E-03  0.38491244656E+01  0.38491766476E+01  0.20000000000E-01 0.  1.
</event>
<event>
 5   0  0.3603037E+08  0.9118800E+02  0.7818608E-02  0.1180000E+00
       11   -1    0    0    0    0  0.00000000000E+00  0.00000000000E+00  0.39999999673E+01  0.40000000000E+01  0.51109989000E-03 0.  1.
     -623   -1    0    0    0    0  0.00000000000E+00  0.00000000000E+00  0.12525980253E-10  0.17130000000E+03  0.17130000000E+03 0.  1.
       11    1    1    2    0    0  0.59743070413E-02  0.13637592557E-01  0.26899957291E+01  0.26900369812E+01  0.51109989000E-03 0.  1.
     -623    1    1    2    0    0 -0.66941515883E-02  0.80699670194E-02  0.37431625733E-03  0.17130000032E+03  0.17130000000E+03 0.  1.
      622    1    1    2    0    0  0.71984454695E-03 -0.21707559576E-01  0.13096299220E+01  0.13099626975E+01  0.20000000000E-01 0.  0.
</event>
<event>
 5   0  0.3603037E+08  0.9118800E+02  0.7818608E-02  0.1180000E+00
       11   -1    0    0    0    0  0.00000000000E+00  0.00000000000E+00  0.39999999673E+01  0.40000000000E+01  0.51109989000E-03 0.  1.
     -623   -1    0    0    0    0  0.00000000000E+00  0.00000000000E+00  0.12525980253E-10  0.17130000000E+03  0.17130000000E+03 0.  1.
       11    1    1    2    0    0 -0.22345031176E-03  0.18370558697E-04  0.14467578317E-01  0.14478339376E-01  0.51109989000E-03 0.  1.
     -623    1    1    2    0    0 -0.41396775504E-04 -0.14754363572E-03  0.60921344150E-04  0.17130000000E+03  0.17130000000E+03 0.  1.
      622    1    1    2    0    0  0.26484708726E-03  0.12917307703E-03  0.39854714677E+01  0.39855216605E+01  0.20000000000E-01 0.  1.
</event>
<event>
 5   0  0.3603037E+08  0.9118800E+02  0.7818608E-02  0.1180000E+00
       11   -1    0    0    0    0  0.00000000000E+00  0.00000000000E+00  0.39999999673E+01  0.40000000000E+01  0.51109989000E-03 0.  1.
     -623   -1    0    0    0    0  0.00000000000E+00  0.00000000000E+00  0.12525980253E-10  0.17130000000E+03  0.17130000000E+03 0.  1.
       11    1    1    2    0    0  0.24574520061E-03 -0.20778525800E-02  0.17355889450E-01  0.17489024641E-01  0.51109989000E-03 0.  1.
     -623    1    1    2    0    0  0.18582676727E-02  0.10702328283E-02  0.18401922911E-03  0.17130000001E+03  0.17130000000E+03 0.  1.
      622    1    1    2    0    0 -0.21040128733E-02  0.10076197517E-02  0.39824600587E+01  0.39825109618E+01  0.20000000000E-01 0.  1.
</event>
<event>
 5   0  0.3603037E+08  0.9118800E+02  0.7818608E-02  0.1180000E+00
       11   -1    0    0    0    0  0.00000000000E+00  0.00000000000E+00  0.39999999673E+01  0.40000000000E+01  0.51109989000E-03 0.  1.
     -623   -1    0    0    0    0  0.00000000000E+00  0.00000000000E+00  0.12525980253E-10  0.17130000000E+03  0.17130000000E+03 0.  1.
       11    1    1    2    0    0 -0.58298819387E-02 -0.33809332783E-01  0.54716724359E+00  0.54824201972E+00  0.51109989000E-03 0.  1.
     -623    1    1    2    0    0  0.51160786675E-03  0.59830164455E-02  0.12490570324E-02  0.17130000011E+03  0.17130000000E+03 0.  1.
      622    1    1    2    0    0  0.53182740720E-02  0.27826316338E-01  0.34515836667E+01  0.34517578705E+01  0.20000000000E-01 0.  1.
</event>
<event>
 5   0  0.3603037E+08  0.9118800E+02  0.7818608E-02  0.1180000E+00
       11   -1    0    0    0    0  0.00000000000E+00  0.00000000000E+00  0.39999999673E+01  0.40000000000E+01  0.51109989000E-03 0.  1.
     -623   -1    0    0    0    0  0.00000000000E+00  0.00000000000E+00  0.12525980253E-10  0.17130000000E+03  0.17130000000E+03 0.  1.
       11    1    1    2    0    0 -0.56749572089E-03 -0.14858184600E-02  0.14488102388E+00  0.14489065536E+00  0.51109989000E-03 0.  1.
     -623    1    1    2    0    0 -0.14798833929E-03  0.34031023601E-03  0.61715386918E-04  0.17130000000E+03  0.17130000000E+03 0.  1.
      622    1    1    2    0    0  0.71548406018E-03  0.11455082240E-02  0.38550572281E+01  0.38551093442E+01  0.20000000000E-01 0.  1.
</event>
<event>
 5   0  0.3603037E+08  0.9118800E+02  0.7818608E-02  0.1180000E+00
       11   -1    0    0    0    0  0.00000000000E+00  0.00000000000E+00  0.39999999673E+01  0.40000000000E+01  0.51109989000E-03 0.  1.
     -623   -1    0    0    0    0  0.00000000000E+00  0.00000000000E+00  0.12525980253E-10  0.17130000000E+03  0.17130000000E+03 0.  1.
       11    1    1    2    0    0 -0.29243735772E-02  0.13553226123E-02  0.10139387879E-01  0.10651632114E-01  0.51109989000E-03 0.  1.
     -623    1    1    2    0    0  0.34435740484E-02 -0.31193925136E-02  0.56283317426E-03  0.17130000006E+03  0.17130000000E+03 0.  1.
      622    1    1    2    0    0 -0.51920047120E-03  0.17640699014E-02  0.39892977463E+01  0.39893483039E+01  0.20000000000E-01 0.  1.
</event>
<event>
 5   0  0.3603037E+08  0.9118800E+02  0.7818608E-02  0.1180000E+00
       11   -1    0    0    0    0  0.00000000000E+00  0.00000000000E+00  0.39999999673E+01  0.40000000000E+01  0.51109989000E-03 0.  1.
     -623   -1    0    0    0    0  0.00000000000E+00  0.00000000000E+00  0.12525980253E-10  0.17130000000E+03  0.17130000000E+03 0.  1.
       11    1    1    2    0    0 -0.66190740392E-03  0.60301756466E-03  0.73446828012E-01  0.73454064010E-01  0.51109989000E-03 0.  1.
     -623    1    1    2    0    0  0.22571726255E-03  0.15164553369E-03  0.58236016156E-04  0.17130000000E+03  0.17130000000E+03 0.  1.
      622    1    1    2    0    0  0.43619014137E-03 -0.75466309835E-03  0.39264949033E+01  0.39265459358E+01  0.20000000000E-01 0.  1.
</event>
<event>
 5   0  0.3603037E+08  0.9118800E+02  0.7818608E-02  0.1180000E+00
       11   -1    0    0    0    0  0.00000000000E+00  0.00000000000E+00  0.39999999673E+01  0.40000000000E+01  0.51109989000E-03 0.  1.
     -623   -1    0    0    0    0  0.00000000000E+00  0.00000000000E+00  0.12525980253E-10  0.17130000000E+03  0.17130000000E+03 0.  1.
       11    1    1    2    0    0 -0.57700126498E-03 -0.16738476864E-02  0.84546219801E-01  0.84566300614E-01  0.51109989000E-03 0.  1.
     -623    1    1    2    0    0  0.99276364746E-04 -0.78830135133E-04  0.71549906037E-04  0.17130000000E+03  0.17130000000E+03 0.  1.
      622    1    1    2    0    0  0.47772490024E-03  0.17526778216E-02  0.39153821977E+01  0.39154336993E+01  0.20000000000E-01 0.  1.
</event>
<event>
 5   0  0.3603037E+08  0.9118800E+02  0.7818608E-02  0.1180000E+00
       11   -1    0    0    0    0  0.00000000000E+00  0.00000000000E+00  0.39999999673E+01  0.40000000000E+01  0.51109989000E-03 0. -1.
     -623   -1    0    0    0    0  0.00000000000E+00  0.00000000000E+00  0.12525980253E-10  0.17130000000E+03  0.17130000000E+03 0. -1.
       11    1    1    2    0    0  0.39643307157E-02  0.73446161299E-03  0.32658550953E+01  0.32658576240E+01  0.51109989000E-03 0. -1.
     -623    1    1    2    0    0 -0.77194302026E-03 -0.80047970630E-04  0.28221068720E-03  0.17130000000E+03  0.17130000000E+03 0. -1.
      622    1    1    2    0    0 -0.31923876954E-02 -0.65441364236E-03  0.73386266136E+00  0.73414237402E+00  0.20000000000E-01 0.  1.
</event>
<event>
 5   0  0.3603037E+08  0.9118800E+02  0.7818608E-02  0.1180000E+00
       11   -1    0    0    0    0  0.00000000000E+00  0.00000000000E+00  0.39999999673E+01  0.40000000000E+01  0.51109989000E-03 0. -1.
     -623   -1    0    0    0    0  0.00000000000E+00  0.00000000000E+00  0.12525980253E-10  0.17130000000E+03  0.17130000000E+03 0. -1.
       11    1    1    2    0    0  0.50048301372E-02 -0.98753244382E-02  0.11569175893E+01  0.11569706738E+01  0.51109989000E-03 0. -1.
     -623    1    1    2    0    0 -0.24343127842E-03 -0.15799144410E-03  0.14509250633E-03  0.17130000000E+03  0.17130000000E+03 0. -1.
      622    1    1    2    0    0 -0.47613988588E-02  0.10033315882E-01  0.28429372855E+01  0.28430293259E+01  0.20000000000E-01 0. -1.
</event>
<event>
 5   0  0.3603037E+08  0.9118800E+02  0.7818608E-02  0.1180000E+00
       11   -1    0    0    0    0  0.00000000000E+00  0.00000000000E+00  0.39999999673E+01  0.40000000000E+01  0.51109989000E-03 0.  1.
     -623   -1    0    0    0    0  0.00000000000E+00  0.00000000000E+00  0.12525980253E-10  0.17130000000E+03  0.17130000000E+03 0. -1.
       11    1    1    2    0    0 -0.29591638242E-02 -0.95025052751E-02  0.37445666936E+00  0.37458925866E+00  0.51109989000E-03 0.  1.
     -623    1    1    2    0    0 -0.72717805354E-02  0.60469837966E-02  0.20406743856E-03  0.17130000026E+03  0.17130000000E+03 0. -1.
      622    1    1    2    0    0  0.10230944360E-01  0.34555214784E-02  0.36253392306E+01  0.36254104801E+01  0.20000000000E-01 0.  1.
</event>
<event>
 5   0  0.3603037E+08  0.9118800E+02  0.7818608E-02  0.1180000E+00
       11   -1    0    0    0    0  0.00000000000E+00  0.00000000000E+00  0.39999999673E+01  0.40000000000E+01  0.51109989000E-03 0.  1.
     -623   -1    0    0    0    0  0.00000000000E+00  0.00000000000E+00  0.12525980253E-10  0.17130000000E+03  0.17130000000E+03 0. -1.
       11    1    1    2    0    0 -0.60780245180E-02  0.11793747878E-01  0.84793818803E+00  0.84804213740E+00  0.51109989000E-03 0.  1.
     -623    1    1    2    0    0 -0.13256157163E-01 -0.10722325888E-01  0.22770069124E-03  0.17130000085E+03  0.17130000000E+03 0. -1.
      622    1    1    2    0    0  0.19334181681E-01 -0.10714219906E-02  0.31518340786E+01  0.31519570140E+01  0.20000000000E-01 0.  1.
</event>
<event>
 5   0  0.3603037E+08  0.9118800E+02  0.7818608E-02  0.1180000E+00
       11   -1    0    0    0    0  0.00000000000E+00  0.00000000000E+00  0.39999999673E+01  0.40000000000E+01  0.51109989000E-03 0.  1.
     -623   -1    0    0    0    0  0.00000000000E+00  0.00000000000E+00  0.12525980253E-10  0.17130000000E+03  0.17130000000E+03 0.  1.
       11    1    1    2    0    0 -0.54566216478E-02 -0.35564163552E-02  0.69827605150E+00  0.69830661471E+00  0.51109989000E-03 0.  1.
     -623    1    1    2    0    0 -0.96534641851E-03  0.19220036650E-02  0.97769823558E-04  0.17130000001E+03  0.17130000000E+03 0.  1.
      622    1    1    2    0    0  0.64219680663E-02  0.16344126901E-02  0.33016261460E+01  0.33016933718E+01  0.20000000000E-01 0.  1.
</event>
<event>
 5   0  0.3603037E+08  0.9118800E+02  0.7818608E-02  0.1180000E+00
       11   -1    0    0    0    0  0.00000000000E+00  0.00000000000E+00  0.39999999673E+01  0.40000000000E+01  0.51109989000E-03 0.  1.
     -623   -1    0    0    0    0  0.00000000000E+00  0.00000000000E+00  0.12525980253E-10  0.17130000000E+03  0.17130000000E+03 0.  1.
       11    1    1    2    0    0 -0.89485037318E-03 -0.17578653580E-02  0.24637614540E-01  0.24721733717E-01  0.51109989000E-03 0.  1.
     -623    1    1    2    0    0  0.37813773323E-03  0.84444331164E-04  0.13478409527E-03  0.17130000000E+03  0.17130000000E+03 0.  1.
      622    1    1    2    0    0  0.51671263996E-03  0.16734210268E-02  0.39752275687E+01  0.39752782658E+01  0.20000000000E-01 0.  1.
</event>
<event>
 5   0  0.3603037E+08  0.9118800E+02  0.7818608E-02  0.1180000E+00
       11   -1    0    0    0    0  0.00000000000E+00  0.00000000000E+00  0.39999999673E+01  0.40000000000E+01  0.51109989000E-03 0.  1.
     -623   -1    0    0    0    0  0.00000000000E+00  0.00000000000E+00  0.12525980253E-10  0.17130000000E+03  0.17130000000E+03 0. -1.
       11    1    1    2    0    0  0.60062278051E-02  0.10670982394E-02  0.27678490785E+00  0.27685259599E+00  0.51109989000E-03 0.  1.
     -623    1    1    2    0    0 -0.25330980138E-04 -0.48266898325E-03  0.12622443135E-03  0.17130000000E+03  0.17130000000E+03 0. -1.
      622    1    1    2    0    0 -0.59808968249E-02 -0.58442925615E-03  0.37230888351E+01  0.37231474033E+01  0.20000000000E-01 0.  1.
</event>
<event>
 5   0  0.3603037E+08  0.9118800E+02  0.7818608E-02  0.1180000E+00
       11   -1    0    0    0    0  0.00000000000E+00  0.00000000000E+00  0.39999999673E+01  0.40000000000E+01  0.51109989000E-03 0. -1.
     -623   -1    0    0    0    0  0.00000000000E+00  0.00000000000E+00  0.12525980253E-10  0.17130000000E+03  0.17130000000E+03 0. -1.
       11    1    1    2    0    0  0.38582986656E-01  0.22311459350E-02  0.91399153160E+00  0.91480839848E+00  0.51109989000E-03 0. -1.
     -623    1    1    2    0    0  0.65326115703E-03  0.70080151319E-02  0.11451556426E-02  0.17130000015E+03  0.17130000000E+03 0. -1.
      622    1    1    2    0    0 -0.39236247813E-01 -0.92391610669E-02  0.30848632801E+01  0.30851914531E+01  0.20000000000E-01 0. -1.
</event>
<event>
 5   0  0.3603037E+08  0.9118800E+02  0.7818608E-02  0.1180000E+00
       11   -1    0    0    0    0  0.00000000000E+00  0.00000000000E+00  0.39999999673E+01  0.40000000000E+01  0.51109989000E-03 0.  1.
     -623   -1    0    0    0    0  0.00000000000E+00  0.00000000000E+00  0.12525980253E-10  0.17130000000E+03  0.17130000000E+03 0.  1.
       11    1    1    2    0    0  0.13626196734E-01 -0.17367536037E-01  0.26632273791E+00  0.26723653661E+00  0.51109989000E-03 0.  1.
     -623    1    1    2    0    0 -0.18096624960E-03 -0.53652201784E-02  0.10608724224E-02  0.17130000009E+03  0.17130000000E+03 0.  1.
      622    1    1    2    0    0 -0.13445230485E-01  0.22732756215E-01  0.37326163570E+01  0.37327633760E+01  0.20000000000E-01 0.  1.
</event>
<event>
 5   0  0.3603037E+08  0.9118800E+02  0.7818608E-02  0.1180000E+00
       11   -1    0    0    0    0  0.00000000000E+00  0.00000000000E+00  0.39999999673E+01  0.40000000000E+01  0.51109989000E-03 0. -1.
     -623   -1    0    0    0    0  0.00000000000E+00  0.00000000000E+00  0.12525980253E-10  0.17130000000E+03  0.17130000000E+03 0. -1.
       11    1    1    2    0    0  0.53293885530E-03 -0.85316807038E-04  0.20499324402E-01  0.20512796623E-01  0.51109989000E-03 0. -1.
     -623    1    1    2    0    0  0.19431616844E-03  0.22178551097E-03  0.63766689997E-04  0.17130000000E+03  0.17130000000E+03 0. -1.
      622    1    1    2    0    0 -0.72725502373E-03 -0.13646870393E-03  0.39794368763E+01  0.39794872031E+01  0.20000000000E-01 0. -1.
</event>
<event>
 5   0  0.3603037E+08  0.9118800E+02  0.7818608E-02  0.1180000E+00
       11   -1    0    0    0    0  0.00000000000E+00  0.00000000000E+00  0.39999999673E+01  0.40000000000E+01  0.51109989000E-03 0.  1.
     -623   -1    0    0    0    0  0.00000000000E+00  0.00000000000E+00  0.12525980253E-10  0.17130000000E+03  0.17130000000E+03 0. -1.
       11    1    1    2    0    0 -0.16218323592E-02 -0.76140623400E-02  0.12275626609E+00  0.12300392827E+00  0.51109989000E-03 0.  1.
     -623    1    1    2    0    0  0.28858805185E-02 -0.14481989152E-03  0.30721081483E-03  0.17130000002E+03  0.17130000000E+03 0. -1.
      622    1    1    2    0    0 -0.12640481593E-02  0.77588822315E-02  0.38769364905E+01  0.38769960471E+01  0.20000000000E-01 0.  1.
</event>
<event>
 5   0  0.3603037E+08  0.9118800E+02  0.7818608E-02  0.1180000E+00
       11   -1    0    0    0    0  0.00000000000E+00  0.00000000000E+00  0.39999999673E+01  0.40000000000E+01  0.51109989000E-03 0.  1.
     -623   -1    0    0    0    0  0.00000000000E+00  0.00000000000E+00  0.12525980253E-10  0.17130000000E+03  0.17130000000E+03 0. -1.
       11    1    1    2    0    0  0.27775795292E-03 -0.49744998789E-03  0.42173154958E-01  0.42180099894E-01  0.51109989000E-03 0.  1.
     -623    1    1    2    0    0 -0.14276187305E-02 -0.19601546590E-03  0.57679348928E-04  0.17130000001E+03  0.17130000000E+03 0. -1.
      622    1    1    2    0    0  0.11498607775E-02  0.69346545379E-03  0.39577691331E+01  0.39578198940E+01  0.20000000000E-01 0.  1.
</event>
<event>
 5   0  0.3603037E+08  0.9118800E+02  0.7818608E-02  0.1180000E+00
       11   -1    0    0    0    0  0.00000000000E+00  0.00000000000E+00  0.39999999673E+01  0.40000000000E+01  0.51109989000E-03 0.  1.
     -623   -1    0    0    0    0  0.00000000000E+00  0.00000000000E+00  0.12525980253E-10  0.17130000000E+03  0.17130000000E+03 0.  1.
       11    1    1    2    0    0 -0.12269621898E-01  0.14255321285E-01  0.14041916959E+00  0.14167414096E+00  0.51109989000E-03 0.  1.
     -623    1    1    2    0    0  0.21873905353E-02  0.30392631771E-02  0.13587560625E-02  0.17130000005E+03  0.17130000000E+03 0.  1.
      622    1    1    2    0    0  0.10082231363E-01 -0.17294584462E-01  0.38582220417E+01  0.38583258127E+01  0.20000000000E-01 0.  1.
</event>
<event>
 5   0  0.3603037E+08  0.9118800E+02  0.7818608E-02  0.1180000E+00
       11   -1    0    0    0    0  0.00000000000E+00  0.00000000000E+00  0.39999999673E+01  0.40000000000E+01  0.51109989000E-03 0.  1.
     -623   -1    0    0    0    0  0.00000000000E+00  0.00000000000E+00  0.12525980253E-10  0.17130000000E+03  0.17130000000E+03 0.  1.
       11    1    1    2    0    0 -0.26354081517E-02 -0.21711603457E-02  0.21646875451E+01  0.21646902985E+01  0.51109989000E-03 0.  1.
     -623    1    1    2    0    0 -0.48545165920E-03 -0.16057045665E-02  0.11824571494E-03  0.17130000001E+03  0.17130000000E+03 0.  1.
      622    1    1    2    0    0  0.31208598109E-02  0.37768649122E-02  0.18351941765E+01  0.18353096932E+01  0.20000000000E-01 0. -1.
</event>
<event>
 5   0  0.3603037E+08  0.9118800E+02  0.7818608E-02  0.1180000E+00
       11   -1    0    0    0    0  0.00000000000E+00  0.00000000000E+00  0.39999999673E+01  0.40000000000E+01  0.51109989000E-03 0.  1.
     -623   -1    0    0    0    0  0.00000000000E+00  0.00000000000E+00  0.12525980253E-10  0.17130000000E+03  0.17130000000E+03 0.  1.
       11    1    1    2    0    0 -0.12430258288E-02 -0.20219126065E-03  0.93744200564E-02  0.94724319612E-02  0.51109989000E-03 0.  1.
     -623    1    1    2    0    0 -0.21275089325E-03 -0.15491338152E-03  0.14838005372E-03  0.17130000000E+03  0.17130000000E+03 0.  1.
      622    1    1    2    0    0  0.14557767221E-02  0.35710464218E-03  0.39904771672E+01  0.39905275678E+01  0.20000000000E-01 0.  1.
</event>
<event>
 5   0  0.3603037E+08  0.9118800E+02  0.7818608E-02  0.1180000E+00
       11   -1    0    0    0    0  0.00000000000E+00  0.00000000000E+00  0.39999999673E+01  0.40000000000E+01  0.51109989000E-03 0. -1.
     -623   -1    0    0    0    0  0.00000000000E+00  0.00000000000E+00  0.12525980253E-10  0.17130000000E+03  0.17130000000E+03 0.  1.
       11    1    1    2    0    0  0.48141562182E-02 -0.61529891490E-02  0.24459386388E+00  0.24471913462E+00  0.51109989000E-03 0. -1.
     -623    1    1    2    0    0 -0.47037906789E-02  0.18335119443E-02  0.18105717221E-03  0.17130000007E+03  0.17130000000E+03 0.  1.
      622    1    1    2    0    0 -0.11036553936E-03  0.43194772046E-02  0.37552250463E+01  0.37552807909E+01  0.20000000000E-01 0. -1.
</event>
<event>
 5   0  0.3603037E+08  0.9118800E+02  0.7818608E-02  0.1180000E+00
       11   -1    0    0    0    0  0.00000000000E+00  0.00000000000E+00  0.39999999673E+01  0.40000000000E+01  0.51109989000E-03 0.  1.
     -623   -1    0    0    0    0  0.00000000000E+00  0.00000000000E+00  0.12525980253E-10  0.17130000000E+03  0.17130000000E+03 0.  1.
       11    1    1    2    0    0  0.61477763342E-01  0.42503589569E-01  0.15711477650E+01  0.15729245472E+01  0.51109989000E-03 0.  1.
     -623    1    1    2    0    0 -0.60355524463E-02 -0.24658192388E-01  0.25600244134E-02  0.17130000190E+03  0.17130000000E+03 0.  1.
      622    1    1    2    0    0 -0.55442210896E-01 -0.17845397182E-01  0.24262921780E+01  0.24270735526E+01  0.20000000000E-01 0.  1.
</event>
<event>
 5   0  0.3603037E+08  0.9118800E+02  0.7818608E-02  0.1180000E+00
       11   -1    0    0    0    0  0.00000000000E+00  0.00000000000E+00  0.39999999673E+01  0.40000000000E+01  0.51109989000E-03 0.  1.
     -623   -1    0    0    0    0  0.00000000000E+00  0.00000000000E+00  0.12525980253E-10  0.17130000000E+03  0.17130000000E+03 0.  1.
       11    1    1    2    0    0  0.36769948692E-03  0.41026222245E-03  0.70867319504E-02  0.71264653949E-02  0.51109989000E-03 0. -1.
     -623    1    1    2    0    0 -0.75222826078E-04  0.68481787698E-03  0.89952649166E-04  0.17130000000E+03  0.17130000000E+03 0.  1.
      622    1    1    2    0    0 -0.29247666084E-03 -0.10950800994E-02  0.39928232828E+01  0.39928735332E+01  0.20000000000E-01 0.  1.
</event>
<event>
 5   0  0.3603037E+08  0.9118800E+02  0.7818608E-02  0.1180000E+00
       11   -1    0    0    0    0  0.00000000000E+00  0.00000000000E+00  0.39999999673E+01  0.40000000000E+01  0.51109989000E-03 0. -1.
     -623   -1    0    0    0    0  0.00000000000E+00  0.00000000000E+00  0.12525980253E-10  0.17130000000E+03  0.17130000000E+03 0. -1.
       11    1    1    2    0    0 -0.87682181547E-03 -0.22322453114E-02  0.91099934069E-02  0.94342427298E-02  0.51109989000E-03 0. -1.
     -623    1    1    2    0    0  0.14279179486E-02  0.53353964889E-02  0.37566926668E-03  0.17130000009E+03  0.17130000000E+03 0. -1.
      622    1    1    2    0    0 -0.55109613311E-03 -0.31031511775E-02  0.39905143047E+01  0.39905656678E+01  0.20000000000E-01 0. -1.
</event>
<event>
 5   0  0.3603037E+08  0.9118800E+02  0.7818608E-02  0.1180000E+00
       11   -1    0    0    0    0  0.00000000000E+00  0.00000000000E+00  0.39999999673E+01  0.40000000000E+01  0.51109989000E-03 0. -1.
     -623   -1    0    0    0    0  0.00000000000E+00  0.00000000000E+00  0.12525980253E-10  0.17130000000E+03  0.17130000000E+03 0. -1.
       11    1    1    2    0    0  0.11510146778E-02 -0.25026387333E-02  0.22782408315E+00  0.22784130907E+00  0.51109989000E-03 0. -1.
     -623    1    1    2    0    0 -0.26924387629E-02 -0.27966711230E-03  0.71576152533E-04  0.17130000002E+03  0.17130000000E+03 0. -1.
      622    1    1    2    0    0  0.15414240850E-02  0.27823058456E-02  0.37721043081E+01  0.37721586695E+01  0.20000000000E-01 0. -1.
</event>
<event>
 5   0  0.3603037E+08  0.9118800E+02  0.7818608E-02  0.1180000E+00
       11   -1    0    0    0    0  0.00000000000E+00  0.00000000000E+00  0.39999999673E+01  0.40000000000E+01  0.51109989000E-03 0.  1.
     -623   -1    0    0    0    0  0.00000000000E+00  0.00000000000E+00  0.12525980253E-10  0.17130000000E+03  0.17130000000E+03 0. -1.
       11    1    1    2    0    0  0.17788550589E-01  0.29886001796E-02  0.30774869945E+01  0.30775398985E+01  0.51109989000E-03 0.  1.
     -623    1    1    2    0    0 -0.21530497750E-02  0.25052272206E-02  0.41865656419E-03  0.17130000003E+03  0.17130000000E+03 0. -1.
      622    1    1    2    0    0 -0.15635500814E-01 -0.54938274002E-02  0.92209431625E+00  0.92246006910E+00  0.20000000000E-01 0. -1.
</event>
<event>
 5   0  0.3603037E+08  0.9118800E+02  0.7818608E-02  0.1180000E+00
       11   -1    0    0    0    0  0.00000000000E+00  0.00000000000E+00  0.39999999673E+01  0.40000000000E+01  0.51109989000E-03 0. -1.
     -623   -1    0    0    0    0  0.00000000000E+00  0.00000000000E+00  0.12525980253E-10  0.17130000000E+03  0.17130000000E+03 0. -1.
       11    1    1    2    0    0 -0.51376018754E-03  0.91564729515E-03  0.12816247013E-01  0.12869334384E-01  0.51109989000E-03 0. -1.
     -623    1    1    2    0    0 -0.13966761784E-03  0.14596695223E-04  0.10337858432E-03  0.17130000000E+03  0.17130000000E+03 0. -1.
      622    1    1    2    0    0  0.65342780538E-03 -0.93024399038E-03  0.39870803418E+01  0.39871306655E+01  0.20000000000E-01 0. -1.
</event>
<event>
 5   0  0.3603037E+08  0.9118800E+02  0.7818608E-02  0.1180000E+00
       11   -1    0    0    0    0  0.00000000000E+00  0.00000000000E+00  0.39999999673E+01  0.40000000000E+01  0.51109989000E-03 0. -1.
     -623   -1    0    0    0    0  0.00000000000E+00  0.00000000000E+00  0.12525980253E-10  0.17130000000E+03  0.17130000000E+03 0. -1.
       11    1    1    2    0    0  0.44529074329E-02 -0.88331841592E-02  0.15605022142E+01  0.15605336508E+01  0.51109989000E-03 0. -1.
     -623    1    1    2    0    0  0.77258449183E-02 -0.27894189776E-02  0.17167804574E-03  0.17130000020E+03  0.17130000000E+03 0. -1.
      622    1    1    2    0    0 -0.12178752351E-01  0.11622603137E-01  0.24393260751E+01  0.24394661522E+01  0.20000000000E-01 0.  0.
</event>
<event>
 5   0  0.3603037E+08  0.9118800E+02  0.7818608E-02  0.1180000E+00
       11   -1    0    0    0    0  0.00000000000E+00  0.00000000000E+00  0.39999999673E+01  0.40000000000E+01  0.51109989000E-03 0. -1.
     -623   -1    0    0    0    0  0.00000000000E+00  0.00000000000E+00  0.12525980253E-10  0.17130000000E+03  0.17130000000E+03 0.  1.
       11    1    1    2    0    0 -0.24491248503E-01  0.15840859442E-01  0.53559360720E+00  0.53638747877E+00  0.51109989000E-03 0. -1.
     -623    1    1    2    0    0  0.24304806382E-01 -0.35851925569E-01  0.91487479132E-03  0.17130000548E+03  0.17130000000E+03 0.  1.
      622    1    1    2    0    0  0.18644212097E-03  0.20011066127E-01  0.34634914854E+01  0.34636070428E+01  0.20000000000E-01 0. -1.
</event>
<event>
 5   0  0.3603037E+08  0.9118800E+02  0.7818608E-02  0.1180000E+00
       11   -1    0    0    0    0  0.00000000000E+00  0.00000000000E+00  0.39999999673E+01  0.40000000000E+01  0.51109989000E-03 0. -1.
     -623   -1    0    0    0    0  0.00000000000E+00  0.00000000000E+00  0.12525980253E-10  0.17130000000E+03  0.17130000000E+03 0.  1.
       11    1    1    2    0    0  0.77250404745E-04  0.42131553687E-03  0.38757327239E-01  0.38763063764E-01  0.51109989000E-03 0. -1.
     -623    1    1    2    0    0  0.59091346756E-04 -0.10806004689E-03  0.56208271983E-04  0.17130000000E+03  0.17130000000E+03 0.  1.
      622    1    1    2    0    0 -0.13634175150E-03 -0.31325548998E-03  0.39611864318E+01  0.39612369362E+01  0.20000000000E-01 0. -1.
</event>
<event>
 5   0  0.3603037E+08  0.9118800E+02  0.7818608E-02  0.1180000E+00
       11   -1    0    0    0    0  0.00000000000E+00  0.00000000000E+00  0.39999999673E+01  0.40000000000E+01  0.51109989000E-03 0. -1.
     -623   -1    0    0    0    0  0.00000000000E+00  0.00000000000E+00  0.12525980253E-10  0.17130000000E+03  0.17130000000E+03 0. -1.
       11    1    1    2    0    0 -0.84181956034E-03 -0.58354762679E-03  0.18913134721E+00  0.18913481146E+00  0.51109989000E-03 0. -1.
     -623    1    1    2    0    0 -0.77320328306E-05 -0.14178264549E-03  0.56077289408E-04  0.17130000000E+03  0.17130000000E+03 0. -1.
      622    1    1    2    0    0  0.84955159317E-03  0.72533027228E-03  0.38108125429E+01  0.38108651885E+01  0.20000000000E-01 0. -1.
</event>
<event>
 5   0  0.3603037E+08  0.9118800E+02  0.7818608E-02  0.1180000E+00
       11   -1    0    0    0    0  0.00000000000E+00  0.00000000000E+00  0.39999999673E+01  0.40000000000E+01  0.51109989000E-03 0.  1.
     -623   -1    0    0    0    0  0.00000000000E+00  0.00000000000E+00  0.12525980253E-10  0.17130000000E+03  0.17130000000E+03 0. -1.
       11    1    1    2    0    0 -0.12105490421E-02  0.14898084037E-02  0.74608554572E+00  0.74608819030E+00  0.51109989000E-03 0.  1.
     -623    1    1    2    0    0  0.76977693337E-04 -0.10589617021E-02  0.64306288150E-04  0.17130000000E+03  0.17130000000E+03 0. -1.
      622    1    1    2    0    0  0.11335713488E-02 -0.43084670164E-03  0.32538501154E+01  0.32539118064E+01  0.20000000000E-01 0.  1.
</event>
<event>
 5   0  0.3603037E+08  0.9118800E+02  0.7818608E-02  0.1180000E+00
       11   -1    0    0    0    0  0.00000000000E+00  0.00000000000E+00  0.39999999673E+01  0.40000000000E+01  0.51109989000E-03 0.  1.
     -623   -1    0    0    0    0  0.00000000000E+00  0.00000000000E+00  0.12525980253E-10  0.17130000000E+03  0.17130000000E+03 0.  1.
       11    1    1    2    0    0 -0.24229188007E-01 -0.72013425550E-02  0.47864851117E+00  0.47931573243E+00  0.51109989000E-03 0.  1.
     -623    1    1    2    0    0 -0.31518319847E-02  0.25832975048E-02  0.83355256701E-03  0.17130000005E+03  0.17130000000E+03 0.  1.
      622    1    1    2    0    0  0.27381019991E-01  0.46180450501E-02  0.35205179036E+01  0.35206842171E+01  0.20000000000E-01 0.  1.
</event>
<event>
 5   0  0.3603037E+08  0.9118800E+02  0.7818608E-02  0.1180000E+00
       11   -1    0    0    0    0  0.00000000000E+00  0.00000000000E+00  0.39999999673E+01  0.40000000000E+01  0.51109989000E-03 0.  1.
     -623   -1    0    0    0    0  0.00000000000E+00  0.00000000000E+00  0.12525980253E-10  0.17130000000E+03  0.17130000000E+03 0. -1.
       11    1    1    2    0    0 -0.53776559138E-02  0.35860888939E-02  0.13552506694E+01  0.13552661795E+01  0.51109989000E-03 0.  1.
     -623    1    1    2    0    0 -0.96752183342E-03  0.15855058871E-02  0.10377897351E-03  0.17130000001E+03  0.17130000000E+03 0. -1.
      622    1    1    2    0    0  0.63451777472E-02 -0.51715947809E-02  0.26446455190E+01  0.26447338104E+01  0.20000000000E-01 0.  1.
</event>
<event>
 5   0  0.3603037E+08  0.9118800E+02  0.7818608E-02  0.1180000E+00
       11   -1    0    0    0    0  0.00000000000E+00  0.00000000000E+00  0.39999999673E+01  0.40000000000E+01  0.51109989000E-03 0.  1.
     -623   -1    0    0    0    0  0.00000000000E+00  0.00000000000E+00  0.12525980253E-10  0.17130000000E+03  0.17130000000E+03 0.  1.
       11    1    1    2    0    0  0.73309504045E-02 -0.18319523546E-01  0.16636692537E+01  0.16637863429E+01  0.51109989000E-03 0.  1.
     -623    1    1    2    0    0  0.16211067913E-01  0.22099984965E-01  0.32654270058E-03  0.17130000219E+03  0.17130000000E+03 0.  1.
      622    1    1    2    0    0 -0.23542018317E-01 -0.37804614193E-02  0.23360041709E+01  0.23362114641E+01  0.20000000000E-01 0.  1.
</event>
<event>
 5   0  0.3603037E+08  0.9118800E+02  0.7818608E-02  0.1180000E+00
       11   -1    0    0    0    0  0.00000000000E+00  0.00000000000E+00  0.39999999673E+01  0.40000000000E+01  0.51109989000E-03 0. -1.
     -623   -1    0    0    0    0  0.00000000000E+00  0.00000000000E+00  0.12525980253E-10  0.17130000000E+03  0.17130000000E+03 0. -1.
       11    1    1    2    0    0  0.10746529559E-02 -0.80910974437E-03  0.87557213317E-02  0.88731852495E-02  0.51109989000E-03 0. -1.
     -623    1    1    2    0    0  0.29323275444E-04  0.30572659492E-03  0.16772754255E-03  0.17130000000E+03  0.17130000000E+03 0. -1.
      622    1    1    2    0    0 -0.11039762313E-02  0.50338314944E-03  0.39910765185E+01  0.39911268144E+01  0.20000000000E-01 0. -1.
</event>
<event>
 5   0  0.3603037E+08  0.9118800E+02  0.7818608E-02  0.1180000E+00
       11   -1    0    0    0    0  0.00000000000E+00  0.00000000000E+00  0.39999999673E+01  0.40000000000E+01  0.51109989000E-03 0.  1.
     -623   -1    0    0    0    0  0.00000000000E+00  0.00000000000E+00  0.12525980253E-10  0.17130000000E+03  0.17130000000E+03 0. -1.
       11    1    1    2    0    0  0.15879147256E-01 -0.13334094147E-02  0.10771298002E+01  0.10772477863E+01  0.51109989000E-03 0.  1.
     -623    1    1    2    0    0  0.22551941845E-02 -0.33768184607E-02  0.24648629154E-03  0.17130000005E+03  0.17130000000E+03 0. -1.
      622    1    1    2    0    0 -0.18134341441E-01  0.47102278753E-02  0.29226236808E+01  0.29227521654E+01  0.20000000000E-01 0. -1.
</event>
<event>
 5   0  0.3603037E+08  0.9118800E+02  0.7818608E-02  0.1180000E+00
       11   -1    0    0    0    0  0.00000000000E+00  0.00000000000E+00  0.39999999673E+01  0.40000000000E+01  0.51109989000E-03 0. -1.
     -623   -1    0    0    0    0  0.00000000000E+00  0.00000000000E+00  0.12525980253E-10  0.17130000000E+03  0.17130000000E+03 0.  1.
       11    1    1    2    0    0  0.88209103224E-03  0.61594456837E-03  0.13176523998E-01  0.13230248650E-01  0.51109989000E-03 0. -1.
     -623    1    1    2    0    0 -0.53320504191E-04  0.32549035697E-05  0.10399252423E-03  0.17130000000E+03  0.17130000000E+03 0.  1.
      622    1    1    2    0    0 -0.82877052805E-03 -0.61919947194E-03  0.39867194508E+01  0.39867697513E+01  0.20000000000E-01 0. -1.
</event>
<event>
 5   0  0.3603037E+08  0.9118800E+02  0.7818608E-02  0.1180000E+00
       11   -1    0    0    0    0  0.00000000000E+00  0.00000000000E+00  0.39999999673E+01  0.40000000000E+01  0.51109989000E-03 0. -1.
     -623   -1    0    0    0    0  0.00000000000E+00  0.00000000000E+00  0.12525980253E-10  0.17130000000E+03  0.17130000000E+03 0. -1.
       11    1    1    2    0    0  0.69548981291E-04 -0.80257621289E-04  0.11203697137E+00  0.11203818747E+00  0.51109989000E-03 0. -1.
     -623    1    1    2    0    0 -0.23295621893E-04 -0.11243551583E-03  0.52629735044E-04  0.17130000000E+03  0.17130000000E+03 0. -1.
      622    1    1    2    0    0 -0.46253359398E-04  0.19269313712E-03  0.38879103663E+01  0.38879618125E+01  0.20000000000E-01 0. -1.
</event>
<event>
 5   0  0.3603037E+08  0.9118800E+02  0.7818608E-02  0.1180000E+00
       11   -1    0    0    0    0  0.00000000000E+00  0.00000000000E+00  0.39999999673E+01  0.40000000000E+01  0.51109989000E-03 0.  1.
     -623   -1    0    0    0    0  0.00000000000E+00  0.00000000000E+00  0.12525980253E-10  0.17130000000E+03  0.17130000000E+03 0. -1.
       11    1    1    2    0    0 -0.36778420664E-03  0.11039092185E-02  0.21620821419E+00  0.21621194922E+00  0.51109989000E-03 0.  1.
     -623    1    1    2    0    0  0.56758960561E-05 -0.80532200137E-04  0.56715591565E-04  0.17130000000E+03  0.17130000000E+03 0. -1.
      622    1    1    2    0    0  0.36210831059E-03 -0.10233770184E-02  0.37837350376E+01  0.37837880508E+01  0.20000000000E-01 0.  1.
</event>
<event>
 5   0  0.3603037E+08  0.9118800E+02  0.7818608E-02  0.1180000E+00
       11   -1    0    0    0    0  0.00000000000E+00  0.00000000000E+00  0.39999999673E+01  0.40000000000E+01  0.51109989000E-03 0. -1.
     -623   -1    0    0    0    0  0.00000000000E+00  0.00000000000E+00  0.12525980253E-10  0.17130000000E+03  0.17130000000E+03 0. -1.
       11    1    1    2    0    0 -0.45976011290E-02  0.60852752753E-02  0.45753217714E-01  0.46387354573E-01  0.51109989000E-03 0. -1.
     -623    1    1    2    0    0  0.21014540691E-02 -0.60171002787E-03  0.68929735199E-03  0.17130000002E+03  0.17130000000E+03 0. -1.
      622    1    1    2    0    0  0.24961470599E-02 -0.54835652474E-02  0.39535574523E+01  0.39536126301E+01  0.20000000000E-01 0. -1.
</event>
<event>
 5   0  0.3603037E+08  0.9118800E+02  0.7818608E-02  0.1180000E+00
       11   -1    0    0    0    0  0.00000000000E+00  0.00000000000E+00  0.39999999673E+01  0.40000000000E+01  0.51109989000E-03 0.  1.
     -623   -1    0    0    0    0  0.00000000000E+00  0.00000000000E+00  0.12525980253E-10  0.17130000000E+03  0.17130000000E+03 0.  1.
       11    1    1    2    0    0  0.17913646145E-02 -0.10915051018E-01  0.22297902586E+01  0.22298177517E+01  0.51109989000E-03 0.  1.
     -623    1    1    2    0    0 -0.31372086685E-02  0.18992044649E-02  0.16395904725E-03  0.17130000004E+03  0.17130000000E+03 0.  1.
      622    1    1    2    0    0  0.13458440539E-02  0.90158465534E-02  0.17700457497E+01  0.17701822089E+01  0.20000000000E-01 0. -1.
</event>
<event>
 5   0  0.3603037E+08  0.9118800E+02  0.7818608E-02  0.1180000E+00
       11   -1    0    0    0    0  0.00000000000E+00  0.00000000000E+00  0.39999999673E+01  0.40000000000E+01  0.51109989000E-03 0. -1.
     -623   -1    0    0    0    0  0.00000000000E+00  0.00000000000E+00  0.12525980253E-10  0.17130000000E+03  0.17130000000E+03 0.  1.
       11    1    1    2    0    0 -0.41427616569E-03 -0.90371935610E-03  0.33857122289E+00  0.33857306822E+00  0.51109989000E-03 0. -1.
     -623    1    1    2    0    0  0.22553508351E-02  0.29197194990E-03  0.56965701348E-04  0.17130000002E+03  0.17130000000E+03 0.  1.
      622    1    1    2    0    0 -0.18410746694E-02  0.61174740620E-03  0.36613717788E+01  0.36614269167E+01  0.20000000000E-01 0. -1.
</event>
<event>
 5   0  0.3603037E+08  0.9118800E+02  0.7818608E-02  0.1180000E+00
       11   -1    0    0    0    0  0.00000000000E+00  0.00000000000E+00  0.39999999673E+01  0.40000000000E+01  0.51109989000E-03 0.  1.
     -623   -1    0    0    0    0  0.00000000000E+00  0.00000000000E+00  0.12525980253E-10  0.17130000000E+03  0.17130000000E+03 0. -1.
       11    1    1    2    0    0  0.33360135780E-01  0.13118679294E-01  0.16135541024E+01  0.16139523230E+01  0.51109989000E-03 0.  1.
     -623    1    1    2    0    0 -0.31459647220E-01 -0.13025728627E-01  0.48615365646E-03  0.17130000338E+03  0.17130000000E+03 0. -1.
      622    1    1    2    0    0 -0.19004885598E-02 -0.92950667272E-04  0.23859597113E+01  0.23860442922E+01  0.20000000000E-01 0.  0.
</event>
<event>
 5   0  0.3603037E+08  0.9118800E+02  0.7818608E-02  0.1180000E+00
       11   -1    0    0    0    0  0.00000000000E+00  0.00000000000E+00  0.39999999673E+01  0.40000000000E+01  0.51109989000E-03 0. -1.
     -623   -1    0    0    0    0  0.00000000000E+00  0.00000000000E+00  0.12525980253E-10  0.17130000000E+03  0.17130000000E+03 0.  1.
       11    1    1    2    0    0 -0.73490930728E-03 -0.14881729746E-02  0.86932557822E-01  0.86949902717E-01  0.51109989000E-03 0. -1.
     -623    1    1    2    0    0  0.14200065547E-02  0.46372433724E-02  0.69819396429E-04  0.17130000007E+03  0.17130000000E+03 0.  1.
      622    1    1    2    0    0 -0.68509724737E-03 -0.31490703979E-02  0.39129975901E+01  0.39130500286E+01  0.20000000000E-01 0. -1.
</event>
<event>
 5   0  0.3603037E+08  0.9118800E+02  0.7818608E-02  0.1180000E+00
       11   -1    0    0    0    0  0.00000000000E+00  0.00000000000E+00  0.39999999673E+01  0.40000000000E+01  0.51109989000E-03 0.  1.
     -623   -1    0    0    0    0  0.00000000000E+00  0.00000000000E+00  0.12525980253E-10  0.17130000000E+03  0.17130000000E+03 0. -1.
       11    1    1    2    0    0  0.51080287781E-02 -0.23144217583E-03  0.17904237655E+01  0.17904311399E+01  0.51109989000E-03 0.  1.
     -623    1    1    2    0    0 -0.75553550262E-04 -0.55024454910E-03  0.10372942349E-03  0.17130000000E+03  0.17130000000E+03 0. -1.
      622    1    1    2    0    0 -0.50324752278E-02  0.78168672492E-03  0.22094724724E+01  0.22095688592E+01  0.20000000000E-01 0.  1.
</event>
<event>
 5   0  0.3603037E+08  0.9118800E+02  0.7818608E-02  0.1180000E+00
       11   -1    0    0    0    0  0.00000000000E+00  0.00000000000E+00  0.39999999673E+01  0.40000000000E+01  0.51109989000E-03 0. -1.
     -623   -1    0    0    0    0  0.00000000000E+00  0.00000000000E+00  0.12525980253E-10  0.17130000000E+03  0.17130000000E+03 0.  1.
       11    1    1    2    0    0  0.74294005922E-03  0.46042704654E-03  0.48410060623E-02  0.49457573664E-02  0.51109989000E-03 0. -1.
     -623    1    1    2    0    0 -0.13950684415E-02  0.39547274939E-03  0.15493199414E-03  0.17130000001E+03  0.17130000000E+03 0.  1.
      622    1    1    2    0    0  0.65212838225E-03 -0.85589979593E-03  0.39950040293E+01  0.39950542364E+01  0.20000000000E-01 0. -1.
</event>
<event>
 5   0  0.3603037E+08  0.9118800E+02  0.7818608E-02  0.1180000E+00
       11   -1    0    0    0    0  0.00000000000E+00  0.00000000000E+00  0.39999999673E+01  0.40000000000E+01  0.51109989000E-03 0.  1.
     -623   -1    0    0    0    0  0.00000000000E+00  0.00000000000E+00  0.12525980253E-10  0.17130000000E+03  0.17130000000E+03 0. -1.
       11    1    1    2    0    0 -0.76298098674E-04 -0.70878688600E-03  0.21628334086E+00  0.21628511959E+00  0.51109989000E-03 0.  1.
     -623    1    1    2    0    0  0.18914289405E-03  0.12587387466E-03  0.54651307152E-04  0.17130000000E+03  0.17130000000E+03 0. -1.
      622    1    1    2    0    0 -0.11284479538E-03  0.58291301134E-03  0.37836619752E+01  0.37837148803E+01  0.20000000000E-01 0.  1.
</event>
<event>
 5   0  0.3603037E+08  0.9118800E+02  0.7818608E-02  0.1180000E+00
       11   -1    0    0    0    0  0.00000000000E+00  0.00000000000E+00  0.39999999673E+01  0.40000000000E+01  0.51109989000E-03 0.  1.
     -623   -1    0    0    0    0  0.00000000000E+00  0.00000000000E+00  0.12525980253E-10  0.17130000000E+03  0.17130000000E+03 0. -1.
       11    1    1    2    0    0  0.16436337443E-02  0.47261363044E-02  0.13470878654E+01  0.13470972556E+01  0.51109989000E-03 0.  1.
     -623    1    1    2    0    0  0.39991955251E-03  0.88538953355E-03  0.91472740507E-04  0.17130000000E+03  0.17130000000E+03 0. -1.
      622    1    1    2    0    0 -0.20435532968E-02 -0.56115258380E-02  0.26528206293E+01  0.26529027416E+01  0.20000000000E-01 0.  0.
</event>
<event>
 5   0  0.3603037E+08  0.9118800E+02  0.7818608E-02  0.1180000E+00
       11   -1    0    0    0    0  0.00000000000E+00  0.00000000000E+00  0.39999999673E+01  0.40000000000E+01  0.51109989000E-03 0. -1.
     -623   -1    0    0    0    0  0.00000000000E+00  0.00000000000E+00  0.12525980253E-10  0.17130000000E+03  0.17130000000E+03 0. -1.
       11    1    1    2    0    0  0.51262558456E-03  0.74118343249E-03  0.95742617162E-02  0.96301530013E-02  0.51109989000E-03 0. -1.
     -623    1    1    2    0    0  0.14709099798E-03 -0.11365587158E-03  0.10608363945E-03  0.17130000000E+03  0.17130000000E+03 0. -1.
      622    1    1    2    0    0 -0.65971658253E-03 -0.62752756092E-03  0.39903196220E+01  0.39903698469E+01  0.20000000000E-01 0. -1.
</event>
<event>
 5   0  0.3603037E+08  0.9118800E+02  0.7818608E-02  0.1180000E+00
       11   -1    0    0    0    0  0.00000000000E+00  0.00000000000E+00  0.39999999673E+01  0.40000000000E+01  0.51109989000E-03 0.  1.
     -623   -1    0    0    0    0  0.00000000000E+00  0.00000000000E+00  0.12525980253E-10  0.17130000000E+03  0.17130000000E+03 0.  1.
       11    1    1    2    0    0  0.55675271637E-03  0.16814151583E-01  0.61661806602E+00  0.61684773342E+00  0.51109989000E-03 0.  1.
     -623    1    1    2    0    0  0.17845678384E-02 -0.46999682841E-03  0.32905276398E-03  0.17130000001E+03  0.17130000000E+03 0.  1.
      622    1    1    2    0    0 -0.23413205548E-02 -0.16344154754E-01  0.33830528486E+01  0.33831522563E+01  0.20000000000E-01 0.  1.
</event>
<event>
 5   0  0.3603037E+08  0.9118800E+02  0.7818608E-02  0.1180000E+00
       11   -1    0    0    0    0  0.00000000000E+00  0.00000000000E+00  0.39999999673E+01  0.40000000000E+01  0.51109989000E-03 0. -1.
     -623   -1    0    0    0    0  0.00000000000E+00  0.00000000000E+00  0.12525980253E-10  0.17130000000E+03  0.17130000000E+03 0. -1.
       11    1    1    2    0    0  0.46846125220E-03  0.45885144950E-02  0.39280986657E-01  0.39554153466E-01  0.51109989000E-03 0. -1.
     -623    1    1    2    0    0  0.43188113047E-03 -0.26926396672E-03  0.32609257432E-03  0.17130000000E+03  0.17130000000E+03 0. -1.
      622    1    1    2    0    0 -0.90034238267E-03 -0.43192505283E-02  0.39603928881E+01  0.39604458455E+01  0.20000000000E-01 0. -1.
</event>
<event>
 5   0  0.3603037E+08  0.9118800E+02  0.7818608E-02  0.1180000E+00
       11   -1    0    0    0    0  0.00000000000E+00  0.00000000000E+00  0.39999999673E+01  0.40000000000E+01  0.51109989000E-03 0.  1.
     -623   -1    0    0    0    0  0.00000000000E+00  0.00000000000E+00  0.12525980253E-10  0.17130000000E+03  0.17130000000E+03 0.  1.
       11    1    1    2    0    0  0.10798557694E-02 -0.39201427781E-03  0.58754670941E-01  0.58768123523E-01  0.51109989000E-03 0.  1.
     -623    1    1    2    0    0  0.88128187425E-04  0.49458322550E-04  0.64353820757E-04  0.17130000000E+03  0.17130000000E+03 0.  1.
      622    1    1    2    0    0 -0.11679839568E-02  0.34255595526E-03  0.39411809426E+01  0.39412318764E+01  0.20000000000E-01 0.  1.
</event>
<event>
 5   0  0.3603037E+08  0.9118800E+02  0.7818608E-02  0.1180000E+00
       11   -1    0    0    0    0  0.00000000000E+00  0.00000000000E+00  0.39999999673E+01  0.40000000000E+01  0.51109989000E-03 0. -1.
     -623   -1    0    0    0    0  0.00000000000E+00  0.00000000000E+00  0.12525980253E-10  0.17130000000E+03  0.17130000000E+03 0.  1.
       11    1    1    2    0    0 -0.53040099844E-02 -0.46943165111E-02  0.96630182609E-01  0.96890776352E-01  0.51109989000E-03 0. -1.
     -623    1    1    2    0    0 -0.90087115387E-03  0.77347927648E-03  0.31870850612E-03  0.17130000000E+03  0.17130000000E+03 0.  1.
      622    1    1    2    0    0  0.62048811382E-02  0.39208372346E-02  0.39030510762E+01  0.39031092192E+01  0.20000000000E-01 0. -1.
</event>
<event>
 5   0  0.3603037E+08  0.9118800E+02  0.7818608E-02  0.1180000E+00
       11   -1    0    0    0    0  0.00000000000E+00  0.00000000000E+00  0.39999999673E+01  0.40000000000E+01  0.51109989000E-03 0. -1.
     -623   -1    0    0    0    0  0.00000000000E+00  0.00000000000E+00  0.12525980253E-10  0.17130000000E+03  0.17130000000E+03 0.  1.
       11    1    1    2    0    0 -0.12928918563E-01  0.23742728354E-02  0.13626760321E+01  0.13627395289E+01  0.51109989000E-03 0. -1.
     -623    1    1    2    0    0 -0.44972834725E-03 -0.16491410536E-02  0.17334557873E-03  0.17130000001E+03  0.17130000000E+03 0.  1.
      622    1    1    2    0    0  0.13378646910E-01 -0.72513178187E-03  0.26371505897E+01  0.26372604625E+01  0.20000000000E-01 0. -1.
</event>
<event>
 5   0  0.3603037E+08  0.9118800E+02  0.7818608E-02  0.1180000E+00
       11   -1    0    0    0    0  0.00000000000E+00  0.00000000000E+00  0.39999999673E+01  0.40000000000E+01  0.51109989000E-03 0.  1.
     -623   -1    0    0    0    0  0.00000000000E+00  0.00000000000E+00  0.12525980253E-10  0.17130000000E+03  0.17130000000E+03 0. -1.
       11    1    1    2    0    0  0.52917020706E-03  0.17460302573E-02  0.24440276512E-01  0.24513608072E-01  0.51109989000E-03 0.  1.
     -623    1    1    2    0    0 -0.42053303409E-03  0.28931264360E-03  0.12413086469E-03  0.17130000000E+03  0.17130000000E+03 0. -1.
      622    1    1    2    0    0 -0.10863717297E-03 -0.20353429009E-02  0.39754355600E+01  0.39754863911E+01  0.20000000000E-01 0.  1.
</event>
<event>
 5   0  0.3603037E+08  0.9118800E+02  0.7818608E-02  0.1180000E+00
       11   -1    0    0    0    0  0.00000000000E+00  0.00000000000E+00  0.39999999673E+01  0.40000000000E+01  0.51109989000E-03 0. -1.
     -623   -1    0    0    0    0  0.00000000000E+00  0.00000000000E+00  0.12525980253E-10  0.17130000000E+03  0.17130000000E+03 0. -1.
       11    1    1    2    0    0 -0.64655848516E-02  0.88079592101E-03  0.24566017499E+00  0.24574735479E+00  0.51109989000E-03 0. -1.
     -623    1    1    2    0    0  0.25224522350E-03 -0.35837065722E-02  0.14657285954E-03  0.17130000004E+03  0.17130000000E+03 0. -1.
      622    1    1    2    0    0  0.62133396280E-02  0.27029106512E-02  0.37541932195E+01  0.37542526075E+01  0.20000000000E-01 0. -1.
</event>
<event>
 5   0  0.3603037E+08  0.9118800E+02  0.7818608E-02  0.1180000E+00
       11   -1    0    0    0    0  0.00000000000E+00  0.00000000000E+00  0.39999999673E+01  0.40000000000E+01  0.51109989000E-03 0.  1.
     -623   -1    0    0    0    0  0.00000000000E+00  0.00000000000E+00  0.12525980253E-10  0.17130000000E+03  0.17130000000E+03 0. -1.
       11    1    1    2    0    0 -0.64352100030E-03  0.10820197284E-02  0.42310832624E+00  0.42311050783E+00  0.51109989000E-03 0.  1.
     -623    1    1    2    0    0 -0.11833865261E-02  0.54228397602E-03  0.58904220764E-04  0.17130000000E+03  0.17130000000E+03 0. -1.
      622    1    1    2    0    0  0.18269075264E-02 -0.16243037044E-02  0.35768327369E+01  0.35768894872E+01  0.20000000000E-01 0.  1.
</event>
<event>
 5   0  0.3603037E+08  0.9118800E+02  0.7818608E-02  0.1180000E+00
       11   -1    0    0    0    0  0.00000000000E+00  0.00000000000E+00  0.39999999673E+01  0.40000000000E+01  0.51109989000E-03 0. -1.
     -623   -1    0    0    0    0  0.00000000000E+00  0.00000000000E+00  0.12525980253E-10  0.17130000000E+03  0.17130000000E+03 0. -1.
       11    1    1    2    0    0 -0.18773213363E-02 -0.16265707793E-02  0.19463288950E+00  0.19464941038E+00  0.51109989000E-03 0. -1.
     -623    1    1    2    0    0 -0.55840540741E-04  0.52707865717E-03  0.69696905185E-04  0.17130000000E+03  0.17130000000E+03 0. -1.
      622    1    1    2    0    0  0.19331618771E-02  0.10994921221E-02  0.38052973810E+01  0.38053505888E+01  0.20000000000E-01 0. -1.
</event>
<event>
 5   0  0.3603037E+08  0.9118800E+02  0.7818608E-02  0.1180000E+00
       11   -1    0    0    0    0  0.00000000000E+00  0.00000000000E+00  0.39999999673E+01  0.40000000000E+01  0.51109989000E-03 0. -1.
     -623   -1    0    0    0    0  0.00000000000E+00  0.00000000000E+00  0.12525980253E-10  0.17130000000E+03  0.17130000000E+03 0. -1.
       11    1    1    2    0    0 -0.77222072755E-02 -0.20568346754E-01  0.24386453082E+01  0.24387443264E+01  0.51109989000E-03 0. -1.
     -623    1    1    2    0    0  0.57431005424E-03  0.23110296335E-03  0.37593493421E-03  0.17130000000E+03  0.17130000000E+03 0. -1.
      622    1    1    2    0    0  0.71478972213E-02  0.20337243790E-01  0.15609787243E+01  0.15612556721E+01  0.20000000000E-01 0. -1.
</event>
<event>
 5   0  0.3603037E+08  0.9118800E+02  0.7818608E-02  0.1180000E+00
       11   -1    0    0    0    0  0.00000000000E+00  0.00000000000E+00  0.39999999673E+01  0.40000000000E+01  0.51109989000E-03 0.  1.
     -623   -1    0    0    0    0  0.00000000000E+00  0.00000000000E+00  0.12525980253E-10  0.17130000000E+03  0.17130000000E+03 0.  1.
       11    1    1    2    0    0 -0.29849204009E-03 -0.11854888231E-02  0.35631889881E-01  0.35656518061E-01  0.51109989000E-03 0.  1.
     -623    1    1    2    0    0  0.16284577546E-03  0.34329486777E-02  0.75719461607E-04  0.17130000003E+03  0.17130000000E+03 0.  1.
      622    1    1    2    0    0  0.13564626463E-03 -0.22474598545E-02  0.39642923580E+01  0.39643434474E+01  0.20000000000E-01 0.  1.
</event>
<event>
 5   0  0.3603037E+08  0.9118800E+02  0.7818608E-02  0.1180000E+00
       11   -1    0    0    0    0  0.00000000000E+00  0.00000000000E+00  0.39999999673E+01  0.40000000000E+01  0.51109989000E-03 0.  1.
     -623   -1    0    0    0    0  0.00000000000E+00  0.00000000000E+00  0.12525980253E-10  0.17130000000E+03  0.17130000000E+03 0. -1.
       11    1    1    2    0    0 -0.30506886043E-02  0.60673069476E-02  0.23608447064E+01  0.23608545292E+01  0.51109989000E-03 0.  1.
     -623    1    1    2    0    0 -0.54333125643E-04  0.52873030566E-03  0.14802400701E-03  0.17130000000E+03  0.17130000000E+03 0. -1.
      622    1    1    2    0    0  0.31050217300E-02 -0.65960372532E-02  0.16390072369E+01  0.16391454699E+01  0.20000000000E-01 0.  0.
</event>
<event>
 5   0  0.3603037E+08  0.9118800E+02  0.7818608E-02  0.1180000E+00
       11   -1    0    0    0    0  0.00000000000E+00  0.00000000000E+00  0.39999999673E+01  0.40000000000E+01  0.51109989000E-03 0. -1.
     -623   -1    0    0    0    0  0.00000000000E+00  0.00000000000E+00  0.12525980253E-10  0.17130000000E+03  0.17130000000E+03 0. -1.
       11    1    1    2    0    0 -0.86450272327E-03  0.11005881729E-03  0.33001202874E-02  0.34513030423E-02  0.51109989000E-03 0. -1.
     -623    1    1    2    0    0  0.79070002038E-03 -0.16401426766E-02  0.20149698480E-03  0.17130000001E+03  0.17130000000E+03 0. -1.
      622    1    1    2    0    0  0.73802702896E-04  0.15300838593E-02  0.39964983501E+01  0.39965486872E+01  0.20000000000E-01 0. -1.
</event>
<event>
 5   0  0.3603037E+08  0.9118800E+02  0.7818608E-02  0.1180000E+00
       11   -1    0    0    0    0  0.00000000000E+00  0.00000000000E+00  0.39999999673E+01  0.40000000000E+01  0.51109989000E-03 0. -1.
     -623   -1    0    0    0    0  0.00000000000E+00  0.00000000000E+00  0.12525980253E-10  0.17130000000E+03  0.17130000000E+03 0. -1.
       11    1    1    2    0    0  0.21592642205E-01 -0.75155822729E-02  0.16711073270E+01  0.16712637990E+01  0.51109989000E-03 0. -1.
     -623    1    1    2    0    0 -0.20608657561E-01  0.60552820275E-02  0.24433711542E-03  0.17130000135E+03  0.17130000000E+03 0. -1.
      622    1    1    2    0    0 -0.98398464354E-03  0.14603002454E-02  0.23286483032E+01  0.23287348541E+01  0.20000000000E-01 0.  0.
</event>
<event>
 5   0  0.3603037E+08  0.9118800E+02  0.7818608E-02  0.1180000E+00
       11   -1    0    0    0    0  0.00000000000E+00  0.00000000000E+00  0.39999999673E+01  0.40000000000E+01  0.51109989000E-03 0.  1.
     -623   -1    0    0    0    0  0.00000000000E+00  0.00000000000E+00  0.12525980253E-10  0.17130000000E+03  0.17130000000E+03 0. -1.
       11    1    1    2    0    0  0.12681271659E-03 -0.71724346574E-03  0.15999804802E+00  0.16000052222E+00  0.51109989000E-03 0.  1.
     -623    1    1    2    0    0 -0.29502203585E-03 -0.34132672145E-03  0.54675451516E-04  0.17130000000E+03  0.17130000000E+03 0. -1.
      622    1    1    2    0    0  0.16820931926E-03  0.10585701872E-02  0.38399472439E+01  0.38399994772E+01  0.20000000000E-01 0.  1.
</event>
<event>
 5   0  0.3603037E+08  0.9118800E+02  0.7818608E-02  0.1180000E+00
       11   -1    0    0    0    0  0.00000000000E+00  0.00000000000E+00  0.39999999673E+01  0.40000000000E+01  0.51109989000E-03 0. -1.
     -623   -1    0    0    0    0  0.00000000000E+00  0.00000000000E+00  0.12525980253E-10  0.17130000000E+03  0.17130000000E+03 0.  1.
       11    1    1    2    0    0  0.70051332544E-03  0.25479800544E-03  0.25267763882E-01  0.25283922838E-01  0.51109989000E-03 0. -1.
     -623    1    1    2    0    0 -0.57164283290E-03  0.40094148454E-04  0.66458693783E-04  0.17130000000E+03  0.17130000000E+03 0.  1.
      622    1    1    2    0    0 -0.12887049254E-03 -0.29489215389E-03  0.39746657448E+01  0.39747160762E+01  0.20000000000E-01 0. -1.
</event>
<event>
 5   0  0.3603037E+08  0.9118800E+02  0.7818608E-02  0.1180000E+00
       11   -1    0    0    0    0  0.00000000000E+00  0.00000000000E+00  0.39999999673E+01  0.40000000000E+01  0.51109989000E-03 0.  1.
     -623   -1    0    0    0    0  0.00000000000E+00  0.00000000000E+00  0.12525980253E-10  0.17130000000E+03  0.17130000000E+03 0.  1.
       11    1    1    2    0    0 -0.13466008812E-02  0.18368635980E-03  0.40330682674E-01  0.40356811817E-01  0.51109989000E-03 0.  1.
     -623    1    1    2    0    0  0.43124738538E-04  0.12952765191E-03  0.76833435310E-04  0.17130000000E+03  0.17130000000E+03 0.  1.
      622    1    1    2    0    0  0.13034761427E-02 -0.31321401171E-03  0.39595924513E+01  0.39596431881E+01  0.20000000000E-01 0.  1.
</event>
<event>
 5   0  0.3603037E+08  0.9118800E+02  0.7818608E-02  0.1180000E+00
       11   -1    0    0    0    0  0.00000000000E+00  0.00000000000E+00  0.39999999673E+01  0.40000000000E+01  0.51109989000E-03 0.  1.
     -623   -1    0    0    0    0  0.00000000000E+00  0.00000000000E+00  0.12525980253E-10  0.17130000000E+03  0.17130000000E+03 0.  1.
       11    1    1    2    0    0  0.10965095446E-01  0.52015465865E-02  0.37569865236E+00  0.37589496939E+00  0.51109989000E-03 0.  1.
     -623    1    1    2    0    0 -0.28188738134E-02  0.38978183318E-02  0.27211776229E-03  0.17130000007E+03  0.17130000000E+03 0.  1.
      622    1    1    2    0    0 -0.81462216328E-02 -0.90993649182E-02  0.36240291972E+01  0.36241049629E+01  0.20000000000E-01 0.  1.
</event>
<event>
 5   0  0.3603037E+08  0.9118800E+02  0.7818608E-02  0.1180000E+00
       11   -1    0    0    0    0  0.00000000000E+00  0.00000000000E+00  0.39999999673E+01  0.40000000000E+01  0.51109989000E-03 0. -1.
     -623   -1    0    0    0    0  0.00000000000E+00  0.00000000000E+00  0.12525980253E-10  0.17130000000E+03  0.17130000000E+03 0. -1.
       11    1    1    2    0    0 -0.29003906299E-03 -0.34271738456E-02  0.24646283616E+00  0.24648736372E+00  0.51109989000E-03 0. -1.
     -623    1    1    2    0    0  0.84181698917E-03 -0.16498206239E-03  0.79540335093E-04  0.17130000000E+03  0.17130000000E+03 0. -1.
      622    1    1    2    0    0 -0.55177792618E-03  0.35921559080E-02  0.37534575909E+01  0.37535126341E+01  0.20000000000E-01 0. -1.
</event>
<event>
 5   0  0.3603037E+08  0.9118800E+02  0.7818608E-02  0.1180000E+00
       11   -1    0    0    0    0  0.00000000000E+00  0.00000000000E+00  0.39999999673E+01  0.40000000000E+01  0.51109989000E-03 0. -1.
     -623   -1    0    0    0    0  0.00000000000E+00  0.00000000000E+00  0.12525980253E-10  0.17130000000E+03  0.17130000000E+03 0.  1.
       11    1    1    2    0    0  0.26896724547E-03 -0.15292946462E-02  0.20584564551E-01  0.20649372993E-01  0.51109989000E-03 0. -1.
     -623    1    1    2    0    0 -0.32646986885E-03  0.47388717336E-04  0.11531228209E-03  0.17130000000E+03  0.17130000000E+03 0.  1.
      622    1    1    2    0    0  0.57502623387E-04  0.14819059288E-02  0.39793000905E+01  0.39793506267E+01  0.20000000000E-01 0. -1.
</event>
<event>
 5   0  0.3603037E+08  0.9118800E+02  0.7818608E-02  0.1180000E+00
       11   -1    0    0    0    0  0.00000000000E+00  0.00000000000E+00  0.39999999673E+01  0.40000000000E+01  0.51109989000E-03 0.  1.
     -623   -1    0    0    0    0  0.00000000000E+00  0.00000000000E+00  0.12525980253E-10  0.17130000000E+03  0.17130000000E+03 0.  1.
       11    1    1    2    0    0  0.36959796411E-02  0.55670376347E-02  0.11602484775E+01  0.11602678324E+01  0.51109989000E-03 0.  1.
     -623    1    1    2    0    0  0.13148592795E-02 -0.17266651706E-02  0.96784018362E-04  0.17130000001E+03  0.17130000000E+03 0.  1.
      622    1    1    2    0    0 -0.50108389206E-02 -0.38403724640E-02  0.28396547058E+01  0.28397321538E+01  0.20000000000E-01 0.  1.
</event>
<event>
 5   0  0.3603037E+08  0.9118800E+02  0.7818608E-02  0.1180000E+00
       11   -1    0    0    0    0  0.00000000000E+00  0.00000000000E+00  0.39999999673E+01  0.40000000000E+01  0.51109989000E-03 0.  1.
     -623   -1    0    0    0    0  0.00000000000E+00  0.00000000000E+00  0.12525980253E-10  0.17130000000E+03  0.17130000000E+03 0. -1.
       11    1    1    2    0    0 -0.59276634691E-02  0.16066065344E-02 -0.82086632035E-03  0.62171876576E-02  0.51109989000E-03 0.  1.
     -623    1    1    2    0    0  0.78063437610E-02 -0.10677812701E-02  0.70889055928E-02  0.17130000033E+03  0.17130000000E+03 0. -1.
      622    1    1    2    0    0 -0.18786802919E-02 -0.53882526429E-03  0.39937319281E+01  0.39937824845E+01  0.20000000000E-01 0.  1.
</event>
<event>
 5   0  0.3603037E+08  0.9118800E+02  0.7818608E-02  0.1180000E+00
       11   -1    0    0    0    0  0.00000000000E+00  0.00000000000E+00  0.39999999673E+01  0.40000000000E+01  0.51109989000E-03 0. -1.
     -623   -1    0    0    0    0  0.00000000000E+00  0.00000000000E+00  0.12525980253E-10  0.17130000000E+03  0.17130000000E+03 0. -1.
       11    1    1    2    0    0 -0.57349745149E-02 -0.23999554368E-02  0.20176348917E+01  0.20176445344E+01  0.51109989000E-03 0. -1.
     -623    1    1    2    0    0 -0.60166300351E-04 -0.39102856992E-03  0.12093912857E-03  0.17130000000E+03  0.17130000000E+03 0. -1.
      622    1    1    2    0    0  0.57951408153E-02  0.27909840067E-02  0.19822441365E+01  0.19823554651E+01  0.20000000000E-01 0. -1.
</event>
<event>
 5   0  0.3603037E+08  0.9118800E+02  0.7818608E-02  0.1180000E+00
       11   -1    0    0    0    0  0.00000000000E+00  0.00000000000E+00  0.39999999673E+01  0.40000000000E+01  0.51109989000E-03 0.  1.
     -623   -1    0    0    0    0  0.00000000000E+00  0.00000000000E+00  0.12525980253E-10  0.17130000000E+03  0.17130000000E+03 0. -1.
       11    1    1    2    0    0  0.23769023824E-02 -0.12687227703E-02  0.13334292833E+00  0.13337112536E+00  0.51109989000E-03 0.  1.
     -623    1    1    2    0    0 -0.52468212539E-04 -0.13121653048E-03  0.80841571401E-04  0.17130000000E+03  0.17130000000E+03 0. -1.
      622    1    1    2    0    0 -0.23244341699E-02  0.13999393008E-02  0.38665761975E+01  0.38666288746E+01  0.20000000000E-01 0.  1.
</event>
<event>
 5   0  0.3603037E+08  0.9118800E+02  0.7818608E-02  0.1180000E+00
       11   -1    0    0    0    0  0.00000000000E+00  0.00000000000E+00  0.39999999673E+01  0.40000000000E+01  0.51109989000E-03 0. -1.
     -623   -1    0    0    0    0  0.00000000000E+00  0.00000000000E+00  0.12525980253E-10  0.17130000000E+03  0.17130000000E+03 0.  1.
       11    1    1    2    0    0  0.12946392120E-02  0.49943401336E-03  0.74536134021E-01  0.74550801606E-01  0.51109989000E-03 0.  1.
     -623    1    1    2    0    0  0.94724249297E-03  0.22679099639E-03  0.66295013287E-04  0.17130000000E+03  0.17130000000E+03 0.  1.
      622    1    1    2    0    0 -0.22418817049E-02 -0.72622500975E-03  0.39253975383E+01  0.39254491956E+01  0.20000000000E-01 0. -1.
</event>
<event>
 5   0  0.3603037E+08  0.9118800E+02  0.7818608E-02  0.1180000E+00
       11   -1    0    0    0    0  0.00000000000E+00  0.00000000000E+00  0.39999999673E+01  0.40000000000E+01  0.51109989000E-03 0. -1.
     -623   -1    0    0    0    0  0.00000000000E+00  0.00000000000E+00  0.12525980253E-10  0.17130000000E+03  0.17130000000E+03 0. -1.
       11    1    1    2    0    0 -0.16560838919E-04  0.38142415339E-03  0.46914909854E+00  0.46914953228E+00  0.51109989000E-03 0. -1.
     -623    1    1    2    0    0 -0.15710430304E-04  0.15109356916E-03  0.57085516378E-04  0.17130000000E+03  0.17130000000E+03 0. -1.
      622    1    1    2    0    0  0.32271269223E-04 -0.53251772256E-03  0.35307937833E+01  0.35308504676E+01  0.20000000000E-01 0. -1.
</event>
<event>
 5   0  0.3603037E+08  0.9118800E+02  0.7818608E-02  0.1180000E+00
       11   -1    0    0    0    0  0.00000000000E+00  0.00000000000E+00  0.39999999673E+01  0.40000000000E+01  0.51109989000E-03 0.  1.
     -623   -1    0    0    0    0  0.00000000000E+00  0.00000000000E+00  0.12525980253E-10  0.17130000000E+03  0.17130000000E+03 0.  1.
       11    1    1    2    0    0  0.26770137276E-02 -0.40226641270E-03  0.51172484467E-01  0.51246586302E-01  0.51109989000E-03 0.  1.
     -623    1    1    2    0    0 -0.66863154299E-02 -0.11121019796E-02  0.12717837176E-03  0.17130000013E+03  0.17130000000E+03 0.  1.
      622    1    1    2    0    0  0.40093017023E-02  0.15143683923E-02  0.39487003045E+01  0.39487532795E+01  0.20000000000E-01 0.  1.
</event>
<event>
 5   0  0.3603037E+08  0.9118800E+02  0.7818608E-02  0.1180000E+00
       11   -1    0    0    0    0  0.00000000000E+00  0.00000000000E+00  0.39999999673E+01  0.40000000000E+01  0.51109989000E-03 0.  1.
     -623   -1    0    0    0    0  0.00000000000E+00  0.00000000000E+00  0.12525980253E-10  0.17130000000E+03  0.17130000000E+03 0.  1.
       11    1    1    2    0    0  0.88496533912E-02 -0.13745181094E-01  0.77507113319E+00  0.77524368369E+00  0.51109989000E-03 0.  1.
     -623    1    1    2    0    0  0.46083393871E-03  0.20392169605E-03  0.27641220046E-03  0.17130000000E+03  0.17130000000E+03 0.  1.
      622    1    1    2    0    0 -0.93104873299E-02  0.13541259398E-01  0.32246524220E+01  0.32247563153E+01  0.20000000000E-01 0.  1.
</event>
<event>
 5   0  0.3603037E+08  0.9118800E+02  0.7818608E-02  0.1180000E+00
       11   -1    0    0    0    0  0.00000000000E+00  0.00000000000E+00  0.39999999673E+01  0.40000000000E+01  0.51109989000E-03 0.  1.
     -623   -1    0    0    0    0  0.00000000000E+00  0.00000000000E+00  0.12525980253E-10  0.17130000000E+03  0.17130000000E+03 0.  1.
       11    1    1    2    0    0  0.31518812260E-02  0.17795283476E-02  0.12162954115E+01  0.12163009045E+01  0.51109989000E-03 0.  1.
     -623    1    1    2    0    0 -0.37827759712E-03 -0.16952247695E-03  0.79156081253E-04  0.17130000000E+03  0.17130000000E+03 0.  1.
      622    1    1    2    0    0 -0.27736036288E-02 -0.16100058707E-02  0.27836253998E+01  0.27836990950E+01  0.20000000000E-01 0.  1.
</event>
<event>
 5   0  0.3603037E+08  0.9118800E+02  0.7818608E-02  0.1180000E+00
       11   -1    0    0    0    0  0.00000000000E+00  0.00000000000E+00  0.39999999673E+01  0.40000000000E+01  0.51109989000E-03 0. -1.
     -623   -1    0    0    0    0  0.00000000000E+00  0.00000000000E+00  0.12525980253E-10  0.17130000000E+03  0.17130000000E+03 0.  1.
       11    1    1    2    0    0 -0.12913670491E-02 -0.21717292185E-02  0.51001101397E-01  0.51066208034E-01  0.51109989000E-03 0. -1.
     -623    1    1    2    0    0 -0.26248715061E-03  0.49892523364E-04  0.11659692556E-03  0.17130000000E+03  0.17130000000E+03 0.  1.
      622    1    1    2    0    0  0.15538541997E-02  0.21218366951E-02  0.39488822690E+01  0.39489337917E+01  0.20000000000E-01 0. -1.
</event>
<event>
 5   0  0.3603037E+08  0.9118800E+02  0.7818608E-02  0.1180000E+00
       11   -1    0    0    0    0  0.00000000000E+00  0.00000000000E+00  0.39999999673E+01  0.40000000000E+01  0.51109989000E-03 0. -1.
     -623   -1    0    0    0    0  0.00000000000E+00  0.00000000000E+00  0.12525980253E-10  0.17130000000E+03  0.17130000000E+03 0.  1.
       11    1    1    2    0    0  0.14085785409E-02  0.36988106116E-02  0.52338130594E+00  0.52339652074E+00  0.51109989000E-03 0. -1.
     -623    1    1    2    0    0 -0.59598993333E-03  0.30809455129E-03  0.75115428703E-04  0.17130000000E+03  0.17130000000E+03 0.  1.
      622    1    1    2    0    0 -0.81258860754E-03 -0.40069051629E-02  0.34765435460E+01  0.34766034779E+01  0.20000000000E-01 0. -1.
</event>
<event>
 5   0  0.3603037E+08  0.9118800E+02  0.7818608E-02  0.1180000E+00
       11   -1    0    0    0    0  0.00000000000E+00  0.00000000000E+00  0.39999999673E+01  0.40000000000E+01  0.51109989000E-03 0.  1.
     -623   -1    0    0    0    0  0.00000000000E+00  0.00000000000E+00  0.12525980253E-10  0.17130000000E+03  0.17130000000E+03 0.  1.
       11    1    1    2    0    0  0.71056290964E-03 -0.19587957003E-02  0.44214334852E-01  0.44266357530E-01  0.51109989000E-03 0.  1.
     -623    1    1    2    0    0 -0.60140028655E-03 -0.33096961401E-03  0.10321551567E-03  0.17130000000E+03  0.17130000000E+03 0.  1.
      622    1    1    2    0    0 -0.10916262309E-03  0.22897653143E-02  0.39556824170E+01  0.39557336411E+01  0.20000000000E-01 0.  1.
</event>
<event>
 5   0  0.3603037E+08  0.9118800E+02  0.7818608E-02  0.1180000E+00
       11   -1    0    0    0    0  0.00000000000E+00  0.00000000000E+00  0.39999999673E+01  0.40000000000E+01  0.51109989000E-03 0.  1.
     -623   -1    0    0    0    0  0.00000000000E+00  0.00000000000E+00  0.12525980253E-10  0.17130000000E+03  0.17130000000E+03 0. -1.
       11    1    1    2    0    0  0.55079335016E-03  0.88965338358E-02  0.17532226457E+01  0.17532453788E+01  0.51109989000E-03 0.  1.
     -623    1    1    2    0    0 -0.36670572152E-03  0.89763654431E-02  0.18305601708E-03  0.17130000024E+03  0.17130000000E+03 0. -1.
      622    1    1    2    0    0 -0.18408762864E-03 -0.17872899279E-01  0.22465942657E+01  0.22467543855E+01  0.20000000000E-01 0.  0.
</event>
<event>
 5   0  0.3603037E+08  0.9118800E+02  0.7818608E-02  0.1180000E+00
       11   -1    0    0    0    0  0.00000000000E+00  0.00000000000E+00  0.39999999673E+01  0.40000000000E+01  0.51109989000E-03 0. -1.
     -623   -1    0    0    0    0  0.00000000000E+00  0.00000000000E+00  0.12525980253E-10  0.17130000000E+03  0.17130000000E+03 0.  1.
       11    1    1    2    0    0 -0.10019544168E-02  0.14533483827E-02  0.21828378663E-01  0.21905603667E-01  0.51109989000E-03 0. -1.
     -623    1    1    2    0    0 -0.29834330033E-02  0.68828770078E-03  0.13006828555E-03  0.17130000003E+03  0.17130000000E+03 0.  1.
      622    1    1    2    0    0  0.39853874201E-02 -0.21416360834E-02  0.39780415204E+01  0.39780943689E+01  0.20000000000E-01 0. -1.
</event>
<event>
 5   0  0.3603037E+08  0.9118800E+02  0.7818608E-02  0.1180000E+00
       11   -1    0    0    0    0  0.00000000000E+00  0.00000000000E+00  0.39999999673E+01  0.40000000000E+01  0.51109989000E-03 0.  1.
     -623   -1    0    0    0    0  0.00000000000E+00  0.00000000000E+00  0.12525980253E-10  0.17130000000E+03  0.17130000000E+03 0.  1.
       11    1    1    2    0    0 -0.12288564153E-01  0.19726757906E-02  0.57099718884E+00  0.57113304154E+00  0.51109989000E-03 0.  1.
     -623    1    1    2    0    0 -0.19043571140E-03  0.84327297827E-03  0.21801597227E-03  0.17130000000E+03  0.17130000000E+03 0.  1.
      622    1    1    2    0    0  0.12478999865E-01 -0.28159487689E-02  0.34287847626E+01  0.34288669561E+01  0.20000000000E-01 0.  1.
</event>
<event>
 5   0  0.3603037E+08  0.9118800E+02  0.7818608E-02  0.1180000E+00
       11   -1    0    0    0    0  0.00000000000E+00  0.00000000000E+00  0.39999999673E+01  0.40000000000E+01  0.51109989000E-03 0.  1.
     -623   -1    0    0    0    0  0.00000000000E+00  0.00000000000E+00  0.12525980253E-10  0.17130000000E+03  0.17130000000E+03 0. -1.
       11    1    1    2    0    0 -0.12190327609E-02 -0.71738155719E-03  0.73005232338E-02  0.74538270508E-02  0.51109989000E-03 0. -1.
     -623    1    1    2    0    0  0.92299409953E-04 -0.46323239486E-03  0.20369915818E-03  0.17130000000E+03  0.17130000000E+03 0. -1.
      622    1    1    2    0    0  0.11267333510E-02  0.11806139521E-02  0.39924957450E+01  0.39925461722E+01  0.20000000000E-01 0.  1.
</event>
<event>
 5   0  0.3603037E+08  0.9118800E+02  0.7818608E-02  0.1180000E+00
       11   -1    0    0    0    0  0.00000000000E+00  0.00000000000E+00  0.39999999673E+01  0.40000000000E+01  0.51109989000E-03 0.  1.
     -623   -1    0    0    0    0  0.00000000000E+00  0.00000000000E+00  0.12525980253E-10  0.17130000000E+03  0.17130000000E+03 0.  1.
       11    1    1    2    0    0 -0.15996819546E-01  0.19329141596E-01  0.12056143174E+01  0.12058754735E+01  0.51109989000E-03 0.  1.
     -623    1    1    2    0    0  0.85664276754E-02 -0.58930875413E-02  0.37520513383E-03  0.17130000032E+03  0.17130000000E+03 0.  1.
      622    1    1    2    0    0  0.74303918703E-02 -0.13436054055E-01  0.27940104448E+01  0.27941242105E+01  0.20000000000E-01 0.  1.
</event>
<event>
 5   0  0.3603037E+08  0.9118800E+02  0.7818608E-02  0.1180000E+00
       11   -1    0    0    0    0  0.00000000000E+00  0.00000000000E+00  0.39999999673E+01  0.40000000000E+01  0.51109989000E-03 0.  1.
     -623   -1    0    0    0    0  0.00000000000E+00  0.00000000000E+00  0.12525980253E-10  0.17130000000E+03  0.17130000000E+03 0. -1.
       11    1    1    2    0    0  0.78799324019E-02  0.67051952781E-02  0.10249964625E+01  0.10250488097E+01  0.51109989000E-03 0.  1.
     -623    1    1    2    0    0  0.55201286412E-03  0.69728536551E-03  0.14070534039E-03  0.17130000000E+03  0.17130000000E+03 0. -1.
      622    1    1    2    0    0 -0.84319452660E-02 -0.74024806436E-02  0.29748627996E+01  0.29749511879E+01  0.20000000000E-01 0.  0.
</event>
<event>
 5   0  0.3603037E+08  0.9118800E+02  0.7818608E-02  0.1180000E+00
       11   -1    0    0    0    0  0.00000000000E+00  0.00000000000E+00  0.39999999673E+01  0.40000000000E+01  0.51109989000E-03 0.  1.
     -623   -1    0    0    0    0  0.00000000000E+00  0.00000000000E+00  0.12525980253E-10  0.17130000000E+03  0.17130000000E+03 0. -1.
       11    1    1    2    0    0  0.14245198118E-01 -0.11998025307E-01  0.65823839043E+00  0.65850202591E+00  0.51109989000E-03 0.  1.
     -623    1    1    2    0    0 -0.10436665850E-01  0.19010259408E-01  0.33435821115E-03  0.17130000137E+03  0.17130000000E+03 0. -1.
      622    1    1    2    0    0 -0.38085322677E-02 -0.70122341011E-02  0.33414272187E+01  0.33414966010E+01  0.20000000000E-01 0.  1.
</event>
<event>
 5   0  0.3603037E+08  0.9118800E+02  0.7818608E-02  0.1180000E+00
       11   -1    0    0    0    0  0.00000000000E+00  0.00000000000E+00  0.39999999673E+01  0.40000000000E+01  0.51109989000E-03 0.  1.
     -623   -1    0    0    0    0  0.00000000000E+00  0.00000000000E+00  0.12525980253E-10  0.17130000000E+03  0.17130000000E+03 0. -1.
       11    1    1    2    0    0 -0.90460673195E-02  0.18865989486E-02  0.10252032415E-01  0.13811443744E-01  0.51109989000E-03 0.  1.
     -623    1    1    2    0    0  0.82413235482E-02 -0.43650228374E-02  0.36106958903E-02  0.17130000029E+03  0.17130000000E+03 0. -1.
      622    1    1    2    0    0  0.80474377125E-03  0.24784238888E-02  0.39861372391E+01  0.39861882643E+01  0.20000000000E-01 0.  1.
</event>
<event>
 5   0  0.3603037E+08  0.9118800E+02  0.7818608E-02  0.1180000E+00
       11   -1    0    0    0    0  0.00000000000E+00  0.00000000000E+00  0.39999999673E+01  0.40000000000E+01  0.51109989000E-03 0. -1.
     -623   -1    0    0    0    0  0.00000000000E+00  0.00000000000E+00  0.12525980253E-10  0.17130000000E+03  0.17130000000E+03 0.  1.
       11    1    1    2    0    0 -0.86527366474E-02  0.17789883192E-03  0.35764148104E-01  0.36799959374E-01  0.51109989000E-03 0. -1.
     -623    1    1    2    0    0  0.70254790248E-02  0.28480108175E-02  0.10879036536E-02  0.17130000017E+03  0.17130000000E+03 0.  1.
      622    1    1    2    0    0  0.16272576225E-02 -0.30259096494E-02  0.39631479156E+01  0.39631998694E+01  0.20000000000E-01 0. -1.
</event>
<event>
 5   0  0.3603037E+08  0.9118800E+02  0.7818608E-02  0.1180000E+00
       11   -1    0    0    0    0  0.00000000000E+00  0.00000000000E+00  0.39999999673E+01  0.40000000000E+01  0.51109989000E-03 0.  1.
     -623   -1    0    0    0    0  0.00000000000E+00  0.00000000000E+00  0.12525980253E-10  0.17130000000E+03  0.17130000000E+03 0.  1.
       11    1    1    2    0    0 -0.54814922280E-02 -0.35757028613E-02  0.13389571708E+01  0.13389732630E+01  0.51109989000E-03 0.  1.
     -623    1    1    2    0    0 -0.57374860329E-03 -0.31330170231E-02  0.10659576187E-03  0.17130000003E+03  0.17130000000E+03 0.  1.
      622    1    1    2    0    0  0.60552408313E-02  0.67087198844E-02  0.26609362008E+01  0.26610267074E+01  0.20000000000E-01 0.  1.
</event>
<event>
 5   0  0.3603037E+08  0.9118800E+02  0.7818608E-02  0.1180000E+00
       11   -1    0    0    0    0  0.00000000000E+00  0.00000000000E+00  0.39999999673E+01  0.40000000000E+01  0.51109989000E-03 0.  1.
     -623   -1    0    0    0    0  0.00000000000E+00  0.00000000000E+00  0.12525980253E-10  0.17130000000E+03  0.17130000000E+03 0. -1.
       11    1    1    2    0    0  0.11366735290E-01  0.18720560279E-02  0.16601426277E+00  0.16641425398E+00  0.51109989000E-03 0.  1.
     -623    1    1    2    0    0 -0.10608282377E-01 -0.14273819150E-01  0.47318863454E-03  0.17130000092E+03  0.17130000000E+03 0. -1.
      622    1    1    2    0    0 -0.75845291348E-03  0.12401763122E-01  0.38335125160E+01  0.38335848222E+01  0.20000000000E-01 0.  1.
</event>
<event>
 5   0  0.3603037E+08  0.9118800E+02  0.7818608E-02  0.1180000E+00
       11   -1    0    0    0    0  0.00000000000E+00  0.00000000000E+00  0.39999999673E+01  0.40000000000E+01  0.51109989000E-03 0. -1.
     -623   -1    0    0    0    0  0.00000000000E+00  0.00000000000E+00  0.12525980253E-10  0.17130000000E+03  0.17130000000E+03 0. -1.
       11    1    1    2    0    0  0.14042014864E-02  0.89033952954E-03  0.12790489526E-01  0.12908227198E-01  0.51109989000E-03 0. -1.
     -623    1    1    2    0    0 -0.25503584348E-02 -0.20795282569E-02  0.16824100235E-03  0.17130000003E+03  0.17130000000E+03 0. -1.
      622    1    1    2    0    0  0.11461569484E-02  0.11891887273E-02  0.39870412368E+01  0.39870917411E+01  0.20000000000E-01 0. -1.
</event>
<event>
 5   0  0.3603037E+08  0.9118800E+02  0.7818608E-02  0.1180000E+00
       11   -1    0    0    0    0  0.00000000000E+00  0.00000000000E+00  0.39999999673E+01  0.40000000000E+01  0.51109989000E-03 0.  1.
     -623   -1    0    0    0    0  0.00000000000E+00  0.00000000000E+00  0.12525980253E-10  0.17130000000E+03  0.17130000000E+03 0.  1.
       11    1    1    2    0    0  0.41620458309E-02  0.47392335937E-02  0.49995540012E+00  0.49999544627E+00  0.51109989000E-03 0.  1.
     -623    1    1    2    0    0  0.16623722111E-03  0.72931623021E-03  0.10410697547E-03  0.17130000000E+03  0.17130000000E+03 0.  1.
      622    1    1    2    0    0 -0.43282830520E-02 -0.54685498239E-02  0.34999404603E+01  0.35000045521E+01  0.20000000000E-01 0.  1.
</event>
<event>
 5   0  0.3603037E+08  0.9118800E+02  0.7818608E-02  0.1180000E+00
       11   -1    0    0    0    0  0.00000000000E+00  0.00000000000E+00  0.39999999673E+01  0.40000000000E+01  0.51109989000E-03 0. -1.
     -623   -1    0    0    0    0  0.00000000000E+00  0.00000000000E+00  0.12525980253E-10  0.17130000000E+03  0.17130000000E+03 0.  1.
       11    1    1    2    0    0  0.54784742911E-02 -0.20951567364E-02  0.33496233734E+01  0.33496285477E+01  0.51109989000E-03 0. -1.
     -623    1    1    2    0    0 -0.10396527097E-01  0.67173574146E-02  0.34821634273E-03  0.17130000045E+03  0.17130000000E+03 0.  1.
      622    1    1    2    0    0  0.49180528060E-02 -0.46222006781E-02  0.65002837766E+00  0.65037100470E+00  0.20000000000E-01 0.  1.
</event>
<event>
 5   0  0.3603037E+08  0.9118800E+02  0.7818608E-02  0.1180000E+00
       11   -1    0    0    0    0  0.00000000000E+00  0.00000000000E+00  0.39999999673E+01  0.40000000000E+01  0.51109989000E-03 0. -1.
     -623   -1    0    0    0    0  0.00000000000E+00  0.00000000000E+00  0.12525980253E-10  0.17130000000E+03  0.17130000000E+03 0. -1.
       11    1    1    2    0    0 -0.68302187233E-02 -0.13777387713E-01  0.10649059884E+01  0.10650171330E+01  0.51109989000E-03 0. -1.
     -623    1    1    2    0    0  0.78210171597E-02  0.11031228803E-01  0.18124213495E-03  0.17130000053E+03  0.17130000000E+03 0. -1.
      622    1    1    2    0    0 -0.99079843638E-03  0.27461589101E-02  0.29349127368E+01  0.29349823332E+01  0.20000000000E-01 0.  0.
</event>
<event>
 5   0  0.3603037E+08  0.9118800E+02  0.7818608E-02  0.1180000E+00
       11   -1    0    0    0    0  0.00000000000E+00  0.00000000000E+00  0.39999999673E+01  0.40000000000E+01  0.51109989000E-03 0.  1.
     -623   -1    0    0    0    0  0.00000000000E+00  0.00000000000E+00  0.12525980253E-10  0.17130000000E+03  0.17130000000E+03 0. -1.
       11    1    1    2    0    0 -0.12994739860E-02  0.10993460179E-01  0.79498014025E+00  0.79505737492E+00  0.51109989000E-03 0.  1.
     -623    1    1    2    0    0 -0.35245883507E-02 -0.82789767989E-02  0.14462285121E-03  0.17130000024E+03  0.17130000000E+03 0. -1.
      622    1    1    2    0    0  0.48240623368E-02 -0.27144833797E-02  0.32048752043E+01  0.32049423887E+01  0.20000000000E-01 0.  1.
</event>
<event>
 5   0  0.3603037E+08  0.9118800E+02  0.7818608E-02  0.1180000E+00
       11   -1    0    0    0    0  0.00000000000E+00  0.00000000000E+00  0.39999999673E+01  0.40000000000E+01  0.51109989000E-03 0.  1.
     -623   -1    0    0    0    0  0.00000000000E+00  0.00000000000E+00  0.12525980253E-10  0.17130000000E+03  0.17130000000E+03 0. -1.
       11    1    1    2    0    0 -0.87863926755E-04  0.55897853564E-03  0.54111652020E-01  0.54117023962E-01  0.51109989000E-03 0.  1.
     -623    1    1    2    0    0 -0.50973306665E-03 -0.50361785210E-03  0.56072516859E-04  0.17130000000E+03  0.17130000000E+03 0. -1.
      622    1    1    2    0    0  0.59759699340E-03 -0.55360683540E-04  0.39458322428E+01  0.39458829745E+01  0.20000000000E-01 0.  1.
</event>
<event>
 5   0  0.3603037E+08  0.9118800E+02  0.7818608E-02  0.1180000E+00
       11   -1    0    0    0    0  0.00000000000E+00  0.00000000000E+00  0.39999999673E+01  0.40000000000E+01  0.51109989000E-03 0.  1.
     -623   -1    0    0    0    0  0.00000000000E+00  0.00000000000E+00  0.12525980253E-10  0.17130000000E+03  0.17130000000E+03 0. -1.
       11    1    1    2    0    0 -0.17570213833E-01 -0.93990443271E-02  0.13884158496E+01  0.13885589246E+01  0.51109989000E-03 0.  1.
     -623    1    1    2    0    0  0.99493773954E-02  0.43694305877E-02  0.23593815499E-03  0.17130000034E+03  0.17130000000E+03 0. -1.
      622    1    1    2    0    0  0.76208364381E-02  0.50296137394E-02  0.26113481796E+01  0.26114407306E+01  0.20000000000E-01 0.  0.
</event>
<event>
 5   0  0.3603037E+08  0.9118800E+02  0.7818608E-02  0.1180000E+00
       11   -1    0    0    0    0  0.00000000000E+00  0.00000000000E+00  0.39999999673E+01  0.40000000000E+01  0.51109989000E-03 0. -1.
     -623   -1    0    0    0    0  0.00000000000E+00  0.00000000000E+00  0.12525980253E-10  0.17130000000E+03  0.17130000000E+03 0. -1.
       11    1    1    2    0    0 -0.12857265789E-02  0.28603244592E-02  0.36086732531E+00  0.36088131324E+00  0.51109989000E-03 0. -1.
     -623    1    1    2    0    0 -0.30652086987E-03 -0.30348869943E-03  0.70161190226E-04  0.17130000000E+03  0.17130000000E+03 0. -1.
      622    1    1    2    0    0  0.15922474487E-02 -0.25568357597E-02  0.36390624809E+01  0.36391186862E+01  0.20000000000E-01 0. -1.
</event>
<event>
 5   0  0.3603037E+08  0.9118800E+02  0.7818608E-02  0.1180000E+00
       11   -1    0    0    0    0  0.00000000000E+00  0.00000000000E+00  0.39999999673E+01  0.40000000000E+01  0.51109989000E-03 0. -1.
     -623   -1    0    0    0    0  0.00000000000E+00  0.00000000000E+00  0.12525980253E-10  0.17130000000E+03  0.17130000000E+03 0. -1.
       11    1    1    2    0    0 -0.26438097889E-03  0.56742059351E-03  0.78161902348E-01  0.78166080015E-01  0.51109989000E-03 0. -1.
     -623    1    1    2    0    0 -0.90055193608E-03 -0.15191933812E-02  0.55439530533E-04  0.17130000001E+03  0.17130000000E+03 0. -1.
      622    1    1    2    0    0  0.11649329150E-02  0.95177278767E-03  0.39217826255E+01  0.39218339109E+01  0.20000000000E-01 0. -1.
</event>
<event>
 5   0  0.3603037E+08  0.9118800E+02  0.7818608E-02  0.1180000E+00
       11   -1    0    0    0    0  0.00000000000E+00  0.00000000000E+00  0.39999999673E+01  0.40000000000E+01  0.51109989000E-03 0. -1.
     -623   -1    0    0    0    0  0.00000000000E+00  0.00000000000E+00  0.12525980253E-10  0.17130000000E+03  0.17130000000E+03 0.  1.
       11    1    1    2    0    0  0.10001113620E-01  0.62241490703E-03  0.38263775775E+00  0.38276928371E+00  0.51109989000E-03 0. -1.
     -623    1    1    2    0    0 -0.14448023040E-01 -0.45983225646E-02  0.19237439311E-03  0.17130000067E+03  0.17130000000E+03 0.  1.
      622    1    1    2    0    0  0.44469094194E-02  0.39759076576E-02  0.36171698352E+01  0.36172300452E+01  0.20000000000E-01 0. -1.
</event>
<event>
 5   0  0.3603037E+08  0.9118800E+02  0.7818608E-02  0.1180000E+00
       11   -1    0    0    0    0  0.00000000000E+00  0.00000000000E+00  0.39999999673E+01  0.40000000000E+01  0.51109989000E-03 0.  1.
     -623   -1    0    0    0    0  0.00000000000E+00  0.00000000000E+00  0.12525980253E-10  0.17130000000E+03  0.17130000000E+03 0. -1.
       11    1    1    2    0    0 -0.11054809383E-01  0.90603371993E-02  0.12080617044E+01  0.12081463659E+01  0.51109989000E-03 0.  1.
     -623    1    1    2    0    0  0.11075731436E-01 -0.49150460360E-02  0.15977299234E-03  0.17130000043E+03  0.17130000000E+03 0. -1.
      622    1    1    2    0    0 -0.20922052936E-04 -0.41452911633E-02  0.27917784899E+01  0.27918532055E+01  0.20000000000E-01 0.  0.
</event>
<event>
 5   0  0.3603037E+08  0.9118800E+02  0.7818608E-02  0.1180000E+00
       11   -1    0    0    0    0  0.00000000000E+00  0.00000000000E+00  0.39999999673E+01  0.40000000000E+01  0.51109989000E-03 0. -1.
     -623   -1    0    0    0    0  0.00000000000E+00  0.00000000000E+00  0.12525980253E-10  0.17130000000E+03  0.17130000000E+03 0. -1.
       11    1    1    2    0    0 -0.41905479790E-02  0.48775046749E-02  0.12420559797E+00  0.12437299761E+00  0.51109989000E-03 0. -1.
     -623    1    1    2    0    0 -0.10392614104E-03 -0.42789055178E-02  0.22145106029E-03  0.17130000005E+03  0.17130000000E+03 0. -1.
      622    1    1    2    0    0  0.42944741200E-02 -0.59859915706E-03  0.38755729183E+01  0.38756269488E+01  0.20000000000E-01 0. -1.
</event>
<event>
 5   0  0.3603037E+08  0.9118800E+02  0.7818608E-02  0.1180000E+00
       11   -1    0    0    0    0  0.00000000000E+00  0.00000000000E+00  0.39999999673E+01  0.40000000000E+01  0.51109989000E-03 0. -1.
     -623   -1    0    0    0    0  0.00000000000E+00  0.00000000000E+00  0.12525980253E-10  0.17130000000E+03  0.17130000000E+03 0.  1.
       11    1    1    2    0    0 -0.14175595827E-02 -0.19727779622E-02  0.12357506402E+00  0.12359999595E+00  0.51109989000E-03 0. -1.
     -623    1    1    2    0    0 -0.16998407458E-03 -0.11781131793E-04  0.77327093686E-04  0.17130000000E+03  0.17130000000E+03 0.  1.
      622    1    1    2    0    0  0.15875436573E-02  0.19845590940E-02  0.38763475762E+01  0.38764000039E+01  0.20000000000E-01 0. -1.
</event>
<event>
 5   0  0.3603037E+08  0.9118800E+02  0.7818608E-02  0.1180000E+00
       11   -1    0    0    0    0  0.00000000000E+00  0.00000000000E+00  0.39999999673E+01  0.40000000000E+01  0.51109989000E-03 0. -1.
     -623   -1    0    0    0    0  0.00000000000E+00  0.00000000000E+00  0.12525980253E-10  0.17130000000E+03  0.17130000000E+03 0. -1.
       11    1    1    2    0    0  0.75924962691E-02 -0.56218355623E-02  0.50498640113E+00  0.50507502173E+00  0.51109989000E-03 0. -1.
     -623    1    1    2    0    0 -0.19499076096E-02 -0.10182278140E-02  0.15669144727E-03  0.17130000001E+03  0.17130000000E+03 0. -1.
      622    1    1    2    0    0 -0.56425886594E-02  0.66400633763E-02  0.34948568748E+01  0.34949249641E+01  0.20000000000E-01 0. -1.
</event>
<event>
 5   0  0.3603037E+08  0.9118800E+02  0.7818608E-02  0.1180000E+00
       11   -1    0    0    0    0  0.00000000000E+00  0.00000000000E+00  0.39999999673E+01  0.40000000000E+01  0.51109989000E-03 0.  1.
     -623   -1    0    0    0    0  0.00000000000E+00  0.00000000000E+00  0.12525980253E-10  0.17130000000E+03  0.17130000000E+03 0.  1.
       11    1    1    2    0    0 -0.11130895428E-01 -0.81972290067E-02  0.16720609437E+01  0.16721181633E+01  0.51109989000E-03 0.  1.
     -623    1    1    2    0    0  0.77118550685E-02 -0.39380900247E-02  0.17746576609E-03  0.17130000022E+03  0.17130000000E+03 0.  1.
      622    1    1    2    0    0  0.34190403599E-02  0.12135319031E-01  0.23277615579E+01  0.23278816177E+01  0.20000000000E-01 0. -1.
</event>
<event>
 5   0  0.3603037E+08  0.9118800E+02  0.7818608E-02  0.1180000E+00
       11   -1    0    0    0    0  0.00000000000E+00  0.00000000000E+00  0.39999999673E+01  0.40000000000E+01  0.51109989000E-03 0. -1.
     -623   -1    0    0    0    0  0.00000000000E+00  0.00000000000E+00  0.12525980253E-10  0.17130000000E+03  0.17130000000E+03 0. -1.
       11    1    1    2    0    0  0.76511598629E-02 -0.41048992710E-02  0.12525303807E+01  0.12525605798E+01  0.51109989000E-03 0. -1.
     -623    1    1    2    0    0  0.86944782664E-03 -0.23431460063E-03  0.11960449118E-03  0.17130000000E+03  0.17130000000E+03 0. -1.
      622    1    1    2    0    0 -0.85206076896E-02  0.43392138717E-02  0.27473499822E+01  0.27474394178E+01  0.20000000000E-01 0.  0.
</event>
<event>
 5   0  0.3603037E+08  0.9118800E+02  0.7818608E-02  0.1180000E+00
       11   -1    0    0    0    0  0.00000000000E+00  0.00000000000E+00  0.39999999673E+01  0.40000000000E+01  0.51109989000E-03 0. -1.
     -623   -1    0    0    0    0  0.00000000000E+00  0.00000000000E+00  0.12525980253E-10  0.17130000000E+03  0.17130000000E+03 0. -1.
       11    1    1    2    0    0  0.87934600305E-03  0.54991908505E-03  0.92246012267E-02  0.92967816543E-02  0.51109989000E-03 0. -1.
     -623    1    1    2    0    0 -0.66508982103E-04  0.61133976107E-04  0.12239421446E-03  0.17130000000E+03  0.17130000000E+03 0. -1.
      622    1    1    2    0    0 -0.81283702095E-03 -0.61105306116E-03  0.39906529719E+01  0.39907032183E+01  0.20000000000E-01 0. -1.
</event>
<event>
 5   0  0.3603037E+08  0.9118800E+02  0.7818608E-02  0.1180000E+00
       11   -1    0    0    0    0  0.00000000000E+00  0.00000000000E+00  0.39999999673E+01  0.40000000000E+01  0.51109989000E-03 0.  1.
     -623   -1    0    0    0    0  0.00000000000E+00  0.00000000000E+00  0.12525980253E-10  0.17130000000E+03  0.17130000000E+03 0. -1.
       11    1    1    2    0    0 -0.20106713027E-01  0.14641319307E-01  0.51727859743E+00  0.51787648791E+00  0.51109989000E-03 0.  1.
     -623    1    1    2    0    0 -0.10807152053E-01 -0.21565556275E-01  0.80110944771E-03  0.17130000170E+03  0.17130000000E+03 0. -1.
      622    1    1    2    0    0  0.30913865081E-01  0.69242369678E-02  0.34819202605E+01  0.34821218118E+01  0.20000000000E-01 0.  1.
</event>
<event>
 5   0  0.3603037E+08  0.9118800E+02  0.7818608E-02  0.1180000E+00
       11   -1    0    0    0    0  0.00000000000E+00  0.00000000000E+00  0.39999999673E+01  0.40000000000E+01  0.51109989000E-03 0. -1.
     -623   -1    0    0    0    0  0.00000000000E+00  0.00000000000E+00  0.12525980253E-10  0.17130000000E+03  0.17130000000E+03 0. -1.
       11    1    1    2    0    0  0.15171565159E-01 -0.84793127661E-02  0.71018618177E+00  0.71039900700E+00  0.51109989000E-03 0. -1.
     -623    1    1    2    0    0 -0.26883957436E-01  0.24872613248E-02  0.30202722939E-03  0.17130000213E+03  0.17130000000E+03 0. -1.
      622    1    1    2    0    0  0.11712392277E-01  0.59920514414E-02  0.32895117584E+01  0.32895988651E+01  0.20000000000E-01 0. -1.
</event>
<event>
 5   0  0.3603037E+08  0.9118800E+02  0.7818608E-02  0.1180000E+00
       11   -1    0    0    0    0  0.00000000000E+00  0.00000000000E+00  0.39999999673E+01  0.40000000000E+01  0.51109989000E-03 0.  1.
     -623   -1    0    0    0    0  0.00000000000E+00  0.00000000000E+00  0.12525980253E-10  0.17130000000E+03  0.17130000000E+03 0. -1.
       11    1    1    2    0    0  0.21824946438E-03  0.24639854710E-03  0.12740138491E-01  0.12754634263E-01  0.51109989000E-03 0.  1.
     -623    1    1    2    0    0  0.59927955076E-03 -0.44695958578E-03  0.64713891175E-04  0.17130000000E+03  0.17130000000E+03 0. -1.
      622    1    1    2    0    0 -0.81752901514E-03  0.20056103868E-03  0.39871951150E+01  0.39872453641E+01  0.20000000000E-01 0.  1.
</event>
<event>
 5   0  0.3603037E+08  0.9118800E+02  0.7818608E-02  0.1180000E+00
       11   -1    0    0    0    0  0.00000000000E+00  0.00000000000E+00  0.39999999673E+01  0.40000000000E+01  0.51109989000E-03 0. -1.
     -623   -1    0    0    0    0  0.00000000000E+00  0.00000000000E+00  0.12525980253E-10  0.17130000000E+03  0.17130000000E+03 0. -1.
       11    1    1    2    0    0 -0.69976580194E-02  0.15999984542E-02  0.12424628774E+01  0.12424837183E+01  0.51109989000E-03 0. -1.
     -623    1    1    2    0    0  0.14317516168E-03  0.22636767762E-03  0.10246278064E-03  0.17130000000E+03  0.17130000000E+03 0. -1.
      622    1    1    2    0    0  0.68544828577E-02 -0.18263661319E-02  0.27574346271E+01  0.27575162814E+01  0.20000000000E-01 0. -1.
</event>
<event>
 5   0  0.3603037E+08  0.9118800E+02  0.7818608E-02  0.1180000E+00
       11   -1    0    0    0    0  0.00000000000E+00  0.00000000000E+00  0.39999999673E+01  0.40000000000E+01  0.51109989000E-03 0.  1.
     -623   -1    0    0    0    0  0.00000000000E+00  0.00000000000E+00  0.12525980253E-10  0.17130000000E+03  0.17130000000E+03 0.  1.
       11    1    1    2    0    0  0.17457098224E-01  0.73211892187E-02  0.13111118054E+01  0.13112485567E+01  0.51109989000E-03 0.  1.
     -623    1    1    2    0    0 -0.16281474030E-01 -0.76957095855E-03  0.22011868877E-03  0.17130000078E+03  0.17130000000E+03 0.  1.
      622    1    1    2    0    0 -0.11756241945E-02 -0.65516182602E-02  0.26886680433E+01  0.26887506677E+01  0.20000000000E-01 0.  1.
</event>
<event>
 5   0  0.3603037E+08  0.9118800E+02  0.7818608E-02  0.1180000E+00
       11   -1    0    0    0    0  0.00000000000E+00  0.00000000000E+00  0.39999999673E+01  0.40000000000E+01  0.51109989000E-03 0.  1.
     -623   -1    0    0    0    0  0.00000000000E+00  0.00000000000E+00  0.12525980253E-10  0.17130000000E+03  0.17130000000E+03 0.  1.
       11    1    1    2    0    0 -0.21977332733E-02 -0.23668872954E-02  0.21294487414E-01  0.21544108327E-01  0.51109989000E-03 0. -1.
     -623    1    1    2    0    0  0.21756101812E-02  0.73603423449E-03  0.30020933713E-03  0.17130000002E+03  0.17130000000E+03 0.  1.
      622    1    1    2    0    0  0.22123092065E-04  0.16308530609E-02  0.39784052706E+01  0.39784558760E+01  0.20000000000E-01 0.  1.
</event>
<event>
 5   0  0.3603037E+08  0.9118800E+02  0.7818608E-02  0.1180000E+00
       11   -1    0    0    0    0  0.00000000000E+00  0.00000000000E+00  0.39999999673E+01  0.40000000000E+01  0.51109989000E-03 0. -1.
     -623   -1    0    0    0    0  0.00000000000E+00  0.00000000000E+00  0.12525980253E-10  0.17130000000E+03  0.17130000000E+03 0.  1.
       11    1    1    2    0    0  0.21931883675E-03  0.17752106706E-02  0.46174915689E-01  0.46212374247E-01  0.51109989000E-03 0. -1.
     -623    1    1    2    0    0  0.39701253922E-03 -0.37760086753E-03  0.88306606871E-04  0.17130000000E+03  0.17130000000E+03 0.  1.
      622    1    1    2    0    0 -0.61633137597E-03 -0.13976098031E-02  0.39537367451E+01  0.39537876249E+01  0.20000000000E-01 0. -1.
</event>
<event>
 5   0  0.3603037E+08  0.9118800E+02  0.7818608E-02  0.1180000E+00
       11   -1    0    0    0    0  0.00000000000E+00  0.00000000000E+00  0.39999999673E+01  0.40000000000E+01  0.51109989000E-03 0.  1.
     -623   -1    0    0    0    0  0.00000000000E+00  0.00000000000E+00  0.12525980253E-10  0.17130000000E+03  0.17130000000E+03 0.  1.
       11    1    1    2    0    0  0.52451674132E-02  0.94098703703E-02  0.56793651910E+00  0.56803891450E+00  0.51109989000E-03 0.  1.
     -623    1    1    2    0    0  0.23914084488E-02 -0.11683537742E-02  0.17905191090E-03  0.17130000002E+03  0.17130000000E+03 0.  1.
      622    1    1    2    0    0 -0.76365758620E-02 -0.82415165961E-02  0.34318843964E+01  0.34319610647E+01  0.20000000000E-01 0.  1.
</event>
<event>
 5   0  0.3603037E+08  0.9118800E+02  0.7818608E-02  0.1180000E+00
       11   -1    0    0    0    0  0.00000000000E+00  0.00000000000E+00  0.39999999673E+01  0.40000000000E+01  0.51109989000E-03 0.  1.
     -623   -1    0    0    0    0  0.00000000000E+00  0.00000000000E+00  0.12525980253E-10  0.17130000000E+03  0.17130000000E+03 0. -1.
       11    1    1    2    0    0  0.11293341784E-02  0.57326702140E-03  0.19029778627E-01  0.19078724463E-01  0.51109989000E-03 0.  1.
     -623    1    1    2    0    0 -0.18192597776E-03 -0.47104232917E-03  0.99267962061E-04  0.17130000000E+03  0.17130000000E+03 0. -1.
      622    1    1    2    0    0 -0.94740820063E-03 -0.10222469223E-03  0.39808709208E+01  0.39809212748E+01  0.20000000000E-01 0.  1.
</event>
<event>
 5   0  0.3603037E+08  0.9118800E+02  0.7818608E-02  0.1180000E+00
       11   -1    0    0    0    0  0.00000000000E+00  0.00000000000E+00  0.39999999673E+01  0.40000000000E+01  0.51109989000E-03 0. -1.
     -623   -1    0    0    0    0  0.00000000000E+00  0.00000000000E+00  0.12525980253E-10  0.17130000000E+03  0.17130000000E+03 0. -1.
       11    1    1    2    0    0  0.14831801681E-03  0.26049015308E-02  0.46295695449E-01  0.46371975895E-01  0.51109989000E-03 0. -1.
     -623    1    1    2    0    0  0.38287054651E-03 -0.94350496235E-04  0.12766787317E-03  0.17130000000E+03  0.17130000000E+03 0. -1.
      622    1    1    2    0    0 -0.53118856332E-03 -0.25105510346E-02  0.39535766040E+01  0.39536280236E+01  0.20000000000E-01 0. -1.
</event>
<event>
 5   0  0.3603037E+08  0.9118800E+02  0.7818608E-02  0.1180000E+00
       11   -1    0    0    0    0  0.00000000000E+00  0.00000000000E+00  0.39999999673E+01  0.40000000000E+01  0.51109989000E-03 0.  1.
     -623   -1    0    0    0    0  0.00000000000E+00  0.00000000000E+00  0.12525980253E-10  0.17130000000E+03  0.17130000000E+03 0.  1.
       11    1    1    2    0    0  0.34948530934E-02  0.10841711112E-01  0.13085946324E+01  0.13086443099E+01  0.51109989000E-03 0.  1.
     -623    1    1    2    0    0 -0.11228832975E-02  0.10927838138E-02  0.15147231055E-03  0.17130000001E+03  0.17130000000E+03 0.  1.
      622    1    1    2    0    0 -0.23719697959E-02 -0.11934494926E-01  0.26912538627E+01  0.26913556829E+01  0.20000000000E-01 0.  0.
</event>
<event>
 5   0  0.3603037E+08  0.9118800E+02  0.7818608E-02  0.1180000E+00
       11   -1    0    0    0    0  0.00000000000E+00  0.00000000000E+00  0.39999999673E+01  0.40000000000E+01  0.51109989000E-03 0.  1.
     -623   -1    0    0    0    0  0.00000000000E+00  0.00000000000E+00  0.12525980253E-10  0.17130000000E+03  0.17130000000E+03 0. -1.
       11    1    1    2    0    0  0.42932403038E-02 -0.89427726415E-02  0.17732467535E+00  0.17760266553E+00  0.51109989000E-03 0.  1.
     -623    1    1    2    0    0  0.17338905922E-02  0.13958313286E-02  0.34249818476E-03  0.17130000001E+03  0.17130000000E+03 0. -1.
      622    1    1    2    0    0 -0.60271308960E-02  0.75469413130E-02  0.38223327938E+01  0.38223973197E+01  0.20000000000E-01 0.  1.
</event>
<event>
 5   0  0.3603037E+08  0.9118800E+02  0.7818608E-02  0.1180000E+00
       11   -1    0    0    0    0  0.00000000000E+00  0.00000000000E+00  0.39999999673E+01  0.40000000000E+01  0.51109989000E-03 0. -1.
     -623   -1    0    0    0    0  0.00000000000E+00  0.00000000000E+00  0.12525980253E-10  0.17130000000E+03  0.17130000000E+03 0. -1.
       11    1    1    2    0    0  0.43190398665E-02  0.51268094512E-01  0.11406786772E+01  0.11418385076E+01  0.51109989000E-03 0. -1.
     -623    1    1    2    0    0 -0.47370706317E-01 -0.12323027694E-01  0.18264219476E-02  0.17130000700E+03  0.17130000000E+03 0. -1.
      622    1    1    2    0    0  0.43051666451E-01 -0.38945066819E-01  0.28574948683E+01  0.28581544896E+01  0.20000000000E-01 0.  1.
</event>
<event>
 5   0  0.3603037E+08  0.9118800E+02  0.7818608E-02  0.1180000E+00
       11   -1    0    0    0    0  0.00000000000E+00  0.00000000000E+00  0.39999999673E+01  0.40000000000E+01  0.51109989000E-03 0. -1.
     -623   -1    0    0    0    0  0.00000000000E+00  0.00000000000E+00  0.12525980253E-10  0.17130000000E+03  0.17130000000E+03 0. -1.
       11    1    1    2    0    0  0.92644366639E-02 -0.92843227292E-03  0.50143895828E-01  0.51003561477E-01  0.51109989000E-03 0. -1.
     -623    1    1    2    0    0 -0.78056301270E-02  0.67506062320E-02  0.91515386687E-03  0.17130000031E+03  0.17130000000E+03 0. -1.
      622    1    1    2    0    0 -0.14588065369E-02 -0.58221739590E-02  0.39489409177E+01  0.39489961252E+01  0.20000000000E-01 0. -1.
</event>
<event>
 5   0  0.3603037E+08  0.9118800E+02  0.7818608E-02  0.1180000E+00
       11   -1    0    0    0    0  0.00000000000E+00  0.00000000000E+00  0.39999999673E+01  0.40000000000E+01  0.51109989000E-03 0. -1.
     -623   -1    0    0    0    0  0.00000000000E+00  0.00000000000E+00  0.12525980253E-10  0.17130000000E+03  0.17130000000E+03 0.  1.
       11    1    1    2    0    0 -0.78079619129E-03  0.71731455442E-03  0.14176455034E+00  0.14176943654E+00  0.51109989000E-03 0. -1.
     -623    1    1    2    0    0  0.13848428673E-02  0.13253701015E-03  0.56837687672E-04  0.17130000001E+03  0.17130000000E+03 0.  1.
      622    1    1    2    0    0 -0.60404667604E-03 -0.84985156457E-03  0.38581785793E+01  0.38582305578E+01  0.20000000000E-01 0. -1.
</event>
<event>
 5   0  0.3603037E+08  0.9118800E+02  0.7818608E-02  0.1180000E+00
       11   -1    0    0    0    0  0.00000000000E+00  0.00000000000E+00  0.39999999673E+01  0.40000000000E+01  0.51109989000E-03 0. -1.
     -623   -1    0    0    0    0  0.00000000000E+00  0.00000000000E+00  0.12525980253E-10  0.17130000000E+03  0.17130000000E+03 0.  1.
       11    1    1    2    0    0 -0.16385693663E-03  0.29280965590E-03  0.27649633703E-01  0.27656392598E-01  0.51109989000E-03 0. -1.
     -623    1    1    2    0    0 -0.54726920530E-03  0.17106771712E-03  0.57166394032E-04  0.17130000000E+03  0.17130000000E+03 0.  1.
      622    1    1    2    0    0  0.71112614193E-03 -0.46387737303E-03  0.39722931673E+01  0.39723436064E+01  0.20000000000E-01 0. -1.
</event>
<event>
 5   0  0.3603037E+08  0.9118800E+02  0.7818608E-02  0.1180000E+00
       11   -1    0    0    0    0  0.00000000000E+00  0.00000000000E+00  0.39999999673E+01  0.40000000000E+01  0.51109989000E-03 0.  1.
     -623   -1    0    0    0    0  0.00000000000E+00  0.00000000000E+00  0.12525980253E-10  0.17130000000E+03  0.17130000000E+03 0.  1.
       11    1    1    2    0    0  0.12451635925E-02  0.14005542794E-02  0.29220190933E-01  0.29284684796E-01  0.51109989000E-03 0.  1.
     -623    1    1    2    0    0  0.60697370114E-03 -0.11920180052E-02  0.11527300795E-03  0.17130000001E+03  0.17130000000E+03 0.  1.
      622    1    1    2    0    0 -0.18521372936E-02 -0.20853627420E-03  0.39706645034E+01  0.39707153099E+01  0.20000000000E-01 0.  1.
</event>
<event>
 5   0  0.3603037E+08  0.9118800E+02  0.7818608E-02  0.1180000E+00
       11   -1    0    0    0    0  0.00000000000E+00  0.00000000000E+00  0.39999999673E+01  0.40000000000E+01  0.51109989000E-03 0.  1.
     -623   -1    0    0    0    0  0.00000000000E+00  0.00000000000E+00  0.12525980253E-10  0.17130000000E+03  0.17130000000E+03 0.  1.
       11    1    1    2    0    0 -0.43594798187E-02  0.12646390825E-02  0.21142074057E+00  0.21147008096E+00  0.51109989000E-03 0.  1.
     -623    1    1    2    0    0  0.63179599492E-03  0.81359444324E-03  0.10450613031E-03  0.17130000000E+03  0.17130000000E+03 0.  1.
      622    1    1    2    0    0  0.37276838238E-02 -0.20782335258E-02  0.37884747207E+01  0.37885299159E+01  0.20000000000E-01 0.  1.
</event>
<event>
 5   0  0.3603037E+08  0.9118800E+02  0.7818608E-02  0.1180000E+00
       11   -1    0    0    0    0  0.00000000000E+00  0.00000000000E+00  0.39999999673E+01  0.40000000000E+01  0.51109989000E-03 0.  1.
     -623   -1    0    0    0    0  0.00000000000E+00  0.00000000000E+00  0.12525980253E-10  0.17130000000E+03  0.17130000000E+03 0. -1.
       11    1    1    2    0    0 -0.44316755448E-02 -0.23347611105E-02  0.18200512711E+00  0.18207476040E+00  0.51109989000E-03 0.  1.
     -623    1    1    2    0    0  0.37663391457E-02 -0.11238881020E-02  0.12365520072E-03  0.17130000005E+03  0.17130000000E+03 0. -1.
      622    1    1    2    0    0  0.66533639914E-03  0.34586492125E-02  0.38178711850E+01  0.38179251945E+01  0.20000000000E-01 0.  1.
</event>
<event>
 5   0  0.3603037E+08  0.9118800E+02  0.7818608E-02  0.1180000E+00
       11   -1    0    0    0    0  0.00000000000E+00  0.00000000000E+00  0.39999999673E+01  0.40000000000E+01  0.51109989000E-03 0. -1.
     -623   -1    0    0    0    0  0.00000000000E+00  0.00000000000E+00  0.12525980253E-10  0.17130000000E+03  0.17130000000E+03 0.  1.
       11    1    1    2    0    0 -0.31172719329E-01 -0.26028422702E-01  0.16506309072E+01  0.16511304825E+01  0.51109989000E-03 0. -1.
     -623    1    1    2    0    0 -0.52360684361E-02 -0.92850735304E-02  0.11327450249E-02  0.17130000034E+03  0.17130000000E+03 0.  1.
      622    1    1    2    0    0  0.36408787765E-01  0.35313496232E-01  0.23482363151E+01  0.23488691821E+01  0.20000000000E-01 0. -1.
</event>
<event>
 5   0  0.3603037E+08  0.9118800E+02  0.7818608E-02  0.1180000E+00
       11   -1    0    0    0    0  0.00000000000E+00  0.00000000000E+00  0.39999999673E+01  0.40000000000E+01  0.51109989000E-03 0. -1.
     -623   -1    0    0    0    0  0.00000000000E+00  0.00000000000E+00  0.12525980253E-10  0.17130000000E+03  0.17130000000E+03 0.  1.
       11    1    1    2    0    0  0.14702365525E-01 -0.92612633703E-02  0.16737376763E+01  0.16738279484E+01  0.51109989000E-03 0. -1.
     -623    1    1    2    0    0 -0.71967135927E-02  0.72449117735E-02  0.18950703339E-03  0.17130000030E+03  0.17130000000E+03 0.  1.
      622    1    1    2    0    0 -0.75056519323E-02  0.20163515968E-02  0.23260727841E+01  0.23261717472E+01  0.20000000000E-01 0.  0.
</event>
<event>
 5   0  0.3603037E+08  0.9118800E+02  0.7818608E-02  0.1180000E+00
       11   -1    0    0    0    0  0.00000000000E+00  0.00000000000E+00  0.39999999673E+01  0.40000000000E+01  0.51109989000E-03 0.  1.
     -623   -1    0    0    0    0  0.00000000000E+00  0.00000000000E+00  0.12525980253E-10  0.17130000000E+03  0.17130000000E+03 0.  1.
       11    1    1    2    0    0 -0.69988292445E-02  0.38641234668E-02  0.49814867207E+00  0.49821308269E+00  0.51109989000E-03 0.  1.
     -623    1    1    2    0    0 -0.41660991916E-02 -0.47212637469E-02  0.13951202962E-03  0.17130000012E+03  0.17130000000E+03 0.  1.
      622    1    1    2    0    0  0.11164928436E-01  0.85714028005E-03  0.35017117833E+01  0.35017868015E+01  0.20000000000E-01 0.  1.
</event>
<event>
 5   0  0.3603037E+08  0.9118800E+02  0.7818608E-02  0.1180000E+00
       11   -1    0    0    0    0  0.00000000000E+00  0.00000000000E+00  0.39999999673E+01  0.40000000000E+01  0.51109989000E-03 0. -1.
     -623   -1    0    0    0    0  0.00000000000E+00  0.00000000000E+00  0.12525980253E-10  0.17130000000E+03  0.17130000000E+03 0. -1.
       11    1    1    2    0    0  0.52833898747E-03 -0.22283535566E-02  0.18283965021E+00  0.18285470629E+00  0.51109989000E-03 0. -1.
     -623    1    1    2    0    0  0.19064265243E-03 -0.15825004948E-03  0.68232983170E-04  0.17130000000E+03  0.17130000000E+03 0. -1.
      622    1    1    2    0    0 -0.71898163989E-03  0.23866036061E-02  0.38170920842E+01  0.38171452935E+01  0.20000000000E-01 0. -1.
</event>
<event>
 5   0  0.3603037E+08  0.9118800E+02  0.7818608E-02  0.1180000E+00
       11   -1    0    0    0    0  0.00000000000E+00  0.00000000000E+00  0.39999999673E+01  0.40000000000E+01  0.51109989000E-03 0.  1.
     -623   -1    0    0    0    0  0.00000000000E+00  0.00000000000E+00  0.12525980253E-10  0.17130000000E+03  0.17130000000E+03 0.  1.
       11    1    1    2    0    0 -0.18641405266E-01  0.19234162261E-02  0.24031842381E+01  0.24032573614E+01  0.51109989000E-03 0.  1.
     -623    1    1    2    0    0  0.15310775348E-01 -0.41310652744E-02  0.20408498565E-03  0.17130000073E+03  0.17130000000E+03 0.  1.
      622    1    1    2    0    0  0.33306299172E-02  0.22076490483E-02  0.15966116443E+01  0.15967419044E+01  0.20000000000E-01 0. -1.
</event>
<event>
 5   0  0.3603037E+08  0.9118800E+02  0.7818608E-02  0.1180000E+00
       11   -1    0    0    0    0  0.00000000000E+00  0.00000000000E+00  0.39999999673E+01  0.40000000000E+01  0.51109989000E-03 0. -1.
     -623   -1    0    0    0    0  0.00000000000E+00  0.00000000000E+00  0.12525980253E-10  0.17130000000E+03  0.17130000000E+03 0. -1.
       11    1    1    2    0    0 -0.20095108403E-01  0.26878568406E-02  0.27478441773E+01  0.27479190166E+01  0.51109989000E-03 0. -1.
     -623    1    1    2    0    0  0.30921485179E-01 -0.56111289672E-02  0.28766059454E-03  0.17130000288E+03  0.17130000000E+03 0. -1.
      622    1    1    2    0    0 -0.10826376776E-01  0.29232721266E-02  0.12518681295E+01  0.12520781004E+01  0.20000000000E-01 0. -1.
</event>
<event>
 5   0  0.3603037E+08  0.9118800E+02  0.7818608E-02  0.1180000E+00
       11   -1    0    0    0    0  0.00000000000E+00  0.00000000000E+00  0.39999999673E+01  0.40000000000E+01  0.51109989000E-03 0.  1.
     -623   -1    0    0    0    0  0.00000000000E+00  0.00000000000E+00  0.12525980253E-10  0.17130000000E+03  0.17130000000E+03 0. -1.
       11    1    1    2    0    0 -0.12873718043E-01  0.63539948437E-02  0.15126841624E+01  0.15127523731E+01  0.51109989000E-03 0.  1.
     -623    1    1    2    0    0 -0.34558192140E-02  0.47569453147E-02  0.22711572591E-03  0.17130000010E+03  0.17130000000E+03 0. -1.
      622    1    1    2    0    0  0.16329537257E-01 -0.11110940158E-01  0.24870886892E+01  0.24872475259E+01  0.20000000000E-01 0.  0.
</event>
<event>
 5   0  0.3603037E+08  0.9118800E+02  0.7818608E-02  0.1180000E+00
       11   -1    0    0    0    0  0.00000000000E+00  0.00000000000E+00  0.39999999673E+01  0.40000000000E+01  0.51109989000E-03 0. -1.
     -623   -1    0    0    0    0  0.00000000000E+00  0.00000000000E+00  0.12525980253E-10  0.17130000000E+03  0.17130000000E+03 0.  1.
       11    1    1    2    0    0  0.22434068859E-01  0.28144941471E-02  0.11558168891E+01  0.11560381271E+01  0.51109989000E-03 0. -1.
     -623    1    1    2    0    0  0.46656222552E-02  0.80108195874E-02  0.44150699976E-03  0.17130000025E+03  0.17130000000E+03 0.  1.
      622    1    1    2    0    0 -0.27099691114E-01 -0.10825313734E-01  0.28437415712E+01  0.28439616215E+01  0.20000000000E-01 0. -1.
</event>
<event>
 5   0  0.3603037E+08  0.9118800E+02  0.7818608E-02  0.1180000E+00
       11   -1    0    0    0    0  0.00000000000E+00  0.00000000000E+00  0.39999999673E+01  0.40000000000E+01  0.51109989000E-03 0.  1.
     -623   -1    0    0    0    0  0.00000000000E+00  0.00000000000E+00  0.12525980253E-10  0.17130000000E+03  0.17130000000E+03 0. -1.
       11    1    1    2    0    0 -0.12714721448E-02  0.99475401293E-02  0.84929341569E+00  0.84935277555E+00  0.51109989000E-03 0.  1.
     -623    1    1    2    0    0  0.40580643662E-02 -0.35181315590E-02  0.13068373190E-03  0.17130000008E+03  0.17130000000E+03 0. -1.
      622    1    1    2    0    0 -0.27865922214E-02 -0.64294085703E-02  0.31505758679E+01  0.31506471402E+01  0.20000000000E-01 0.  1.
</event>
<event>
 5   0  0.3603037E+08  0.9118800E+02  0.7818608E-02  0.1180000E+00
       11   -1    0    0    0    0  0.00000000000E+00  0.00000000000E+00  0.39999999673E+01  0.40000000000E+01  0.51109989000E-03 0. -1.
     -623   -1    0    0    0    0  0.00000000000E+00  0.00000000000E+00  0.12525980253E-10  0.17130000000E+03  0.17130000000E+03 0.  1.
       11    1    1    2    0    0  0.12837853664E-01 -0.32851930491E-02  0.18965376961E+01  0.18965840600E+01  0.51109989000E-03 0. -1.
     -623    1    1    2    0    0 -0.10550851639E-01  0.15155264849E-01  0.17715037229E-03  0.17130000100E+03  0.17130000000E+03 0.  1.
      622    1    1    2    0    0 -0.22870020251E-02 -0.11870071800E-01  0.21032851209E+01  0.21034149445E+01  0.20000000000E-01 0. -1.
</event>
<event>
 5   0  0.3603037E+08  0.9118800E+02  0.7818608E-02  0.1180000E+00
       11   -1    0    0    0    0  0.00000000000E+00  0.00000000000E+00  0.39999999673E+01  0.40000000000E+01  0.51109989000E-03 0.  1.
     -623   -1    0    0    0    0  0.00000000000E+00  0.00000000000E+00  0.12525980253E-10  0.17130000000E+03  0.17130000000E+03 0. -1.
       11    1    1    2    0    0  0.22680469769E-02  0.15317513952E-01  0.26897447973E+01  0.26897894167E+01  0.51109989000E-03 0.  1.
     -623    1    1    2    0    0 -0.16564538649E-02  0.39626782455E-03  0.29163895882E-03  0.17130000001E+03  0.17130000000E+03 0. -1.
      622    1    1    2    0    0 -0.61159311198E-03 -0.15713781777E-01  0.13099635311E+01  0.13102105746E+01  0.20000000000E-01 0.  1.
</event>
<event>
 5   0  0.3603037E+08  0.9118800E+02  0.7818608E-02  0.1180000E+00
       11   -1    0    0    0    0  0.00000000000E+00  0.00000000000E+00  0.39999999673E+01  0.40000000000E+01  0.51109989000E-03 0.  1.
     -623   -1    0    0    0    0  0.00000000000E+00  0.00000000000E+00  0.12525980253E-10  0.17130000000E+03  0.17130000000E+03 0.  1.
       11    1    1    2    0    0 -0.34302558583E-02 -0.21584455537E-02  0.43347358266E-01  0.43539410092E-01  0.51109989000E-03 0. -1.
     -623    1    1    2    0    0  0.15200020664E-02  0.17653487218E-03  0.24353431385E-03  0.17130000001E+03  0.17130000000E+03 0.  1.
      622    1    1    2    0    0  0.19102537919E-02  0.19819106815E-02  0.39564090748E+01  0.39564605829E+01  0.20000000000E-01 0.  1.
</event>
<event>
 5   0  0.3603037E+08  0.9118800E+02  0.7818608E-02  0.1180000E+00
       11   -1    0    0    0    0  0.00000000000E+00  0.00000000000E+00  0.39999999673E+01  0.40000000000E+01  0.51109989000E-03 0. -1.
     -623   -1    0    0    0    0  0.00000000000E+00  0.00000000000E+00  0.12525980253E-10  0.17130000000E+03  0.17130000000E+03 0. -1.
       11    1    1    2    0    0 -0.24767704971E-04 -0.68886646613E-03  0.39910855345E-02  0.40822954762E-02  0.51109989000E-03 0. -1.
     -623    1    1    2    0    0 -0.88396437532E-03  0.26601904424E-02  0.14184128959E-03  0.17130000002E+03  0.17130000000E+03 0. -1.
      622    1    1    2    0    0  0.90873208029E-03 -0.19713239763E-02  0.39958670405E+01  0.39959176815E+01  0.20000000000E-01 0. -1.
</event>
<event>
 5   0  0.3603037E+08  0.9118800E+02  0.7818608E-02  0.1180000E+00
       11   -1    0    0    0    0  0.00000000000E+00  0.00000000000E+00  0.39999999673E+01  0.40000000000E+01  0.51109989000E-03 0.  1.
     -623   -1    0    0    0    0  0.00000000000E+00  0.00000000000E+00  0.12525980253E-10  0.17130000000E+03  0.17130000000E+03 0.  1.
       11    1    1    2    0    0 -0.78517179098E-03  0.18624442695E-02  0.67917575876E+00  0.67917895852E+00  0.51109989000E-03 0.  1.
     -623    1    1    2    0    0  0.23690504272E-02  0.29831206537E-03  0.64491101047E-04  0.17130000002E+03  0.17130000000E+03 0.  1.
      622    1    1    2    0    0 -0.15838786363E-02 -0.21607563349E-02  0.33207597175E+01  0.33208210248E+01  0.20000000000E-01 0.  1.
</event>
<event>
 5   0  0.3603037E+08  0.9118800E+02  0.7818608E-02  0.1180000E+00
       11   -1    0    0    0    0  0.00000000000E+00  0.00000000000E+00  0.39999999673E+01  0.40000000000E+01  0.51109989000E-03 0. -1.
     -623   -1    0    0    0    0  0.00000000000E+00  0.00000000000E+00  0.12525980253E-10  0.17130000000E+03  0.17130000000E+03 0.  1.
       11    1    1    2    0    0  0.51888970095E-03  0.17940807789E-03  0.69787153886E-02  0.70189118016E-02  0.51109989000E-03 0. -1.
     -623    1    1    2    0    0  0.19294167892E-03 -0.71503554277E-03  0.90352978191E-04  0.17130000000E+03  0.17130000000E+03 0.  1.
      622    1    1    2    0    0 -0.71183137987E-03  0.53562746488E-03  0.39929308990E+01  0.39929810866E+01  0.20000000000E-01 0. -1.
</event>
<event>
 5   0  0.3603037E+08  0.9118800E+02  0.7818608E-02  0.1180000E+00
       11   -1    0    0    0    0  0.00000000000E+00  0.00000000000E+00  0.39999999673E+01  0.40000000000E+01  0.51109989000E-03 0.  1.
     -623   -1    0    0    0    0  0.00000000000E+00  0.00000000000E+00  0.12525980253E-10  0.17130000000E+03  0.17130000000E+03 0. -1.
       11    1    1    2    0    0 -0.71847764279E-02 -0.63753521560E-02  0.76579004159E-01  0.77180769804E-01  0.51109989000E-03 0.  1.
     -623    1    1    2    0    0  0.11926541125E-01  0.26108757052E-02  0.65782559264E-03  0.17130000044E+03  0.17130000000E+03 0. -1.
      622    1    1    2    0    0 -0.47417646969E-02  0.37644764508E-02  0.39227631376E+01  0.39228187939E+01  0.20000000000E-01 0.  1.
</event>
<event>
 5   0  0.3603037E+08  0.9118800E+02  0.7818608E-02  0.1180000E+00
       11   -1    0    0    0    0  0.00000000000E+00  0.00000000000E+00  0.39999999673E+01  0.40000000000E+01  0.51109989000E-03 0.  1.
     -623   -1    0    0    0    0  0.00000000000E+00  0.00000000000E+00  0.12525980253E-10  0.17130000000E+03  0.17130000000E+03 0. -1.
       11    1    1    2    0    0 -0.10089942740E-02  0.16874056245E-01  0.34592909515E+00  0.34634224683E+00  0.51109989000E-03 0.  1.
     -623    1    1    2    0    0 -0.50306393756E-03  0.16005444702E-02  0.51489009459E-03  0.17130000001E+03  0.17130000000E+03 0. -1.
      622    1    1    2    0    0  0.15120582115E-02 -0.18474600716E-01  0.36535559821E+01  0.36536577442E+01  0.20000000000E-01 0.  1.
</event>
<event>
 5   0  0.3603037E+08  0.9118800E+02  0.7818608E-02  0.1180000E+00
       11   -1    0    0    0    0  0.00000000000E+00  0.00000000000E+00  0.39999999673E+01  0.40000000000E+01  0.51109989000E-03 0.  1.
     -623   -1    0    0    0    0  0.00000000000E+00  0.00000000000E+00  0.12525980253E-10  0.17130000000E+03  0.17130000000E+03 0.  1.
       11    1    1    2    0    0 -0.91028767896E-02  0.48764819659E-03  0.28414817702E+01  0.28414964388E+01  0.51109989000E-03 0.  1.
     -623    1    1    2    0    0  0.28017906006E-02  0.32045203809E-03  0.20472900493E-03  0.17130000002E+03  0.17130000000E+03 0.  1.
      622    1    1    2    0    0  0.63010861890E-02 -0.80810023468E-03  0.11583134682E+01  0.11585035379E+01  0.20000000000E-01 0.  1.
</event>
<event>
 5   0  0.3603037E+08  0.9118800E+02  0.7818608E-02  0.1180000E+00
       11   -1    0    0    0    0  0.00000000000E+00  0.00000000000E+00  0.39999999673E+01  0.40000000000E+01  0.51109989000E-03 0. -1.
     -623   -1    0    0    0    0  0.00000000000E+00  0.00000000000E+00  0.12525980253E-10  0.17130000000E+03  0.17130000000E+03 0.  1.
       11    1    1    2    0    0  0.72091086741E-02 -0.85656348010E-02  0.15171115926E+00  0.15212454902E+00  0.51109989000E-03 0. -1.
     -623    1    1    2    0    0 -0.11005656401E-01  0.55066975854E-02  0.46886577923E-03  0.17130000044E+03  0.17130000000E+03 0.  1.
      622    1    1    2    0    0  0.37965477265E-02  0.30589372156E-02  0.38478199423E+01  0.38478750083E+01  0.20000000000E-01 0. -1.
</event>
<event>
 5   0  0.3603037E+08  0.9118800E+02  0.7818608E-02  0.1180000E+00
       11   -1    0    0    0    0  0.00000000000E+00  0.00000000000E+00  0.39999999673E+01  0.40000000000E+01  0.51109989000E-03 0.  1.
     -623   -1    0    0    0    0  0.00000000000E+00  0.00000000000E+00  0.12525980253E-10  0.17130000000E+03  0.17130000000E+03 0. -1.
       11    1    1    2    0    0  0.17663361965E-02 -0.29977244151E-02  0.55081987523E-01  0.55194137977E-01  0.51109989000E-03 0. -1.
     -623    1    1    2    0    0 -0.27544485827E-04  0.20992464288E-03  0.16418622977E-03  0.17130000000E+03  0.17130000000E+03 0. -1.
      622    1    1    2    0    0 -0.17387917107E-02  0.27877997722E-02  0.39447537936E+01  0.39448058618E+01  0.20000000000E-01 0.  1.
</event>
<event>
 5   0  0.3603037E+08  0.9118800E+02  0.7818608E-02  0.1180000E+00
       11   -1    0    0    0    0  0.00000000000E+00  0.00000000000E+00  0.39999999673E+01  0.40000000000E+01  0.51109989000E-03 0. -1.
     -623   -1    0    0    0    0  0.00000000000E+00  0.00000000000E+00  0.12525980253E-10  0.17130000000E+03  0.17130000000E+03 0.  1.
       11    1    1    2    0    0 -0.10751417181E-01 -0.18188120848E-02  0.21811188246E+00  0.21838487938E+00  0.51109989000E-03 0. -1.
     -623    1    1    2    0    0 -0.35781380202E-02  0.38315726197E-02  0.35361808657E-03  0.17130000008E+03  0.17130000000E+03 0.  1.
      622    1    1    2    0    0  0.14329555201E-01 -0.20127605349E-02  0.37815344668E+01  0.37816150400E+01  0.20000000000E-01 0. -1.
</event>
<event>
 5   0  0.3603037E+08  0.9118800E+02  0.7818608E-02  0.1180000E+00
       11   -1    0    0    0    0  0.00000000000E+00  0.00000000000E+00  0.39999999673E+01  0.40000000000E+01  0.51109989000E-03 0.  1.
     -623   -1    0    0    0    0  0.00000000000E+00  0.00000000000E+00  0.12525980253E-10  0.17130000000E+03  0.17130000000E+03 0. -1.
       11    1    1    2    0    0 -0.11511238580E-01 -0.57312704411E-02  0.10278202313E+01  0.10279007954E+01  0.51109989000E-03 0.  1.
     -623    1    1    2    0    0  0.85919298499E-03 -0.26831167529E-02  0.17884847928E-03  0.17130000002E+03  0.17130000000E+03 0. -1.
      622    1    1    2    0    0  0.10652045595E-01  0.84143871940E-02  0.29720008876E+01  0.29720991813E+01  0.20000000000E-01 0.  0.
</event>
<event>
 5   0  0.3603037E+08  0.9118800E+02  0.7818608E-02  0.1180000E+00
       11   -1    0    0    0    0  0.00000000000E+00  0.00000000000E+00  0.39999999673E+01  0.40000000000E+01  0.51109989000E-03 0.  1.
     -623   -1    0    0    0    0  0.00000000000E+00  0.00000000000E+00  0.12525980253E-10  0.17130000000E+03  0.17130000000E+03 0.  1.
       11    1    1    2    0    0 -0.73243258510E-02  0.59450027317E-03  0.73432093749E+00  0.73435788253E+00  0.51109989000E-03 0.  1.
     -623    1    1    2    0    0  0.25414766668E-02  0.45622188760E-02  0.10581038152E-03  0.17130000008E+03  0.17130000000E+03 0.  1.
      622    1    1    2    0    0  0.47828491843E-02 -0.51567191492E-02  0.32655732195E+01  0.32656420378E+01  0.20000000000E-01 0.  1.
</event>
<event>
 5   0  0.3603037E+08  0.9118800E+02  0.7818608E-02  0.1180000E+00
       11   -1    0    0    0    0  0.00000000000E+00  0.00000000000E+00  0.39999999673E+01  0.40000000000E+01  0.51109989000E-03 0. -1.
     -623   -1    0    0    0    0  0.00000000000E+00  0.00000000000E+00  0.12525980253E-10  0.17130000000E+03  0.17130000000E+03 0. -1.
       11    1    1    2    0    0 -0.42818891634E-02  0.10630956027E-01  0.20165049507E+00  0.20197657088E+00  0.51109989000E-03 0. -1.
     -623    1    1    2    0    0  0.11657674753E-02 -0.21274401990E-03  0.39427452730E-03  0.17130000000E+03  0.17130000000E+03 0. -1.
      622    1    1    2    0    0  0.31161216881E-02 -0.10418212007E-01  0.37979551978E+01  0.37980234246E+01  0.20000000000E-01 0. -1.
</event>
<event>
 5   0  0.3603037E+08  0.9118800E+02  0.7818608E-02  0.1180000E+00
       11   -1    0    0    0    0  0.00000000000E+00  0.00000000000E+00  0.39999999673E+01  0.40000000000E+01  0.51109989000E-03 0.  1.
     -623   -1    0    0    0    0  0.00000000000E+00  0.00000000000E+00  0.12525980253E-10  0.17130000000E+03  0.17130000000E+03 0. -1.
       11    1    1    2    0    0  0.11040296162E-01 -0.83200605653E-03  0.14368517906E+00  0.14411201295E+00  0.51109989000E-03 0.  1.
     -623    1    1    2    0    0 -0.74710652641E-02  0.48782890432E-02  0.48267842485E-03  0.17130000023E+03  0.17130000000E+03 0. -1.
      622    1    1    2    0    0 -0.35692308982E-02 -0.40462829867E-02  0.38558321099E+01  0.38558877540E+01  0.20000000000E-01 0.  1.
</event>
<event>
 5   0  0.3603037E+08  0.9118800E+02  0.7818608E-02  0.1180000E+00
       11   -1    0    0    0    0  0.00000000000E+00  0.00000000000E+00  0.39999999673E+01  0.40000000000E+01  0.51109989000E-03 0. -1.
     -623   -1    0    0    0    0  0.00000000000E+00  0.00000000000E+00  0.12525980253E-10  0.17130000000E+03  0.17130000000E+03 0.  1.
       11    1    1    2    0    0  0.89316139852E-03  0.29102196316E-02  0.24855853645E+00  0.24857770290E+00  0.51109989000E-03 0. -1.
     -623    1    1    2    0    0 -0.35194146738E-02 -0.71994983458E-03  0.74043679498E-04  0.17130000004E+03  0.17130000000E+03 0.  1.
      622    1    1    2    0    0  0.26262532753E-02 -0.21902697971E-02  0.37513673872E+01  0.37514222594E+01  0.20000000000E-01 0. -1.
</event>
<event>
 5   0  0.3603037E+08  0.9118800E+02  0.7818608E-02  0.1180000E+00
       11   -1    0    0    0    0  0.00000000000E+00  0.00000000000E+00  0.39999999673E+01  0.40000000000E+01  0.51109989000E-03 0. -1.
     -623   -1    0    0    0    0  0.00000000000E+00  0.00000000000E+00  0.12525980253E-10  0.17130000000E+03  0.17130000000E+03 0.  1.
       11    1    1    2    0    0  0.42839340910E-03  0.12182601505E-03  0.75093211734E-01  0.75096271758E-01  0.51109989000E-03 0. -1.
     -623    1    1    2    0    0 -0.27385230696E-03 -0.35177025621E-03  0.53994745306E-04  0.17130000000E+03  0.17130000000E+03 0.  1.
      622    1    1    2    0    0 -0.15454110213E-03  0.22994424115E-03  0.39248527609E+01  0.39249037277E+01  0.20000000000E-01 0. -1.
</event>
<event>
 5   0  0.3603037E+08  0.9118800E+02  0.7818608E-02  0.1180000E+00
       11   -1    0    0    0    0  0.00000000000E+00  0.00000000000E+00  0.39999999673E+01  0.40000000000E+01  0.51109989000E-03 0. -1.
     -623   -1    0    0    0    0  0.00000000000E+00  0.00000000000E+00  0.12525980253E-10  0.17130000000E+03  0.17130000000E+03 0.  1.
       11    1    1    2    0    0  0.15063866441E-02 -0.13242366677E-02  0.19005561881E-01  0.19117934153E-01  0.51109989000E-03 0. -1.
     -623    1    1    2    0    0 -0.84075081033E-03 -0.62459274879E-03  0.16311602910E-03  0.17130000000E+03  0.17130000000E+03 0.  1.
      622    1    1    2    0    0 -0.66563583375E-03  0.19488294165E-02  0.39808312894E+01  0.39808820626E+01  0.20000000000E-01 0. -1.
</event>
<event>
 5   0  0.3603037E+08  0.9118800E+02  0.7818608E-02  0.1180000E+00
       11   -1    0    0    0    0  0.00000000000E+00  0.00000000000E+00  0.39999999673E+01  0.40000000000E+01  0.51109989000E-03 0. -1.
     -623   -1    0    0    0    0  0.00000000000E+00  0.00000000000E+00  0.12525980253E-10  0.17130000000E+03  0.17130000000E+03 0.  1.
       11    1    1    2    0    0 -0.47643947585E-02  0.13323596833E-01  0.34987518193E+01  0.34987804693E+01  0.51109989000E-03 0. -1.
     -623    1    1    2    0    0 -0.11320431272E-02  0.95714708986E-03  0.66618408826E-03  0.17130000001E+03  0.17130000000E+03 0.  1.
      622    1    1    2    0    0  0.58964378858E-02 -0.14280743923E-01  0.50058196397E+00  0.50121952304E+00  0.20000000000E-01 0.  1.
</event>
<event>
 5   0  0.3603037E+08  0.9118800E+02  0.7818608E-02  0.1180000E+00
       11   -1    0    0    0    0  0.00000000000E+00  0.00000000000E+00  0.39999999673E+01  0.40000000000E+01  0.51109989000E-03 0.  1.
     -623   -1    0    0    0    0  0.00000000000E+00  0.00000000000E+00  0.12525980253E-10  0.17130000000E+03  0.17130000000E+03 0.  1.
       11    1    1    2    0    0 -0.75331568636E-04  0.51693581860E-02  0.72730087625E-01  0.72915394850E-01  0.51109989000E-03 0.  1.
     -623    1    1    2    0    0 -0.33069439839E-02 -0.45218459330E-02  0.23780497526E-03  0.17130000009E+03  0.17130000000E+03 0.  1.
      622    1    1    2    0    0  0.33822755525E-02 -0.64751225295E-03  0.39270320748E+01  0.39270845134E+01  0.20000000000E-01 0.  1.
</event>
<event>
 5   0  0.3603037E+08  0.9118800E+02  0.7818608E-02  0.1180000E+00
       11   -1    0    0    0    0  0.00000000000E+00  0.00000000000E+00  0.39999999673E+01  0.40000000000E+01  0.51109989000E-03 0.  1.
     -623   -1    0    0    0    0  0.00000000000E+00  0.00000000000E+00  0.12525980253E-10  0.17130000000E+03  0.17130000000E+03 0.  1.
       11    1    1    2    0    0  0.80647864783E-02 -0.88204756820E-02  0.20502763498E+01  0.20503112480E+01  0.51109989000E-03 0.  1.
     -623    1    1    2    0    0  0.74120961482E-03 -0.50006804831E-02  0.20640329744E-03  0.17130000007E+03  0.17130000000E+03 0.  1.
      622    1    1    2    0    0 -0.88059960932E-02  0.13821156165E-01  0.19495172142E+01  0.19496886773E+01  0.20000000000E-01 0.  0.
</event>
<event>
 5   0  0.3603037E+08  0.9118800E+02  0.7818608E-02  0.1180000E+00
       11   -1    0    0    0    0  0.00000000000E+00  0.00000000000E+00  0.39999999673E+01  0.40000000000E+01  0.51109989000E-03 0.  1.
     -623   -1    0    0    0    0  0.00000000000E+00  0.00000000000E+00  0.12525980253E-10  0.17130000000E+03  0.17130000000E+03 0.  1.
       11    1    1    2    0    0  0.18555738207E-01 -0.91444797070E-03  0.32391886600E+01  0.32392419774E+01  0.51109989000E-03 0.  1.
     -623    1    1    2    0    0  0.14881099578E-02 -0.52196841792E-02  0.60524771807E-03  0.17130000009E+03  0.17130000000E+03 0.  1.
      622    1    1    2    0    0 -0.20043848165E-01  0.61341321499E-02  0.76020605962E+00  0.76075793556E+00  0.20000000000E-01 0. -1.
</event>
<event>
 5   0  0.3603037E+08  0.9118800E+02  0.7818608E-02  0.1180000E+00
       11   -1    0    0    0    0  0.00000000000E+00  0.00000000000E+00  0.39999999673E+01  0.40000000000E+01  0.51109989000E-03 0. -1.
     -623   -1    0    0    0    0  0.00000000000E+00  0.00000000000E+00  0.12525980253E-10  0.17130000000E+03  0.17130000000E+03 0. -1.
       11    1    1    2    0    0  0.32627304400E-02 -0.13442076808E-01  0.17804773404E+01  0.17805311443E+01  0.51109989000E-03 0. -1.
     -623    1    1    2    0    0 -0.57638020241E-02  0.10225375065E-01  0.14802731395E-03  0.17130000040E+03  0.17130000000E+03 0. -1.
      622    1    1    2    0    0  0.25010715841E-02  0.32167017423E-02  0.22193745996E+01  0.22194684535E+01  0.20000000000E-01 0.  0.
</event>
<event>
 5   0  0.3603037E+08  0.9118800E+02  0.7818608E-02  0.1180000E+00
       11   -1    0    0    0    0  0.00000000000E+00  0.00000000000E+00  0.39999999673E+01  0.40000000000E+01  0.51109989000E-03 0.  1.
     -623   -1    0    0    0    0  0.00000000000E+00  0.00000000000E+00  0.12525980253E-10  0.17130000000E+03  0.17130000000E+03 0. -1.
       11    1    1    2    0    0 -0.11497780630E-01  0.17426157051E-02  0.55806798002E+00  0.55818936501E+00  0.51109989000E-03 0.  1.
     -623    1    1    2    0    0  0.15360701807E-01 -0.27314906310E-04  0.18274586328E-03  0.17130000069E+03  0.17130000000E+03 0. -1.
      622    1    1    2    0    0 -0.38629211769E-02 -0.17153007987E-02  0.34417492415E+01  0.34418099462E+01  0.20000000000E-01 0.  1.
</event>
<event>
 5   0  0.3603037E+08  0.9118800E+02  0.7818608E-02  0.1180000E+00
       11   -1    0    0    0    0  0.00000000000E+00  0.00000000000E+00  0.39999999673E+01  0.40000000000E+01  0.51109989000E-03 0.  1.
     -623   -1    0    0    0    0  0.00000000000E+00  0.00000000000E+00  0.12525980253E-10  0.17130000000E+03  0.17130000000E+03 0.  1.
       11    1    1    2    0    0 -0.24969797122E-01  0.32801536609E-01  0.94908026733E+00  0.94997528738E+00  0.51109989000E-03 0.  1.
     -623    1    1    2    0    0 -0.13936148839E-01 -0.24831144895E-02  0.13600158325E-02  0.17130000059E+03  0.17130000000E+03 0.  1.
      622    1    1    2    0    0  0.38905945961E-01 -0.30318422119E-01  0.30495596842E+01  0.30500241223E+01  0.20000000000E-01 0.  1.
</event>
<event>
 5   0  0.3603037E+08  0.9118800E+02  0.7818608E-02  0.1180000E+00
       11   -1    0    0    0    0  0.00000000000E+00  0.00000000000E+00  0.39999999673E+01  0.40000000000E+01  0.51109989000E-03 0.  1.
     -623   -1    0    0    0    0  0.00000000000E+00  0.00000000000E+00  0.12525980253E-10  0.17130000000E+03  0.17130000000E+03 0. -1.
       11    1    1    2    0    0  0.16404132756E-02  0.20852739073E-03  0.26929916393E-02  0.32012287507E-02  0.51109989000E-03 0.  1.
     -623    1    1    2    0    0 -0.10971444168E-02  0.10807749820E-02  0.55849754477E-03  0.17130000001E+03  0.17130000000E+03 0. -1.
      622    1    1    2    0    0 -0.54326885873E-03 -0.12893023727E-02  0.39967484782E+01  0.39967987634E+01  0.20000000000E-01 0.  1.
</event>
<event>
 5   0  0.3603037E+08  0.9118800E+02  0.7818608E-02  0.1180000E+00
       11   -1    0    0    0    0  0.00000000000E+00  0.00000000000E+00  0.39999999673E+01  0.40000000000E+01  0.51109989000E-03 0. -1.
     -623   -1    0    0    0    0  0.00000000000E+00  0.00000000000E+00  0.12525980253E-10  0.17130000000E+03  0.17130000000E+03 0. -1.
       11    1    1    2    0    0 -0.40164195183E-02  0.63557283989E-03  0.13881702395E+01  0.13881762894E+01  0.51109989000E-03 0. -1.
     -623    1    1    2    0    0  0.21157598627E-03  0.16844284705E-02  0.86403638809E-04  0.17130000001E+03  0.17130000000E+03 0. -1.
      622    1    1    2    0    0  0.38048435321E-02 -0.23200013104E-02  0.26117433242E+01  0.26118237021E+01  0.20000000000E-01 0. -1.
</event>
<event>
 5   0  0.3603037E+08  0.9118800E+02  0.7818608E-02  0.1180000E+00
       11   -1    0    0    0    0  0.00000000000E+00  0.00000000000E+00  0.39999999673E+01  0.40000000000E+01  0.51109989000E-03 0. -1.
     -623   -1    0    0    0    0  0.00000000000E+00  0.00000000000E+00  0.12525980253E-10  0.17130000000E+03  0.17130000000E+03 0. -1.
       11    1    1    2    0    0 -0.11271686627E-01 -0.49520732681E-02  0.26507457298E+01  0.26507743697E+01  0.51109989000E-03 0. -1.
     -623    1    1    2    0    0 -0.17690646107E-02  0.36596927656E-02  0.24054625211E-03  0.17130000005E+03  0.17130000000E+03 0. -1.
      622    1    1    2    0    0  0.13040751237E-01  0.12923805026E-02  0.13490136913E+01  0.13492255819E+01  0.20000000000E-01 0.  1.
</event>
<event>
 5   0  0.3603037E+08  0.9118800E+02  0.7818608E-02  0.1180000E+00
       11   -1    0    0    0    0  0.00000000000E+00  0.00000000000E+00  0.39999999673E+01  0.40000000000E+01  0.51109989000E-03 0.  1.
     -623   -1    0    0    0    0  0.00000000000E+00  0.00000000000E+00  0.12525980253E-10  0.17130000000E+03  0.17130000000E+03 0.  1.
       11    1    1    2    0    0 -0.55040306687E-02 -0.94966937890E-02  0.15739304783E+01  0.15739688349E+01  0.51109989000E-03 0.  1.
     -623    1    1    2    0    0 -0.13428892980E-02  0.14337881489E-02  0.14383722136E-03  0.17130000001E+03  0.17130000000E+03 0.  1.
      622    1    1    2    0    0  0.68469199667E-02  0.80629056402E-02  0.24259256519E+01  0.24260311538E+01  0.20000000000E-01 0.  1.
</event>
<event>
 5   0  0.3603037E+08  0.9118800E+02  0.7818608E-02  0.1180000E+00
       11   -1    0    0    0    0  0.00000000000E+00  0.00000000000E+00  0.39999999673E+01  0.40000000000E+01  0.51109989000E-03 0. -1.
     -623   -1    0    0    0    0  0.00000000000E+00  0.00000000000E+00  0.12525980253E-10  0.17130000000E+03  0.17130000000E+03 0. -1.
       11    1    1    2    0    0  0.58909710874E-02 -0.41153999741E-02  0.27133591097E+00  0.27143153439E+00  0.51109989000E-03 0. -1.
     -623    1    1    2    0    0  0.71163316205E-03  0.16227440250E-02  0.15591959167E-03  0.17130000001E+03  0.17130000000E+03 0. -1.
      622    1    1    2    0    0 -0.66026042495E-02  0.24926559491E-02  0.37285081368E+01  0.37285684564E+01  0.20000000000E-01 0. -1.
</event>
<event>
 5   0  0.3603037E+08  0.9118800E+02  0.7818608E-02  0.1180000E+00
       11   -1    0    0    0    0  0.00000000000E+00  0.00000000000E+00  0.39999999673E+01  0.40000000000E+01  0.51109989000E-03 0.  1.
     -623   -1    0    0    0    0  0.00000000000E+00  0.00000000000E+00  0.12525980253E-10  0.17130000000E+03  0.17130000000E+03 0.  1.
       11    1    1    2    0    0  0.57630858128E-02 -0.90284682088E-03  0.71585601572E-01  0.71824702335E-01  0.51109989000E-03 0.  1.
     -623    1    1    2    0    0 -0.32526504973E-03  0.12225286513E-02  0.29376447998E-03  0.17130000000E+03  0.17130000000E+03 0.  1.
      622    1    1    2    0    0 -0.54378207630E-02 -0.31968183038E-03  0.39281206013E+01  0.39281752927E+01  0.20000000000E-01 0.  1.
</event>
<event>
 5   0  0.3603037E+08  0.9118800E+02  0.7818608E-02  0.1180000E+00
       11   -1    0    0    0    0  0.00000000000E+00  0.00000000000E+00  0.39999999673E+01  0.40000000000E+01  0.51109989000E-03 0.  1.
     -623   -1    0    0    0    0  0.00000000000E+00  0.00000000000E+00  0.12525980253E-10  0.17130000000E+03  0.17130000000E+03 0.  1.
       11    1    1    2    0    0 -0.55920033697E-03 -0.16561563435E-03  0.14374357525E-01  0.14395259983E-01  0.51109989000E-03 0.  1.
     -623    1    1    2    0    0 -0.98372372480E-04  0.83315714026E-03  0.71162942863E-04  0.17130000000E+03  0.17130000000E+03 0.  1.
      622    1    1    2    0    0  0.65757270945E-03 -0.66754150591E-03  0.39855544469E+01  0.39856047379E+01  0.20000000000E-01 0.  1.
</event>
<event>
 5   0  0.3603037E+08  0.9118800E+02  0.7818608E-02  0.1180000E+00
       11   -1    0    0    0    0  0.00000000000E+00  0.00000000000E+00  0.39999999673E+01  0.40000000000E+01  0.51109989000E-03 0. -1.
     -623   -1    0    0    0    0  0.00000000000E+00  0.00000000000E+00  0.12525980253E-10  0.17130000000E+03  0.17130000000E+03 0.  1.
       11    1    1    2    0    0 -0.18153225331E-02 -0.34002292010E-02  0.95015986622E-01  0.95095509308E-01  0.51109989000E-03 0. -1.
     -623    1    1    2    0    0  0.25442147679E-02  0.15232207098E-02  0.13125289571E-03  0.17130000003E+03  0.17130000000E+03 0.  1.
      622    1    1    2    0    0 -0.72889223472E-03  0.18770084912E-02  0.39048527278E+01  0.39049044650E+01  0.20000000000E-01 0. -1.
</event>
<event>
 5   0  0.3603037E+08  0.9118800E+02  0.7818608E-02  0.1180000E+00
       11   -1    0    0    0    0  0.00000000000E+00  0.00000000000E+00  0.39999999673E+01  0.40000000000E+01  0.51109989000E-03 0. -1.
     -623   -1    0    0    0    0  0.00000000000E+00  0.00000000000E+00  0.12525980253E-10  0.17130000000E+03  0.17130000000E+03 0. -1.
       11    1    1    2    0    0 -0.31441406842E-03  0.12888655495E-02  0.24285427919E-01  0.24327006849E-01  0.51109989000E-03 0. -1.
     -623    1    1    2    0    0 -0.18192673016E-03 -0.22597194803E-03  0.92025893704E-04  0.17130000000E+03  0.17130000000E+03 0. -1.
      622    1    1    2    0    0  0.49634079858E-03 -0.10628936015E-02  0.39756225135E+01  0.39756729929E+01  0.20000000000E-01 0. -1.
</event>
<event>
 5   0  0.3603037E+08  0.9118800E+02  0.7818608E-02  0.1180000E+00
       11   -1    0    0    0    0  0.00000000000E+00  0.00000000000E+00  0.39999999673E+01  0.40000000000E+01  0.51109989000E-03 0.  1.
     -623   -1    0    0    0    0  0.00000000000E+00  0.00000000000E+00  0.12525980253E-10  0.17130000000E+03  0.17130000000E+03 0. -1.
       11    1    1    2    0    0  0.32515755502E-03  0.39037882927E-02  0.14219277296E+01  0.14219332174E+01  0.51109989000E-03 0.  1.
     -623    1    1    2    0    0  0.33391667129E-02 -0.34940286790E-02  0.85738810803E-04  0.17130000007E+03  0.17130000000E+03 0. -1.
      622    1    1    2    0    0 -0.36643242679E-02 -0.40975961371E-03  0.25779864989E+01  0.25780667144E+01  0.20000000000E-01 0.  1.
</event>
<event>
 5   0  0.3603037E+08  0.9118800E+02  0.7818608E-02  0.1180000E+00
       11   -1    0    0    0    0  0.00000000000E+00  0.00000000000E+00  0.39999999673E+01  0.40000000000E+01  0.51109989000E-03 0. -1.
     -623   -1    0    0    0    0  0.00000000000E+00  0.00000000000E+00  0.12525980253E-10  0.17130000000E+03  0.17130000000E+03 0.  1.
       11    1    1    2    0    0 -0.55422440154E-02 -0.30331036622E-04  0.14820241689E-01  0.15830924653E-01  0.51109989000E-03 0. -1.
     -623    1    1    2    0    0  0.52879032122E-03 -0.37808231735E-03  0.10640291490E-02  0.17130000000E+03  0.17130000000E+03 0.  1.
      622    1    1    2    0    0  0.50134536942E-02  0.40841335397E-03  0.39841156965E+01  0.39841690708E+01  0.20000000000E-01 0. -1.
</event>
<event>
 5   0  0.3603037E+08  0.9118800E+02  0.7818608E-02  0.1180000E+00
       11   -1    0    0    0    0  0.00000000000E+00  0.00000000000E+00  0.39999999673E+01  0.40000000000E+01  0.51109989000E-03 0.  1.
     -623   -1    0    0    0    0  0.00000000000E+00  0.00000000000E+00  0.12525980253E-10  0.17130000000E+03  0.17130000000E+03 0.  1.
       11    1    1    2    0    0  0.37658039982E-04 -0.32842972999E-03  0.61380239711E-01  0.61383257769E-01  0.51109989000E-03 0.  1.
     -623    1    1    2    0    0  0.66973528523E-04 -0.91907934636E-04  0.53788860112E-04  0.17130000000E+03  0.17130000000E+03 0.  1.
      622    1    1    2    0    0 -0.10463156851E-03  0.42033766463E-03  0.39385659388E+01  0.39386167422E+01  0.20000000000E-01 0.  1.
</event>
<event>
 5   0  0.3603037E+08  0.9118800E+02  0.7818608E-02  0.1180000E+00
       11   -1    0    0    0    0  0.00000000000E+00  0.00000000000E+00  0.39999999673E+01  0.40000000000E+01  0.51109989000E-03 0.  1.
     -623   -1    0    0    0    0  0.00000000000E+00  0.00000000000E+00  0.12525980253E-10  0.17130000000E+03  0.17130000000E+03 0. -1.
       11    1    1    2    0    0 -0.13422559302E-02 -0.19810667472E-03  0.84426701921E-01  0.84439150368E-01  0.51109989000E-03 0.  1.
     -623    1    1    2    0    0  0.73112989583E-04  0.10213975607E-03  0.63701310535E-04  0.17130000000E+03  0.17130000000E+03 0. -1.
      622    1    1    2    0    0  0.12691429406E-02  0.95966918652E-04  0.39155095641E+01  0.39155608496E+01  0.20000000000E-01 0.  1.
</event>
<event>
 5   0  0.3603037E+08  0.9118800E+02  0.7818608E-02  0.1180000E+00
       11   -1    0    0    0    0  0.00000000000E+00  0.00000000000E+00  0.39999999673E+01  0.40000000000E+01  0.51109989000E-03 0. -1.
     -623   -1    0    0    0    0  0.00000000000E+00  0.00000000000E+00  0.12525980253E-10  0.17130000000E+03  0.17130000000E+03 0. -1.
       11    1    1    2    0    0  0.36055502337E-01  0.80936877856E-03  0.32062901589E+01  0.32064930218E+01  0.51109989000E-03 0. -1.
     -623    1    1    2    0    0 -0.26020200210E-01  0.76075636861E-02  0.56520208293E-03  0.17130000215E+03  0.17130000000E+03 0. -1.
      622    1    1    2    0    0 -0.10035302128E-01 -0.84169324647E-02  0.79314460633E+00  0.79350483212E+00  0.20000000000E-01 0.  1.
</event>
<event>
 5   0  0.3603037E+08  0.9118800E+02  0.7818608E-02  0.1180000E+00
       11   -1    0    0    0    0  0.00000000000E+00  0.00000000000E+00  0.39999999673E+01  0.40000000000E+01  0.51109989000E-03 0.  1.
     -623   -1    0    0    0    0  0.00000000000E+00  0.00000000000E+00  0.12525980253E-10  0.17130000000E+03  0.17130000000E+03 0. -1.
       11    1    1    2    0    0 -0.10135466939E-02 -0.88918181950E-04  0.55091595183E-02  0.56255881420E-02  0.51109989000E-03 0.  1.
     -623    1    1    2    0    0  0.93514459212E-03 -0.90080787620E-03  0.16659510673E-03  0.17130000001E+03  0.17130000000E+03 0. -1.
      622    1    1    2    0    0  0.78402101782E-04  0.98972605815E-03  0.39943242127E+01  0.39943744069E+01  0.20000000000E-01 0.  1.
</event>
<event>
 5   0  0.3603037E+08  0.9118800E+02  0.7818608E-02  0.1180000E+00
       11   -1    0    0    0    0  0.00000000000E+00  0.00000000000E+00  0.39999999673E+01  0.40000000000E+01  0.51109989000E-03 0.  1.
     -623   -1    0    0    0    0  0.00000000000E+00  0.00000000000E+00  0.12525980253E-10  0.17130000000E+03  0.17130000000E+03 0. -1.
       11    1    1    2    0    0  0.20125595556E-02  0.60707471111E-03  0.23660997090E+00  0.23661986071E+00  0.51109989000E-03 0.  1.
     -623    1    1    2    0    0 -0.18941908578E-04 -0.36201396663E-03  0.63537700949E-04  0.17130000000E+03  0.17130000000E+03 0. -1.
      622    1    1    2    0    0 -0.19936176470E-02 -0.24506074448E-03  0.37633264588E+01  0.37633801389E+01  0.20000000000E-01 0.  1.
</event>
<event>
 5   0  0.3603037E+08  0.9118800E+02  0.7818608E-02  0.1180000E+00
       11   -1    0    0    0    0  0.00000000000E+00  0.00000000000E+00  0.39999999673E+01  0.40000000000E+01  0.51109989000E-03 0. -1.
     -623   -1    0    0    0    0  0.00000000000E+00  0.00000000000E+00  0.12525980253E-10  0.17130000000E+03  0.17130000000E+03 0. -1.
       11    1    1    2    0    0  0.17337236910E-03 -0.92937045337E-03  0.34184403457E-01  0.34201293068E-01  0.51109989000E-03 0. -1.
     -623    1    1    2    0    0 -0.95243074543E-03  0.72684224683E-03  0.67374390900E-04  0.17130000000E+03  0.17130000000E+03 0. -1.
      622    1    1    2    0    0  0.77905837633E-03  0.20252820655E-03  0.39657481895E+01  0.39657987027E+01  0.20000000000E-01 0. -1.
</event>
<event>
 5   0  0.3603037E+08  0.9118800E+02  0.7818608E-02  0.1180000E+00
       11   -1    0    0    0    0  0.00000000000E+00  0.00000000000E+00  0.39999999673E+01  0.40000000000E+01  0.51109989000E-03 0. -1.
     -623   -1    0    0    0    0  0.00000000000E+00  0.00000000000E+00  0.12525980253E-10  0.17130000000E+03  0.17130000000E+03 0. -1.
       11    1    1    2    0    0  0.74799243781E-04  0.10340260866E-02  0.86229577749E-02  0.87000820029E-02  0.51109989000E-03 0. -1.
     -623    1    1    2    0    0 -0.31827348248E-03 -0.14982742711E-03  0.12730666538E-03  0.17130000000E+03  0.17130000000E+03 0. -1.
      622    1    1    2    0    0  0.24347423870E-03 -0.88419865945E-03  0.39912497029E+01  0.39912999176E+01  0.20000000000E-01 0. -1.
</event>
<event>
 5   0  0.3603037E+08  0.9118800E+02  0.7818608E-02  0.1180000E+00
       11   -1    0    0    0    0  0.00000000000E+00  0.00000000000E+00  0.39999999673E+01  0.40000000000E+01  0.51109989000E-03 0. -1.
     -623   -1    0    0    0    0  0.00000000000E+00  0.00000000000E+00  0.12525980253E-10  0.17130000000E+03  0.17130000000E+03 0.  1.
       11    1    1    2    0    0 -0.26156104895E-03  0.15623579822E-02  0.22101636882E-01  0.22164226806E-01  0.51109989000E-03 0. -1.
     -623    1    1    2    0    0  0.80423717757E-03 -0.14924113989E-03  0.11312621289E-03  0.17130000000E+03  0.17130000000E+03 0.  1.
      622    1    1    2    0    0 -0.54267612862E-03 -0.14131168423E-02  0.39777852043E+01  0.39778357712E+01  0.20000000000E-01 0. -1.
</event>
<event>
 5   0  0.3603037E+08  0.9118800E+02  0.7818608E-02  0.1180000E+00
       11   -1    0    0    0    0  0.00000000000E+00  0.00000000000E+00  0.39999999673E+01  0.40000000000E+01  0.51109989000E-03 0. -1.
     -623   -1    0    0    0    0  0.00000000000E+00  0.00000000000E+00  0.12525980253E-10  0.17130000000E+03  0.17130000000E+03 0. -1.
       11    1    1    2    0    0 -0.71273294615E-02 -0.49963400609E-02  0.88638134026E-01  0.89065943347E-01  0.51109989000E-03 0. -1.
     -623    1    1    2    0    0 -0.46253890145E-04 -0.38126111328E-03  0.48919314643E-03  0.17130000000E+03  0.17130000000E+03 0. -1.
      622    1    1    2    0    0  0.71735833517E-02  0.53776011741E-02  0.39108726402E+01  0.39109340555E+01  0.20000000000E-01 0. -1.
</event>
<event>
 5   0  0.3603037E+08  0.9118800E+02  0.7818608E-02  0.1180000E+00
       11   -1    0    0    0    0  0.00000000000E+00  0.00000000000E+00  0.39999999673E+01  0.40000000000E+01  0.51109989000E-03 0. -1.
     -623   -1    0    0    0    0  0.00000000000E+00  0.00000000000E+00  0.12525980253E-10  0.17130000000E+03  0.17130000000E+03 0. -1.
       11    1    1    2    0    0 -0.66913822287E-03 -0.21458549646E-03  0.24420592341E-01  0.24436046004E-01  0.51109989000E-03 0. -1.
     -623    1    1    2    0    0  0.21518411481E-03  0.71646764849E-04  0.65757319575E-04  0.17130000000E+03  0.17130000000E+03 0. -1.
      622    1    1    2    0    0  0.45395410806E-03  0.14293873161E-03  0.39755136177E+01  0.39755639538E+01  0.20000000000E-01 0. -1.
</event>
<event>
 5   0  0.3603037E+08  0.9118800E+02  0.7818608E-02  0.1180000E+00
       11   -1    0    0    0    0  0.00000000000E+00  0.00000000000E+00  0.39999999673E+01  0.40000000000E+01  0.51109989000E-03 0. -1.
     -623   -1    0    0    0    0  0.00000000000E+00  0.00000000000E+00  0.12525980253E-10  0.17130000000E+03  0.17130000000E+03 0. -1.
       11    1    1    2    0    0 -0.14150870273E-01 -0.55495708070E-02  0.29003526115E+01  0.29003924867E+01  0.51109989000E-03 0. -1.
     -623    1    1    2    0    0 -0.16789673048E-02 -0.16409781027E-02  0.35924109533E-03  0.17130000002E+03  0.17130000000E+03 0. -1.
      622    1    1    2    0    0  0.15829837578E-01  0.71905489097E-02  0.10992881148E+01  0.10996074968E+01  0.20000000000E-01 0. -1.
</event>
<event>
 5   0  0.3603037E+08  0.9118800E+02  0.7818608E-02  0.1180000E+00
       11   -1    0    0    0    0  0.00000000000E+00  0.00000000000E+00  0.39999999673E+01  0.40000000000E+01  0.51109989000E-03 0.  1.
     -623   -1    0    0    0    0  0.00000000000E+00  0.00000000000E+00  0.12525980253E-10  0.17130000000E+03  0.17130000000E+03 0.  1.
       11    1    1    2    0    0 -0.58080116382E-02  0.80429830220E-02  0.68997717596E+00  0.69004868462E+00  0.51109989000E-03 0.  1.
     -623    1    1    2    0    0  0.16208485062E-02 -0.42086244453E-02  0.13682928670E-03  0.17130000006E+03  0.17130000000E+03 0.  1.
      622    1    1    2    0    0  0.41871631319E-02 -0.38343585766E-02  0.33098859621E+01  0.33099512560E+01  0.20000000000E-01 0.  0.
</event>
<event>
 5   0  0.3603037E+08  0.9118800E+02  0.7818608E-02  0.1180000E+00
       11   -1    0    0    0    0  0.00000000000E+00  0.00000000000E+00  0.39999999673E+01  0.40000000000E+01  0.51109989000E-03 0.  1.
     -623   -1    0    0    0    0  0.00000000000E+00  0.00000000000E+00  0.12525980253E-10  0.17130000000E+03  0.17130000000E+03 0. -1.
       11    1    1    2    0    0  0.31038229870E-02  0.66419873569E-03  0.44064659983E+00  0.44065832801E+00  0.51109989000E-03 0.  1.
     -623    1    1    2    0    0  0.92702312531E-03  0.15307127146E-02  0.70854718435E-04  0.17130000001E+03  0.17130000000E+03 0. -1.
      622    1    1    2    0    0 -0.40308461123E-02 -0.21949114502E-02  0.35592825128E+01  0.35593416626E+01  0.20000000000E-01 0.  1.
</event>
<event>
 5   0  0.3603037E+08  0.9118800E+02  0.7818608E-02  0.1180000E+00
       11   -1    0    0    0    0  0.00000000000E+00  0.00000000000E+00  0.39999999673E+01  0.40000000000E+01  0.51109989000E-03 0.  1.
     -623   -1    0    0    0    0  0.00000000000E+00  0.00000000000E+00  0.12525980253E-10  0.17130000000E+03  0.17130000000E+03 0. -1.
       11    1    1    2    0    0  0.57578136728E-03  0.11439158320E-02  0.41380646351E+00  0.41380876082E+00  0.51109989000E-03 0.  1.
     -623    1    1    2    0    0 -0.24182399993E-02  0.17899638035E-02  0.59734442722E-04  0.17130000003E+03  0.17130000000E+03 0. -1.
      622    1    1    2    0    0  0.18424586320E-02 -0.29338796355E-02  0.35861337694E+01  0.35861912128E+01  0.20000000000E-01 0.  1.
</event>
<event>
 5   0  0.3603037E+08  0.9118800E+02  0.7818608E-02  0.1180000E+00
       11   -1    0    0    0    0  0.00000000000E+00  0.00000000000E+00  0.39999999673E+01  0.40000000000E+01  0.51109989000E-03 0. -1.
     -623   -1    0    0    0    0  0.00000000000E+00  0.00000000000E+00  0.12525980253E-10  0.17130000000E+03  0.17130000000E+03 0.  1.
       11    1    1    2    0    0  0.19312041163E-02  0.29562754269E-02  0.44209884971E-01  0.44353627403E-01  0.51109989000E-03 0. -1.
     -623    1    1    2    0    0  0.21977662672E-03 -0.17333604862E-03  0.19583488638E-03  0.17130000000E+03  0.17130000000E+03 0.  1.
      622    1    1    2    0    0 -0.21509807431E-02 -0.27829393783E-02  0.39555942475E+01  0.39556463723E+01  0.20000000000E-01 0. -1.
</event>
<event>
 5   0  0.3603037E+08  0.9118800E+02  0.7818608E-02  0.1180000E+00
       11   -1    0    0    0    0  0.00000000000E+00  0.00000000000E+00  0.39999999673E+01  0.40000000000E+01  0.51109989000E-03 0.  1.
     -623   -1    0    0    0    0  0.00000000000E+00  0.00000000000E+00  0.12525980253E-10  0.17130000000E+03  0.17130000000E+03 0. -1.
       11    1    1    2    0    0 -0.29744351964E-02 -0.13159481060E-02  0.40890013887E-01  0.41022352953E-01  0.51109989000E-03 0.  1.
     -623    1    1    2    0    0  0.29876695136E-02  0.51038687652E-02  0.18473920387E-03  0.17130000010E+03  0.17130000000E+03 0. -1.
      622    1    1    2    0    0 -0.13234317109E-04 -0.37879206592E-02  0.39589252143E+01  0.39589775449E+01  0.20000000000E-01 0.  1.
</event>
<event>
 5   0  0.3603037E+08  0.9118800E+02  0.7818608E-02  0.1180000E+00
       11   -1    0    0    0    0  0.00000000000E+00  0.00000000000E+00  0.39999999673E+01  0.40000000000E+01  0.51109989000E-03 0.  1.
     -623   -1    0    0    0    0  0.00000000000E+00  0.00000000000E+00  0.12525980253E-10  0.17130000000E+03  0.17130000000E+03 0. -1.
       11    1    1    2    0    0 -0.10857499594E-01 -0.34006379310E-02  0.11182331523E+01  0.11182911489E+01  0.51109989000E-03 0.  1.
     -623    1    1    2    0    0  0.52498620877E-02 -0.71348034600E-02  0.15231258893E-03  0.17130000023E+03  0.17130000000E+03 0. -1.
      622    1    1    2    0    0  0.56076375067E-02  0.10535441391E-01  0.28816145025E+01  0.28817086220E+01  0.20000000000E-01 0.  1.
</event>
<event>
 5   0  0.3603037E+08  0.9118800E+02  0.7818608E-02  0.1180000E+00
       11   -1    0    0    0    0  0.00000000000E+00  0.00000000000E+00  0.39999999673E+01  0.40000000000E+01  0.51109989000E-03 0.  1.
     -623   -1    0    0    0    0  0.00000000000E+00  0.00000000000E+00  0.12525980253E-10  0.17130000000E+03  0.17130000000E+03 0.  1.
       11    1    1    2    0    0  0.10717593667E-02 -0.21186572011E-03  0.10512289321E+00  0.10512981239E+00  0.51109989000E-03 0.  1.
     -623    1    1    2    0    0  0.41695649049E-04  0.16149351261E-03  0.58396046621E-04  0.17130000000E+03  0.17130000000E+03 0.  1.
      622    1    1    2    0    0 -0.11134550157E-02  0.50372207501E-04  0.38948186781E+01  0.38948701875E+01  0.20000000000E-01 0.  1.
</event>
<event>
 5   0  0.3603037E+08  0.9118800E+02  0.7818608E-02  0.1180000E+00
       11   -1    0    0    0    0  0.00000000000E+00  0.00000000000E+00  0.39999999673E+01  0.40000000000E+01  0.51109989000E-03 0.  1.
     -623   -1    0    0    0    0  0.00000000000E+00  0.00000000000E+00  0.12525980253E-10  0.17130000000E+03  0.17130000000E+03 0. -1.
       11    1    1    2    0    0  0.38745125339E-02  0.18499701676E-02  0.41075544274E-01  0.41302491400E-01  0.51109989000E-03 0.  1.
     -623    1    1    2    0    0 -0.10187979825E-02  0.30950291647E-03  0.27905905414E-03  0.17130000000E+03  0.17130000000E+03 0. -1.
      622    1    1    2    0    0 -0.28557145513E-02 -0.21594730841E-02  0.39586453640E+01  0.39586975051E+01  0.20000000000E-01 0.  1.
</event>
<event>
 5   0  0.3603037E+08  0.9118800E+02  0.7818608E-02  0.1180000E+00
       11   -1    0    0    0    0  0.00000000000E+00  0.00000000000E+00  0.39999999673E+01  0.40000000000E+01  0.51109989000E-03 0. -1.
     -623   -1    0    0    0    0  0.00000000000E+00  0.00000000000E+00  0.12525980253E-10  0.17130000000E+03  0.17130000000E+03 0.  1.
       11    1    1    2    0    0  0.68444511675E-03  0.25744661637E-02  0.88522984342E+00  0.88523399914E+00  0.51109989000E-03 0. -1.
     -623    1    1    2    0    0  0.20549635831E-03  0.38777359368E-04  0.69557567981E-04  0.17130000000E+03  0.17130000000E+03 0.  1.
      622    1    1    2    0    0 -0.88994147506E-03 -0.26132435230E-02  0.31147005664E+01  0.31147660007E+01  0.20000000000E-01 0. -1.
</event>
<event>
 5   0  0.3603037E+08  0.9118800E+02  0.7818608E-02  0.1180000E+00
       11   -1    0    0    0    0  0.00000000000E+00  0.00000000000E+00  0.39999999673E+01  0.40000000000E+01  0.51109989000E-03 0. -1.
     -623   -1    0    0    0    0  0.00000000000E+00  0.00000000000E+00  0.12525980253E-10  0.17130000000E+03  0.17130000000E+03 0.  1.
       11    1    1    2    0    0 -0.85162741156E-02 -0.31692174669E-02  0.16813593388E+01  0.16813839711E+01  0.51109989000E-03 0. -1.
     -623    1    1    2    0    0 -0.44753833173E-03 -0.12875305114E-02  0.13247641351E-03  0.17130000001E+03  0.17130000000E+03 0.  1.
      622    1    1    2    0    0  0.89638124473E-02  0.44567479784E-02  0.23185081521E+01  0.23186160234E+01  0.20000000000E-01 0. -1.
</event>
<event>
 5   0  0.3603037E+08  0.9118800E+02  0.7818608E-02  0.1180000E+00
       11   -1    0    0    0    0  0.00000000000E+00  0.00000000000E+00  0.39999999673E+01  0.40000000000E+01  0.51109989000E-03 0. -1.
     -623   -1    0    0    0    0  0.00000000000E+00  0.00000000000E+00  0.12525980253E-10  0.17130000000E+03  0.17130000000E+03 0. -1.
       11    1    1    2    0    0  0.67551519425E-03  0.22669287315E-02  0.49200972573E+00  0.49201567731E+00  0.51109989000E-03 0. -1.
     -623    1    1    2    0    0  0.14780503316E-02 -0.33872350563E-02  0.63812025965E-04  0.17130000004E+03  0.17130000000E+03 0. -1.
      622    1    1    2    0    0 -0.21535655258E-02  0.11203063247E-02  0.35079264296E+01  0.35079842828E+01  0.20000000000E-01 0. -1.
</event>
<event>
 5   0  0.3603037E+08  0.9118800E+02  0.7818608E-02  0.1180000E+00
       11   -1    0    0    0    0  0.00000000000E+00  0.00000000000E+00  0.39999999673E+01  0.40000000000E+01  0.51109989000E-03 0. -1.
     -623   -1    0    0    0    0  0.00000000000E+00  0.00000000000E+00  0.12525980253E-10  0.17130000000E+03  0.17130000000E+03 0.  1.
       11    1    1    2    0    0 -0.14227648798E-02  0.19447152539E-02  0.30798325994E+00  0.30799310999E+00  0.51109989000E-03 0. -1.
     -623    1    1    2    0    0  0.37404339172E-04 -0.34790169884E-03  0.64594498550E-04  0.17130000000E+03  0.17130000000E+03 0.  1.
      622    1    1    2    0    0  0.13853605406E-02 -0.15968135550E-02  0.36919521129E+01  0.36920068896E+01  0.20000000000E-01 0. -1.
</event>
<event>
 5   0  0.3603037E+08  0.9118800E+02  0.7818608E-02  0.1180000E+00
       11   -1    0    0    0    0  0.00000000000E+00  0.00000000000E+00  0.39999999673E+01  0.40000000000E+01  0.51109989000E-03 0.  1.
     -623   -1    0    0    0    0  0.00000000000E+00  0.00000000000E+00  0.12525980253E-10  0.17130000000E+03  0.17130000000E+03 0. -1.
       11    1    1    2    0    0  0.36755798453E-03  0.37058665561E-03  0.16635766002E-01  0.16651797662E-01  0.51109989000E-03 0.  1.
     -623    1    1    2    0    0  0.43826538302E-03  0.76594307093E-04  0.66315555346E-04  0.17130000000E+03  0.17130000000E+03 0. -1.
      622    1    1    2    0    0 -0.80582336754E-03 -0.44718096270E-03  0.39832978858E+01  0.39833482017E+01  0.20000000000E-01 0.  1.
</event>
<event>
 5   0  0.3603037E+08  0.9118800E+02  0.7818608E-02  0.1180000E+00
       11   -1    0    0    0    0  0.00000000000E+00  0.00000000000E+00  0.39999999673E+01  0.40000000000E+01  0.51109989000E-03 0.  1.
     -623   -1    0    0    0    0  0.00000000000E+00  0.00000000000E+00  0.12525980253E-10  0.17130000000E+03  0.17130000000E+03 0. -1.
       11    1    1    2    0    0 -0.20761302856E-02 -0.31832488304E-02  0.59785204178E-01  0.59908056630E-01  0.51109989000E-03 0.  1.
     -623    1    1    2    0    0  0.14605107399E-02  0.51728207115E-02  0.17421521849E-03  0.17130000008E+03  0.17130000000E+03 0. -1.
      622    1    1    2    0    0  0.61561954567E-03 -0.19895718810E-02  0.39400405480E+01  0.39400918590E+01  0.20000000000E-01 0.  1.
</event>
<event>
 5   0  0.3603037E+08  0.9118800E+02  0.7818608E-02  0.1180000E+00
       11   -1    0    0    0    0  0.00000000000E+00  0.00000000000E+00  0.39999999673E+01  0.40000000000E+01  0.51109989000E-03 0.  1.
     -623   -1    0    0    0    0  0.00000000000E+00  0.00000000000E+00  0.12525980253E-10  0.17130000000E+03  0.17130000000E+03 0.  1.
       11    1    1    2    0    0  0.38129527199E-02  0.69832747266E-03  0.29559234410E-01  0.29816703871E-01  0.51109989000E-03 0.  1.
     -623    1    1    2    0    0 -0.36637747526E-03 -0.16641399613E-03  0.30934506416E-03  0.17130000000E+03  0.17130000000E+03 0.  1.
      622    1    1    2    0    0 -0.34465752446E-02 -0.53191347652E-03  0.39701313879E+01  0.39701832954E+01  0.20000000000E-01 0.  1.
</event>
<event>
 5   0  0.3603037E+08  0.9118800E+02  0.7818608E-02  0.1180000E+00
       11   -1    0    0    0    0  0.00000000000E+00  0.00000000000E+00  0.39999999673E+01  0.40000000000E+01  0.51109989000E-03 0. -1.
     -623   -1    0    0    0    0  0.00000000000E+00  0.00000000000E+00  0.12525980253E-10  0.17130000000E+03  0.17130000000E+03 0. -1.
       11    1    1    2    0    0 -0.32021965593E-02  0.97759632655E-02  0.29742386957E-01  0.31475297059E-01  0.51109989000E-03 0. -1.
     -623    1    1    2    0    0 -0.38718917406E-02 -0.12921270695E-01  0.17913662904E-02  0.17130000054E+03  0.17130000000E+03 0. -1.
      622    1    1    2    0    0  0.70740882998E-02  0.31453074295E-02  0.39684662141E+01  0.39685241625E+01  0.20000000000E-01 0. -1.
</event>
<event>
 5   0  0.3603037E+08  0.9118800E+02  0.7818608E-02  0.1180000E+00
       11   -1    0    0    0    0  0.00000000000E+00  0.00000000000E+00  0.39999999673E+01  0.40000000000E+01  0.51109989000E-03 0. -1.
     -623   -1    0    0    0    0  0.00000000000E+00  0.00000000000E+00  0.12525980253E-10  0.17130000000E+03  0.17130000000E+03 0.  1.
       11    1    1    2    0    0  0.15064851963E-06 -0.51913719773E-02  0.79164083637E+00  0.79165802300E+00  0.51109989000E-03 0. -1.
     -623    1    1    2    0    0 -0.55921805666E-02 -0.18514686531E-02  0.92197124770E-04  0.17130000010E+03  0.17130000000E+03 0.  1.
      622    1    1    2    0    0  0.55920299180E-02  0.70428406304E-02  0.32082669339E+01  0.32083418757E+01  0.20000000000E-01 0. -1.
</event>
<event>
 5   0  0.3603037E+08  0.9118800E+02  0.7818608E-02  0.1180000E+00
       11   -1    0    0    0    0  0.00000000000E+00  0.00000000000E+00  0.39999999673E+01  0.40000000000E+01  0.51109989000E-03 0. -1.
     -623   -1    0    0    0    0  0.00000000000E+00  0.00000000000E+00  0.12525980253E-10  0.17130000000E+03  0.17130000000E+03 0. -1.
       11    1    1    2    0    0 -0.74412172307E-02 -0.31376583843E-01  0.43417695248E-01  0.54085295697E-01  0.51109989000E-03 0. -1.
     -623    1    1    2    0    0  0.34443459362E-02  0.32669208835E-01  0.10723975044E-01  0.17130000349E+03  0.17130000000E+03 0. -1.
      622    1    1    2    0    0  0.39968712945E-02 -0.12926249915E-02  0.39458582971E+01  0.39459112188E+01  0.20000000000E-01 0. -1.
</event>
<event>
 5   0  0.3603037E+08  0.9118800E+02  0.7818608E-02  0.1180000E+00
       11   -1    0    0    0    0  0.00000000000E+00  0.00000000000E+00  0.39999999673E+01  0.40000000000E+01  0.51109989000E-03 0. -1.
     -623   -1    0    0    0    0  0.00000000000E+00  0.00000000000E+00  0.12525980253E-10  0.17130000000E+03  0.17130000000E+03 0.  1.
       11    1    1    2    0    0 -0.77120316679E-04  0.85298566923E-03  0.71573415005E-01  0.71580363852E-01  0.51109989000E-03 0. -1.
     -623    1    1    2    0    0 -0.35090549002E-04  0.30085635061E-03  0.57998928639E-04  0.17130000000E+03  0.17130000000E+03 0.  1.
      622    1    1    2    0    0  0.11221086568E-03 -0.11538420198E-02  0.39283685534E+01  0.39284196359E+01  0.20000000000E-01 0. -1.
</event>
<event>
 5   0  0.3603037E+08  0.9118800E+02  0.7818608E-02  0.1180000E+00
       11   -1    0    0    0    0  0.00000000000E+00  0.00000000000E+00  0.39999999673E+01  0.40000000000E+01  0.51109989000E-03 0.  1.
     -623   -1    0    0    0    0  0.00000000000E+00  0.00000000000E+00  0.12525980253E-10  0.17130000000E+03  0.17130000000E+03 0.  1.
       11    1    1    2    0    0 -0.23309534056E-03  0.15353687878E-02  0.83741561324E-02  0.85322566377E-02  0.51109989000E-03 0. -1.
     -623    1    1    2    0    0  0.33615707510E-03 -0.49136257811E-03  0.20831408943E-03  0.17130000000E+03  0.17130000000E+03 0.  1.
      622    1    1    2    0    0 -0.10306173454E-03 -0.10440062097E-02  0.39914174971E+01  0.39914677422E+01  0.20000000000E-01 0.  1.
</event>
<event>
 5   0  0.3603037E+08  0.9118800E+02  0.7818608E-02  0.1180000E+00
       11   -1    0    0    0    0  0.00000000000E+00  0.00000000000E+00  0.39999999673E+01  0.40000000000E+01  0.51109989000E-03 0.  1.
     -623   -1    0    0    0    0  0.00000000000E+00  0.00000000000E+00  0.12525980253E-10  0.17130000000E+03  0.17130000000E+03 0. -1.
       11    1    1    2    0    0 -0.65963906301E-03  0.29355039338E-02  0.12897259804E+00  0.12900869961E+00  0.51109989000E-03 0.  1.
     -623    1    1    2    0    0 -0.43745111625E-02  0.15245891539E-03  0.92296705875E-04  0.17130000006E+03  0.17130000000E+03 0. -1.
      622    1    1    2    0    0  0.50341502255E-02 -0.30879628492E-02  0.38709350726E+01  0.38709912444E+01  0.20000000000E-01 0.  1.
</event>
<event>
 5   0  0.3603037E+08  0.9118800E+02  0.7818608E-02  0.1180000E+00
       11   -1    0    0    0    0  0.00000000000E+00  0.00000000000E+00  0.39999999673E+01  0.40000000000E+01  0.51109989000E-03 0.  1.
     -623   -1    0    0    0    0  0.00000000000E+00  0.00000000000E+00  0.12525980253E-10  0.17130000000E+03  0.17130000000E+03 0. -1.
       11    1    1    2    0    0 -0.13332665462E-02 -0.14911734724E-02  0.26561363808E-01  0.26641480207E-01  0.51109989000E-03 0.  1.
     -623    1    1    2    0    0  0.20251083653E-02 -0.19343483711E-03  0.13084881293E-03  0.17130000001E+03  0.17130000000E+03 0. -1.
      622    1    1    2    0    0 -0.69184181914E-03  0.16846083096E-02  0.39733077547E+01  0.39733585077E+01  0.20000000000E-01 0.  1.
</event>
<event>
 5   0  0.3603037E+08  0.9118800E+02  0.7818608E-02  0.1180000E+00
       11   -1    0    0    0    0  0.00000000000E+00  0.00000000000E+00  0.39999999673E+01  0.40000000000E+01  0.51109989000E-03 0.  1.
     -623   -1    0    0    0    0  0.00000000000E+00  0.00000000000E+00  0.12525980253E-10  0.17130000000E+03  0.17130000000E+03 0.  1.
       11    1    1    2    0    0 -0.21337977556E-01  0.38497697299E-02  0.42734517859E+00  0.42789518915E+00  0.51109989000E-03 0.  1.
     -623    1    1    2    0    0  0.48997463830E-02  0.24530811885E-03  0.64621039385E-03  0.17130000007E+03  0.17130000000E+03 0.  1.
      622    1    1    2    0    0  0.16438231173E-01 -0.40950778487E-02  0.35720085784E+01  0.35721047394E+01  0.20000000000E-01 0.  1.
</event>
<event>
 5   0  0.3603037E+08  0.9118800E+02  0.7818608E-02  0.1180000E+00
       11   -1    0    0    0    0  0.00000000000E+00  0.00000000000E+00  0.39999999673E+01  0.40000000000E+01  0.51109989000E-03 0. -1.
     -623   -1    0    0    0    0  0.00000000000E+00  0.00000000000E+00  0.12525980253E-10  0.17130000000E+03  0.17130000000E+03 0. -1.
       11    1    1    2    0    0 -0.35694019861E-02  0.29848814097E-01  0.81890322209E-01  0.87235190291E-01  0.51109989000E-03 0. -1.
     -623    1    1    2    0    0  0.48833078602E-02 -0.36660989184E-01  0.54061792573E-02  0.17130000408E+03  0.17130000000E+03 0. -1.
      622    1    1    2    0    0 -0.13139058741E-02  0.68121750867E-02  0.39127034659E+01  0.39127607318E+01  0.20000000000E-01 0. -1.
</event>
<event>
 5   0  0.3603037E+08  0.9118800E+02  0.7818608E-02  0.1180000E+00
       11   -1    0    0    0    0  0.00000000000E+00  0.00000000000E+00  0.39999999673E+01  0.40000000000E+01  0.51109989000E-03 0.  1.
     -623   -1    0    0    0    0  0.00000000000E+00  0.00000000000E+00  0.12525980253E-10  0.17130000000E+03  0.17130000000E+03 0. -1.
       11    1    1    2    0    0 -0.25091034644E-02 -0.42729401753E-02  0.32641613768E-01  0.33019536470E-01  0.51109989000E-03 0.  1.
     -623    1    1    2    0    0  0.36530314187E-04  0.11276370225E-02  0.43032831704E-03  0.17130000000E+03  0.17130000000E+03 0. -1.
      622    1    1    2    0    0  0.24725731502E-02  0.31453031528E-02  0.39669280253E+01  0.39669804593E+01  0.20000000000E-01 0.  1.
</event>
<event>
 5   0  0.3603037E+08  0.9118800E+02  0.7818608E-02  0.1180000E+00
       11   -1    0    0    0    0  0.00000000000E+00  0.00000000000E+00  0.39999999673E+01  0.40000000000E+01  0.51109989000E-03 0.  1.
     -623   -1    0    0    0    0  0.00000000000E+00  0.00000000000E+00  0.12525980253E-10  0.17130000000E+03  0.17130000000E+03 0. -1.
       11    1    1    2    0    0  0.46501194092E-02  0.11192336211E-02  0.38049826233E+00  0.38052866535E+00  0.51109989000E-03 0.  1.
     -623    1    1    2    0    0 -0.42286370129E-02 -0.76681791509E-03  0.85723119756E-04  0.17130000005E+03  0.17130000000E+03 0. -1.
      622    1    1    2    0    0 -0.42148239637E-03 -0.35241570598E-03  0.36194159819E+01  0.36194712807E+01  0.20000000000E-01 0.  1.
</event>
<event>
 5   0  0.3603037E+08  0.9118800E+02  0.7818608E-02  0.1180000E+00
       11   -1    0    0    0    0  0.00000000000E+00  0.00000000000E+00  0.39999999673E+01  0.40000000000E+01  0.51109989000E-03 0.  1.
     -623   -1    0    0    0    0  0.00000000000E+00  0.00000000000E+00  0.12525980253E-10  0.17130000000E+03  0.17130000000E+03 0. -1.
       11    1    1    2    0    0 -0.37688855336E-02 -0.53337479381E-02  0.45581724438E+00  0.45586431629E+00  0.51109989000E-03 0.  1.
     -623    1    1    2    0    0  0.21189754846E-03 -0.76683010500E-04  0.10938593273E-03  0.17130000000E+03  0.17130000000E+03 0. -1.
      622    1    1    2    0    0  0.35569879851E-02  0.54104309486E-02  0.35440733370E+01  0.35441356835E+01  0.20000000000E-01 0.  1.
</event>
<event>
 5   0  0.3603037E+08  0.9118800E+02  0.7818608E-02  0.1180000E+00
       11   -1    0    0    0    0  0.00000000000E+00  0.00000000000E+00  0.39999999673E+01  0.40000000000E+01  0.51109989000E-03 0. -1.
     -623   -1    0    0    0    0  0.00000000000E+00  0.00000000000E+00  0.12525980253E-10  0.17130000000E+03  0.17130000000E+03 0.  1.
       11    1    1    2    0    0  0.98835012755E-02  0.81205931838E-02  0.43773912743E-01  0.45607502556E-01  0.51109989000E-03 0. -1.
     -623    1    1    2    0    0 -0.11875133983E-01 -0.30818975197E-02  0.18882956674E-02  0.17130000045E+03  0.17130000000E+03 0.  1.
      622    1    1    2    0    0  0.19916327079E-02 -0.50386956641E-02  0.39543377589E+01  0.39543920477E+01  0.20000000000E-01 0. -1.
</event>
<event>
 5   0  0.3603037E+08  0.9118800E+02  0.7818608E-02  0.1180000E+00
       11   -1    0    0    0    0  0.00000000000E+00  0.00000000000E+00  0.39999999673E+01  0.40000000000E+01  0.51109989000E-03 0. -1.
     -623   -1    0    0    0    0  0.00000000000E+00  0.00000000000E+00  0.12525980253E-10  0.17130000000E+03  0.17130000000E+03 0.  1.
       11    1    1    2    0    0 -0.16977814256E-02  0.49920741441E-02  0.15875904634E+00  0.15884740880E+00  0.51109989000E-03 0. -1.
     -623    1    1    2    0    0  0.45942955979E-03  0.39815824909E-02  0.15112668775E-03  0.17130000005E+03  0.17130000000E+03 0.  1.
      622    1    1    2    0    0  0.12383518659E-02 -0.89736566350E-02  0.38410897943E+01  0.38411525442E+01  0.20000000000E-01 0.  0.
</event>
<event>
 5   0  0.3603037E+08  0.9118800E+02  0.7818608E-02  0.1180000E+00
       11   -1    0    0    0    0  0.00000000000E+00  0.00000000000E+00  0.39999999673E+01  0.40000000000E+01  0.51109989000E-03 0.  1.
     -623   -1    0    0    0    0  0.00000000000E+00  0.00000000000E+00  0.12525980253E-10  0.17130000000E+03  0.17130000000E+03 0. -1.
       11    1    1    2    0    0 -0.10937538498E-02 -0.30478377101E-03  0.60958758032E-02  0.62217451410E-02  0.51109989000E-03 0.  1.
     -623    1    1    2    0    0  0.32364932357E-03 -0.33619890771E-03  0.17604131804E-03  0.17130000000E+03  0.17130000000E+03 0. -1.
      622    1    1    2    0    0  0.77010452624E-03  0.64098267872E-03  0.39937280502E+01  0.39937782541E+01  0.20000000000E-01 0.  1.
</event>
<event>
 5   0  0.3603037E+08  0.9118800E+02  0.7818608E-02  0.1180000E+00
       11   -1    0    0    0    0  0.00000000000E+00  0.00000000000E+00  0.39999999673E+01  0.40000000000E+01  0.51109989000E-03 0. -1.
     -623   -1    0    0    0    0  0.00000000000E+00  0.00000000000E+00  0.12525980253E-10  0.17130000000E+03  0.17130000000E+03 0. -1.
       11    1    1    2    0    0 -0.45333246293E-03  0.13517698102E-02  0.18883572719E+00  0.18884180119E+00  0.51109989000E-03 0. -1.
     -623    1    1    2    0    0  0.64118724739E-03  0.22402549256E-03  0.58850967323E-04  0.17130000000E+03  0.17130000000E+03 0. -1.
      622    1    1    2    0    0 -0.18785478447E-03 -0.15757953028E-02  0.38111053892E+01  0.38111581975E+01  0.20000000000E-01 0. -1.
</event>
<event>
 5   0  0.3603037E+08  0.9118800E+02  0.7818608E-02  0.1180000E+00
       11   -1    0    0    0    0  0.00000000000E+00  0.00000000000E+00  0.39999999673E+01  0.40000000000E+01  0.51109989000E-03 0. -1.
     -623   -1    0    0    0    0  0.00000000000E+00  0.00000000000E+00  0.12525980253E-10  0.17130000000E+03  0.17130000000E+03 0.  1.
       11    1    1    2    0    0 -0.77829991490E-03  0.54644408492E-03  0.82892058302E-02  0.83592169302E-02  0.51109989000E-03 0. -1.
     -623    1    1    2    0    0 -0.28789553279E-04 -0.19450111626E-03  0.12018075004E-03  0.17130000000E+03  0.17130000000E+03 0.  1.
      622    1    1    2    0    0  0.80708946818E-03 -0.35194296866E-03  0.39915905808E+01  0.39916407829E+01  0.20000000000E-01 0. -1.
</event>
<event>
 5   0  0.3603037E+08  0.9118800E+02  0.7818608E-02  0.1180000E+00
       11   -1    0    0    0    0  0.00000000000E+00  0.00000000000E+00  0.39999999673E+01  0.40000000000E+01  0.51109989000E-03 0.  1.
     -623   -1    0    0    0    0  0.00000000000E+00  0.00000000000E+00  0.12525980253E-10  0.17130000000E+03  0.17130000000E+03 0. -1.
       11    1    1    2    0    0  0.60637601872E-02  0.11960755161E-02  0.76032587173E+00  0.76035116376E+00  0.51109989000E-03 0.  1.
     -623    1    1    2    0    0 -0.17498215253E-02 -0.26540178915E-03  0.90010202666E-04  0.17130000001E+03  0.17130000000E+03 0. -1.
      622    1    1    2    0    0 -0.43139386619E-02 -0.93067372700E-03  0.32395840854E+01  0.32396488271E+01  0.20000000000E-01 0.  1.
</event>
<event>
 5   0  0.3603037E+08  0.9118800E+02  0.7818608E-02  0.1180000E+00
       11   -1    0    0    0    0  0.00000000000E+00  0.00000000000E+00  0.39999999673E+01  0.40000000000E+01  0.51109989000E-03 0.  1.
     -623   -1    0    0    0    0  0.00000000000E+00  0.00000000000E+00  0.12525980253E-10  0.17130000000E+03  0.17130000000E+03 0.  1.
       11    1    1    2    0    0 -0.88984659444E-03 -0.46847682571E-02  0.10064854203E+00  0.10076273673E+00  0.51109989000E-03 0.  1.
     -623    1    1    2    0    0 -0.29687254613E-03 -0.96312701125E-04  0.16856665966E-03  0.17130000000E+03  0.17130000000E+03 0.  1.
      622    1    1    2    0    0  0.11867191406E-02  0.47810809583E-02  0.38991828587E+01  0.38992372629E+01  0.20000000000E-01 0.  1.
</event>
<event>
 5   0  0.3603037E+08  0.9118800E+02  0.7818608E-02  0.1180000E+00
       11   -1    0    0    0    0  0.00000000000E+00  0.00000000000E+00  0.39999999673E+01  0.40000000000E+01  0.51109989000E-03 0.  1.
     -623   -1    0    0    0    0  0.00000000000E+00  0.00000000000E+00  0.12525980253E-10  0.17130000000E+03  0.17130000000E+03 0.  1.
       11    1    1    2    0    0 -0.18550307396E-01  0.25697390766E-01  0.25481322558E+01  0.25483293986E+01  0.51109989000E-03 0.  1.
     -623    1    1    2    0    0  0.61433139439E-02 -0.39388382287E-02  0.55116689256E-03  0.17130000016E+03  0.17130000000E+03 0.  1.
      622    1    1    2    0    0  0.12406993452E-01 -0.21758552537E-01  0.14513165447E+01  0.14516704451E+01  0.20000000000E-01 0. -1.
</event>
<event>
 5   0  0.3603037E+08  0.9118800E+02  0.7818608E-02  0.1180000E+00
       11   -1    0    0    0    0  0.00000000000E+00  0.00000000000E+00  0.39999999673E+01  0.40000000000E+01  0.51109989000E-03 0. -1.
     -623   -1    0    0    0    0  0.00000000000E+00  0.00000000000E+00  0.12525980253E-10  0.17130000000E+03  0.17130000000E+03 0.  1.
       11    1    1    2    0    0  0.24361941836E-02  0.23503656498E-02  0.91663264758E-01  0.91727174756E-01  0.51109989000E-03 0. -1.
     -623    1    1    2    0    0  0.20963526567E-03 -0.49299317233E-03  0.11638902704E-03  0.17130000000E+03  0.17130000000E+03 0.  1.
      622    1    1    2    0    0 -0.26458294493E-02 -0.18573724774E-02  0.39082203136E+01  0.39082728244E+01  0.20000000000E-01 0. -1.
</event>
<event>
 5   0  0.3603037E+08  0.9118800E+02  0.7818608E-02  0.1180000E+00
       11   -1    0    0    0    0  0.00000000000E+00  0.00000000000E+00  0.39999999673E+01  0.40000000000E+01  0.51109989000E-03 0. -1.
     -623   -1    0    0    0    0  0.00000000000E+00  0.00000000000E+00  0.12525980253E-10  0.17130000000E+03  0.17130000000E+03 0.  1.
       11    1    1    2    0    0  0.43527294760E-03  0.42138686182E-03  0.10735879486E+00  0.10736172076E+00  0.51109989000E-03 0. -1.
     -623    1    1    2    0    0 -0.26035850367E-02 -0.18595083676E-02  0.55172099780E-04  0.17130000003E+03  0.17130000000E+03 0.  1.
      622    1    1    2    0    0  0.21683120891E-02  0.14381215058E-02  0.38925860004E+01  0.38926382493E+01  0.20000000000E-01 0. -1.
</event>
<event>
 5   0  0.3603037E+08  0.9118800E+02  0.7818608E-02  0.1180000E+00
       11   -1    0    0    0    0  0.00000000000E+00  0.00000000000E+00  0.39999999673E+01  0.40000000000E+01  0.51109989000E-03 0.  1.
     -623   -1    0    0    0    0  0.00000000000E+00  0.00000000000E+00  0.12525980253E-10  0.17130000000E+03  0.17130000000E+03 0. -1.
       11    1    1    2    0    0 -0.53522128531E-02  0.15035064098E-02  0.12331416206E+01  0.12331542582E+01  0.51109989000E-03 0.  1.
     -623    1    1    2    0    0 -0.41059251075E-03 -0.17676438537E-03  0.91210611981E-04  0.17130000000E+03  0.17130000000E+03 0. -1.
      622    1    1    2    0    0  0.57628053638E-02 -0.13267420245E-02  0.27667671361E+01  0.27668457412E+01  0.20000000000E-01 0.  1.
</event>
<event>
 5   0  0.3603037E+08  0.9118800E+02  0.7818608E-02  0.1180000E+00
       11   -1    0    0    0    0  0.00000000000E+00  0.00000000000E+00  0.39999999673E+01  0.40000000000E+01  0.51109989000E-03 0.  1.
     -623   -1    0    0    0    0  0.00000000000E+00  0.00000000000E+00  0.12525980253E-10  0.17130000000E+03  0.17130000000E+03 0. -1.
       11    1    1    2    0    0 -0.82086101093E-03 -0.24401908568E-02  0.32476022740E-01  0.32581921629E-01  0.51109989000E-03 0.  1.
     -623    1    1    2    0    0 -0.11654689964E-02  0.29172468051E-03  0.15736045269E-03  0.17130000000E+03  0.17130000000E+03 0. -1.
      622    1    1    2    0    0  0.19863300074E-02  0.21484661763E-02  0.39673665842E+01  0.39674180741E+01  0.20000000000E-01 0.  1.
</event>
<event>
 5   0  0.3603037E+08  0.9118800E+02  0.7818608E-02  0.1180000E+00
       11   -1    0    0    0    0  0.00000000000E+00  0.00000000000E+00  0.39999999673E+01  0.40000000000E+01  0.51109989000E-03 0.  1.
     -623   -1    0    0    0    0  0.00000000000E+00  0.00000000000E+00  0.12525980253E-10  0.17130000000E+03  0.17130000000E+03 0.  1.
       11    1    1    2    0    0 -0.56171102833E-02  0.10205517325E-04  0.57715288229E-01  0.57990238387E-01  0.51109989000E-03 0.  1.
     -623    1    1    2    0    0 -0.11813966780E-02  0.28891851668E-02  0.33261096272E-03  0.17130000003E+03  0.17130000000E+03 0.  1.
      622    1    1    2    0    0  0.67985069612E-02 -0.28993906841E-02  0.39419520682E+01  0.39420097329E+01  0.20000000000E-01 0.  1.
</event>
<event>
 5   0  0.3603037E+08  0.9118800E+02  0.7818608E-02  0.1180000E+00
       11   -1    0    0    0    0  0.00000000000E+00  0.00000000000E+00  0.39999999673E+01  0.40000000000E+01  0.51109989000E-03 0.  1.
     -623   -1    0    0    0    0  0.00000000000E+00  0.00000000000E+00  0.12525980253E-10  0.17130000000E+03  0.17130000000E+03 0.  1.
       11    1    1    2    0    0  0.17885845585E-02  0.52282647103E-02  0.13530235996E+00  0.13541611284E+00  0.51109989000E-03 0.  1.
     -623    1    1    2    0    0  0.68902866626E-02 -0.53906519213E-02  0.17544491537E-03  0.17130000022E+03  0.17130000000E+03 0.  1.
      622    1    1    2    0    0 -0.86788712212E-02  0.16238721106E-03  0.38645221625E+01  0.38645836637E+01  0.20000000000E-01 0.  1.
</event>
<event>
 5   0  0.3603037E+08  0.9118800E+02  0.7818608E-02  0.1180000E+00
       11   -1    0    0    0    0  0.00000000000E+00  0.00000000000E+00  0.39999999673E+01  0.40000000000E+01  0.51109989000E-03 0. -1.
     -623   -1    0    0    0    0  0.00000000000E+00  0.00000000000E+00  0.12525980253E-10  0.17130000000E+03  0.17130000000E+03 0.  1.
       11    1    1    2    0    0  0.46974526877E-02 -0.67388778715E-02  0.73641398948E+00  0.73645998103E+00  0.51109989000E-03 0. -1.
     -623    1    1    2    0    0 -0.38625393058E-03  0.28750675077E-03  0.11646766350E-03  0.17130000000E+03  0.17130000000E+03 0.  1.
      622    1    1    2    0    0 -0.43111987572E-02  0.64513711207E-02  0.32634695102E+01  0.32635400183E+01  0.20000000000E-01 0.  0.
</event>
<event>
 5   0  0.3603037E+08  0.9118800E+02  0.7818608E-02  0.1180000E+00
       11   -1    0    0    0    0  0.00000000000E+00  0.00000000000E+00  0.39999999673E+01  0.40000000000E+01  0.51109989000E-03 0.  1.
     -623   -1    0    0    0    0  0.00000000000E+00  0.00000000000E+00  0.12525980253E-10  0.17130000000E+03  0.17130000000E+03 0. -1.
       11    1    1    2    0    0  0.64939056162E-02 -0.28522367927E-03  0.44813199663E+00  0.44817942812E+00  0.51109989000E-03 0.  1.
     -623    1    1    2    0    0  0.88375731196E-03  0.39759022845E-03  0.11137538345E-03  0.17130000000E+03  0.17130000000E+03 0. -1.
      622    1    1    2    0    0 -0.73776629282E-02 -0.11236654918E-03  0.35517565953E+01  0.35518205691E+01  0.20000000000E-01 0.  0.
</event>
<event>
 5   0  0.3603037E+08  0.9118800E+02  0.7818608E-02  0.1180000E+00
       11   -1    0    0    0    0  0.00000000000E+00  0.00000000000E+00  0.39999999673E+01  0.40000000000E+01  0.51109989000E-03 0.  1.
     -623   -1    0    0    0    0  0.00000000000E+00  0.00000000000E+00  0.12525980253E-10  0.17130000000E+03  0.17130000000E+03 0.  1.
       11    1    1    2    0    0 -0.87043443915E-02  0.98580331075E-02  0.58187634203E+00  0.58202515844E+00  0.51109989000E-03 0.  1.
     -623    1    1    2    0    0  0.67939477499E-03  0.19746191322E-04  0.23099435333E-03  0.17130000000E+03  0.17130000000E+03 0.  1.
      622    1    1    2    0    0  0.80249496165E-02 -0.98777792988E-02  0.34178926310E+01  0.34179748401E+01  0.20000000000E-01 0.  1.
</event>
<event>
 5   0  0.3603037E+08  0.9118800E+02  0.7818608E-02  0.1180000E+00
       11   -1    0    0    0    0  0.00000000000E+00  0.00000000000E+00  0.39999999673E+01  0.40000000000E+01  0.51109989000E-03 0. -1.
     -623   -1    0    0    0    0  0.00000000000E+00  0.00000000000E+00  0.12525980253E-10  0.17130000000E+03  0.17130000000E+03 0. -1.
       11    1    1    2    0    0 -0.55743911956E-02 -0.19392803598E-02  0.80985563720E+00  0.80987730488E+00  0.51109989000E-03 0. -1.
     -623    1    1    2    0    0  0.11528777484E-02 -0.19700285894E-02  0.89803945547E-04  0.17130000002E+03  0.17130000000E+03 0. -1.
      622    1    1    2    0    0  0.44215134472E-02  0.39093089492E-02  0.31900545262E+01  0.31901226799E+01  0.20000000000E-01 0. -1.
</event>
<event>
 5   0  0.3603037E+08  0.9118800E+02  0.7818608E-02  0.1180000E+00
       11   -1    0    0    0    0  0.00000000000E+00  0.00000000000E+00  0.39999999673E+01  0.40000000000E+01  0.51109989000E-03 0. -1.
     -623   -1    0    0    0    0  0.00000000000E+00  0.00000000000E+00  0.12525980253E-10  0.17130000000E+03  0.17130000000E+03 0.  1.
       11    1    1    2    0    0 -0.76596711142E-02  0.12383280036E-02  0.11563838287E+01  0.11564099726E+01  0.51109989000E-03 0. -1.
     -623    1    1    2    0    0 -0.23671015495E-03  0.10161969933E-02  0.10830669268E-03  0.17130000000E+03  0.17130000000E+03 0.  1.
      622    1    1    2    0    0  0.78963812691E-02 -0.22545249969E-02  0.28435078319E+01  0.28435900242E+01  0.20000000000E-01 0. -1.
</event>
<event>
 5   0  0.3603037E+08  0.9118800E+02  0.7818608E-02  0.1180000E+00
       11   -1    0    0    0    0  0.00000000000E+00  0.00000000000E+00  0.39999999673E+01  0.40000000000E+01  0.51109989000E-03 0.  1.
     -623   -1    0    0    0    0  0.00000000000E+00  0.00000000000E+00  0.12525980253E-10  0.17130000000E+03  0.17130000000E+03 0. -1.
       11    1    1    2    0    0 -0.14498753781E-01 -0.87308218780E-02  0.15141160227E+01  0.15142106962E+01  0.51109989000E-03 0.  1.
     -623    1    1    2    0    0  0.11254454009E-01  0.21939177962E-01  0.21408459063E-03  0.17130000177E+03  0.17130000000E+03 0. -1.
      622    1    1    2    0    0  0.32442997721E-02 -0.13208356084E-01  0.24856698601E+01  0.24857875290E+01  0.20000000000E-01 0.  1.
</event>
<event>
 5   0  0.3603037E+08  0.9118800E+02  0.7818608E-02  0.1180000E+00
       11   -1    0    0    0    0  0.00000000000E+00  0.00000000000E+00  0.39999999673E+01  0.40000000000E+01  0.51109989000E-03 0. -1.
     -623   -1    0    0    0    0  0.00000000000E+00  0.00000000000E+00  0.12525980253E-10  0.17130000000E+03  0.17130000000E+03 0. -1.
       11    1    1    2    0    0  0.14571358248E-02  0.93331662302E-05  0.74640273928E-01  0.74656245854E-01  0.51109989000E-03 0. -1.
     -623    1    1    2    0    0 -0.42884040560E-03  0.37213474715E-02  0.68839089724E-04  0.17130000004E+03  0.17130000000E+03 0. -1.
      622    1    1    2    0    0 -0.10282954192E-02 -0.37306806378E-02  0.39252908543E+01  0.39253437132E+01  0.20000000000E-01 0. -1.
</event>
<event>
 5   0  0.3603037E+08  0.9118800E+02  0.7818608E-02  0.1180000E+00
       11   -1    0    0    0    0  0.00000000000E+00  0.00000000000E+00  0.39999999673E+01  0.40000000000E+01  0.51109989000E-03 0.  1.
     -623   -1    0    0    0    0  0.00000000000E+00  0.00000000000E+00  0.12525980253E-10  0.17130000000E+03  0.17130000000E+03 0. -1.
       11    1    1    2    0    0 -0.31420455523E-02 -0.14007196329E-01  0.21632560490E+01  0.21633037393E+01  0.51109989000E-03 0.  1.
     -623    1    1    2    0    0 -0.12303125799E-01 -0.21574472914E-02  0.29309380619E-03  0.17130000046E+03  0.17130000000E+03 0. -1.
      622    1    1    2    0    0  0.15445171351E-01  0.16164643621E-01  0.18364508246E+01  0.18366958050E+01  0.20000000000E-01 0.  0.
</event>
<event>
 5   0  0.3603037E+08  0.9118800E+02  0.7818608E-02  0.1180000E+00
       11   -1    0    0    0    0  0.00000000000E+00  0.00000000000E+00  0.39999999673E+01  0.40000000000E+01  0.51109989000E-03 0.  1.
     -623   -1    0    0    0    0  0.00000000000E+00  0.00000000000E+00  0.12525980253E-10  0.17130000000E+03  0.17130000000E+03 0. -1.
       11    1    1    2    0    0  0.86071793637E-03 -0.66328835429E-03  0.21052917241E-01  0.21087136689E-01  0.51109989000E-03 0.  1.
     -623    1    1    2    0    0 -0.41191917052E-04 -0.37487386949E-03  0.84672384356E-04  0.17130000000E+03  0.17130000000E+03 0. -1.
      622    1    1    2    0    0 -0.81952601932E-03  0.10381622238E-02  0.39788623777E+01  0.39789128629E+01  0.20000000000E-01 0.  1.
</event>
<event>
 5   0  0.3603037E+08  0.9118800E+02  0.7818608E-02  0.1180000E+00
       11   -1    0    0    0    0  0.00000000000E+00  0.00000000000E+00  0.39999999673E+01  0.40000000000E+01  0.51109989000E-03 0.  1.
     -623   -1    0    0    0    0  0.00000000000E+00  0.00000000000E+00  0.12525980253E-10  0.17130000000E+03  0.17130000000E+03 0.  1.
       11    1    1    2    0    0  0.45897236599E-02 -0.45225064082E-02  0.98793997401E-02  0.11806031804E-01  0.51109989000E-03 0.  1.
     -623    1    1    2    0    0 -0.24686210615E-02  0.92812520221E-03  0.19789632901E-02  0.17130000003E+03  0.17130000000E+03 0.  1.
      622    1    1    2    0    0 -0.21211025984E-02  0.35943812060E-02  0.39881416043E+01  0.39881939365E+01  0.20000000000E-01 0.  1.
</event>
<event>
 5   0  0.3603037E+08  0.9118800E+02  0.7818608E-02  0.1180000E+00
       11   -1    0    0    0    0  0.00000000000E+00  0.00000000000E+00  0.39999999673E+01  0.40000000000E+01  0.51109989000E-03 0. -1.
     -623   -1    0    0    0    0  0.00000000000E+00  0.00000000000E+00  0.12525980253E-10  0.17130000000E+03  0.17130000000E+03 0. -1.
       11    1    1    2    0    0 -0.14505417744E-02 -0.78593372389E-02  0.14182639149E+00  0.14205231360E+00  0.51109989000E-03 0. -1.
     -623    1    1    2    0    0  0.23091516846E-02  0.14727588557E-03  0.28555059936E-03  0.17130000002E+03  0.17130000000E+03 0. -1.
      622    1    1    2    0    0 -0.85860991020E-03  0.77120613534E-02  0.38578880253E+01  0.38579476705E+01  0.20000000000E-01 0. -1.
</event>
<event>
 5   0  0.3603037E+08  0.9118800E+02  0.7818608E-02  0.1180000E+00
       11   -1    0    0    0    0  0.00000000000E+00  0.00000000000E+00  0.39999999673E+01  0.40000000000E+01  0.51109989000E-03 0. -1.
     -623   -1    0    0    0    0  0.00000000000E+00  0.00000000000E+00  0.12525980253E-10  0.17130000000E+03  0.17130000000E+03 0.  1.
       11    1    1    2    0    0  0.24882975705E-02  0.13157147341E-02  0.21621775617E-01  0.21810207098E-01  0.51109989000E-03 0. -1.
     -623    1    1    2    0    0 -0.22035308416E-02 -0.30820475569E-02  0.23911767387E-03  0.17130000004E+03  0.17130000000E+03 0.  1.
      622    1    1    2    0    0 -0.28476672885E-03  0.17663328227E-02  0.39781390741E+01  0.39781897508E+01  0.20000000000E-01 0. -1.
</event>
<event>
 5   0  0.3603037E+08  0.9118800E+02  0.7818608E-02  0.1180000E+00
       11   -1    0    0    0    0  0.00000000000E+00  0.00000000000E+00  0.39999999673E+01  0.40000000000E+01  0.51109989000E-03 0.  1.
     -623   -1    0    0    0    0  0.00000000000E+00  0.00000000000E+00  0.12525980253E-10  0.17130000000E+03  0.17130000000E+03 0.  1.
       11    1    1    2    0    0  0.59194186205E-03  0.17623787997E-01  0.53617641760E+00  0.53646655097E+00  0.51109989000E-03 0.  1.
     -623    1    1    2    0    0 -0.85218022571E-03 -0.60116093896E-03  0.38969159019E-03  0.17130000000E+03  0.17130000000E+03 0.  1.
      622    1    1    2    0    0  0.26023836366E-03 -0.17022627058E-01  0.34634338582E+01  0.34635334454E+01  0.20000000000E-01 0.  1.
</event>
<event>
 5   0  0.3603037E+08  0.9118800E+02  0.7818608E-02  0.1180000E+00
       11   -1    0    0    0    0  0.00000000000E+00  0.00000000000E+00  0.39999999673E+01  0.40000000000E+01  0.51109989000E-03 0.  1.
     -623   -1    0    0    0    0  0.00000000000E+00  0.00000000000E+00  0.12525980253E-10  0.17130000000E+03  0.17130000000E+03 0.  1.
       11    1    1    2    0    0 -0.56943654630E-01  0.27327427963E-01  0.29137477612E+00  0.29814239803E+00  0.51109989000E-03 0.  1.
     -623    1    1    2    0    0  0.24431458660E-01 -0.55115948717E-01  0.70794558634E-02  0.17130001076E+03  0.17130000000E+03 0.  1.
      622    1    1    2    0    0  0.32512195970E-01  0.27788520753E-01  0.37015457354E+01  0.37018468466E+01  0.20000000000E-01 0.  1.
</event>
<event>
 5   0  0.3603037E+08  0.9118800E+02  0.7818608E-02  0.1180000E+00
       11   -1    0    0    0    0  0.00000000000E+00  0.00000000000E+00  0.39999999673E+01  0.40000000000E+01  0.51109989000E-03 0.  1.
     -623   -1    0    0    0    0  0.00000000000E+00  0.00000000000E+00  0.12525980253E-10  0.17130000000E+03  0.17130000000E+03 0.  1.
       11    1    1    2    0    0 -0.13686803933E-02 -0.34109056791E-01  0.10889992917E+01  0.10895343132E+01  0.51109989000E-03 0.  1.
     -623    1    1    2    0    0  0.82895958012E-02 -0.10103573671E-01  0.94828073944E-03  0.17130000050E+03  0.17130000000E+03 0.  1.
      622    1    1    2    0    0 -0.69209154079E-02  0.44212630462E-01  0.29100523949E+01  0.29104651856E+01  0.20000000000E-01 0.  0.
</event>
<event>
 5   0  0.3603037E+08  0.9118800E+02  0.7818608E-02  0.1180000E+00
       11   -1    0    0    0    0  0.00000000000E+00  0.00000000000E+00  0.39999999673E+01  0.40000000000E+01  0.51109989000E-03 0. -1.
     -623   -1    0    0    0    0  0.00000000000E+00  0.00000000000E+00  0.12525980253E-10  0.17130000000E+03  0.17130000000E+03 0. -1.
       11    1    1    2    0    0 -0.10766610526E-01 -0.69211893268E-02  0.19724310681E+00  0.19765861269E+00  0.51109989000E-03 0. -1.
     -623    1    1    2    0    0  0.14390905594E-01  0.54742373124E-02  0.47076802510E-03  0.17130000069E+03  0.17130000000E+03 0. -1.
      622    1    1    2    0    0 -0.36242950677E-02  0.14469520144E-02  0.38022860925E+01  0.38023406947E+01  0.20000000000E-01 0. -1.
</event>
<event>
 5   0  0.3603037E+08  0.9118800E+02  0.7818608E-02  0.1180000E+00
       11   -1    0    0    0    0  0.00000000000E+00  0.00000000000E+00  0.39999999673E+01  0.40000000000E+01  0.51109989000E-03 0. -1.
     -623   -1    0    0    0    0  0.00000000000E+00  0.00000000000E+00  0.12525980253E-10  0.17130000000E+03  0.17130000000E+03 0.  1.
       11    1    1    2    0    0 -0.15906359770E-02 -0.13324855378E-02  0.91422775373E-01  0.91447748571E-01  0.51109989000E-03 0. -1.
     -623    1    1    2    0    0 -0.47204241345E-04  0.44011465674E-04  0.76666307401E-04  0.17130000000E+03  0.17130000000E+03 0.  1.
      622    1    1    2    0    0  0.16378402183E-02  0.12884740721E-02  0.39085005257E+01  0.39085522514E+01  0.20000000000E-01 0. -1.
</event>
<event>
 5   0  0.3603037E+08  0.9118800E+02  0.7818608E-02  0.1180000E+00
       11   -1    0    0    0    0  0.00000000000E+00  0.00000000000E+00  0.39999999673E+01  0.40000000000E+01  0.51109989000E-03 0. -1.
     -623   -1    0    0    0    0  0.00000000000E+00  0.00000000000E+00  0.12525980253E-10  0.17130000000E+03  0.17130000000E+03 0. -1.
       11    1    1    2    0    0 -0.72133242447E-02 -0.38949172433E-02  0.33686637123E+00  0.33696649049E+00  0.51109989000E-03 0. -1.
     -623    1    1    2    0    0  0.41495894601E-03 -0.15631180015E-03  0.16323632941E-03  0.17130000000E+03  0.17130000000E+03 0. -1.
      622    1    1    2    0    0  0.67983652987E-02  0.40512290435E-02  0.36629703598E+01  0.36630335089E+01  0.20000000000E-01 0. -1.
</event>
<event>
 5   0  0.3603037E+08  0.9118800E+02  0.7818608E-02  0.1180000E+00
       11   -1    0    0    0    0  0.00000000000E+00  0.00000000000E+00  0.39999999673E+01  0.40000000000E+01  0.51109989000E-03 0. -1.
     -623   -1    0    0    0    0  0.00000000000E+00  0.00000000000E+00  0.12525980253E-10  0.17130000000E+03  0.17130000000E+03 0. -1.
       11    1    1    2    0    0 -0.13117342898E-01 -0.13317768078E-02  0.14661651336E+00  0.14720904023E+00  0.51109989000E-03 0. -1.
     -623    1    1    2    0    0  0.54880279386E-03  0.27936181525E-02  0.66520810665E-03  0.17130000002E+03  0.17130000000E+03 0. -1.
      622    1    1    2    0    0  0.12568540105E-01 -0.14618413447E-02  0.38527182459E+01  0.38527909348E+01  0.20000000000E-01 0. -1.
</event>
<event>
 5   0  0.3603037E+08  0.9118800E+02  0.7818608E-02  0.1180000E+00
       11   -1    0    0    0    0  0.00000000000E+00  0.00000000000E+00  0.39999999673E+01  0.40000000000E+01  0.51109989000E-03 0.  1.
     -623   -1    0    0    0    0  0.00000000000E+00  0.00000000000E+00  0.12525980253E-10  0.17130000000E+03  0.17130000000E+03 0. -1.
       11    1    1    2    0    0  0.86056800113E-02 -0.27937593689E-02  0.56554460203E+00  0.56561720353E+00  0.51109989000E-03 0.  1.
     -623    1    1    2    0    0  0.11054715175E-03  0.16244955715E-02  0.14207161936E-03  0.17130000001E+03  0.17130000000E+03 0. -1.
      622    1    1    2    0    0 -0.87162271630E-02  0.11692637974E-02  0.34343132937E+01  0.34343827887E+01  0.20000000000E-01 0.  1.
</event>
<event>
 5   0  0.3603037E+08  0.9118800E+02  0.7818608E-02  0.1180000E+00
       11   -1    0    0    0    0  0.00000000000E+00  0.00000000000E+00  0.39999999673E+01  0.40000000000E+01  0.51109989000E-03 0.  1.
     -623   -1    0    0    0    0  0.00000000000E+00  0.00000000000E+00  0.12525980253E-10  0.17130000000E+03  0.17130000000E+03 0.  1.
       11    1    1    2    0    0 -0.56797903734E-04 -0.60467403783E-03  0.24218189574E-01  0.24231194473E-01  0.51109989000E-03 0.  1.
     -623    1    1    2    0    0 -0.36998771551E-03  0.18206040400E-04  0.63343889103E-04  0.17130000000E+03  0.17130000000E+03 0.  1.
      622    1    1    2    0    0  0.42678561924E-03  0.58646799743E-03  0.39757184339E+01  0.39757688051E+01  0.20000000000E-01 0.  1.
</event>
<event>
 5   0  0.3603037E+08  0.9118800E+02  0.7818608E-02  0.1180000E+00
       11   -1    0    0    0    0  0.00000000000E+00  0.00000000000E+00  0.39999999673E+01  0.40000000000E+01  0.51109989000E-03 0. -1.
     -623   -1    0    0    0    0  0.00000000000E+00  0.00000000000E+00  0.12525980253E-10  0.17130000000E+03  0.17130000000E+03 0.  1.
       11    1    1    2    0    0 -0.27084569118E-02 -0.14636491085E-02  0.65509605377E-01  0.65583897609E-01  0.51109989000E-03 0. -1.
     -623    1    1    2    0    0  0.12296833815E-03 -0.19860524549E-03  0.12629427213E-03  0.17130000000E+03  0.17130000000E+03 0.  1.
      622    1    1    2    0    0  0.25854885737E-02  0.16622543540E-02  0.39343640677E+01  0.39344161022E+01  0.20000000000E-01 0. -1.
</event>
<event>
 5   0  0.3603037E+08  0.9118800E+02  0.7818608E-02  0.1180000E+00
       11   -1    0    0    0    0  0.00000000000E+00  0.00000000000E+00  0.39999999673E+01  0.40000000000E+01  0.51109989000E-03 0. -1.
     -623   -1    0    0    0    0  0.00000000000E+00  0.00000000000E+00  0.12525980253E-10  0.17130000000E+03  0.17130000000E+03 0.  1.
       11    1    1    2    0    0  0.36886244294E-02  0.38124953249E-02  0.17886776387E+01  0.17886855782E+01  0.51109989000E-03 0. -1.
     -623    1    1    2    0    0 -0.93131493740E-02  0.35138437131E-02  0.11793228869E-03  0.17130000029E+03  0.17130000000E+03 0.  1.
      622    1    1    2    0    0  0.56245249446E-02 -0.73263390379E-02  0.22112043963E+01  0.22113141326E+01  0.20000000000E-01 0.  0.
</event>
<event>
 5   0  0.3603037E+08  0.9118800E+02  0.7818608E-02  0.1180000E+00
       11   -1    0    0    0    0  0.00000000000E+00  0.00000000000E+00  0.39999999673E+01  0.40000000000E+01  0.51109989000E-03 0. -1.
     -623   -1    0    0    0    0  0.00000000000E+00  0.00000000000E+00  0.12525980253E-10  0.17130000000E+03  0.17130000000E+03 0. -1.
       11    1    1    2    0    0 -0.87126420962E-03  0.59984348682E-03  0.26037468240E-01  0.26063957598E-01  0.51109989000E-03 0. -1.
     -623    1    1    2    0    0 -0.90319032215E-03 -0.71031977285E-03  0.77186553212E-04  0.17130000000E+03  0.17130000000E+03 0. -1.
      622    1    1    2    0    0  0.17744545318E-02  0.11047628603E-03  0.39738853126E+01  0.39739360385E+01  0.20000000000E-01 0. -1.
</event>
<event>
 5   0  0.3603037E+08  0.9118800E+02  0.7818608E-02  0.1180000E+00
       11   -1    0    0    0    0  0.00000000000E+00  0.00000000000E+00  0.39999999673E+01  0.40000000000E+01  0.51109989000E-03 0. -1.
     -623   -1    0    0    0    0  0.00000000000E+00  0.00000000000E+00  0.12525980253E-10  0.17130000000E+03  0.17130000000E+03 0.  1.
       11    1    1    2    0    0 -0.11659002988E-02 -0.37249560952E-02  0.51236673792E+00  0.51238185953E+00  0.51109989000E-03 0. -1.
     -623    1    1    2    0    0  0.85181059656E-04 -0.69006693118E-04  0.74666304601E-04  0.17130000000E+03  0.17130000000E+03 0.  1.
      622    1    1    2    0    0  0.10807192392E-02  0.37939627883E-02  0.34875585631E+01  0.34876181404E+01  0.20000000000E-01 0. -1.
</event>
<event>
 5   0  0.3603037E+08  0.9118800E+02  0.7818608E-02  0.1180000E+00
       11   -1    0    0    0    0  0.00000000000E+00  0.00000000000E+00  0.39999999673E+01  0.40000000000E+01  0.51109989000E-03 0.  1.
     -623   -1    0    0    0    0  0.00000000000E+00  0.00000000000E+00  0.12525980253E-10  0.17130000000E+03  0.17130000000E+03 0. -1.
       11    1    1    2    0    0  0.31271731829E-02  0.12088674840E-02  0.39432050182E-01  0.39577624675E-01  0.51109989000E-03 0. -1.
     -623    1    1    2    0    0 -0.15156428646E-02 -0.48206934694E-03  0.19644390260E-03  0.17130000001E+03  0.17130000000E+03 0. -1.
      622    1    1    2    0    0 -0.16115303183E-02 -0.72679813703E-03  0.39603714733E+01  0.39604223678E+01  0.20000000000E-01 0.  1.
</event>
<event>
 5   0  0.3603037E+08  0.9118800E+02  0.7818608E-02  0.1180000E+00
       11   -1    0    0    0    0  0.00000000000E+00  0.00000000000E+00  0.39999999673E+01  0.40000000000E+01  0.51109989000E-03 0. -1.
     -623   -1    0    0    0    0  0.00000000000E+00  0.00000000000E+00  0.12525980253E-10  0.17130000000E+03  0.17130000000E+03 0. -1.
       11    1    1    2    0    0  0.19178323268E-02  0.17224464125E-01  0.19294572182E+00  0.19372318663E+00  0.51109989000E-03 0. -1.
     -623    1    1    2    0    0 -0.13854409939E-01 -0.23271110606E-01  0.85564038618E-03  0.17130000214E+03  0.17130000000E+03 0. -1.
      622    1    1    2    0    0  0.11936577612E-01  0.60466464812E-02  0.38061986052E+01  0.38062746703E+01  0.20000000000E-01 0. -1.
</event>
<event>
 5   0  0.3603037E+08  0.9118800E+02  0.7818608E-02  0.1180000E+00
       11   -1    0    0    0    0  0.00000000000E+00  0.00000000000E+00  0.39999999673E+01  0.40000000000E+01  0.51109989000E-03 0. -1.
     -623   -1    0    0    0    0  0.00000000000E+00  0.00000000000E+00  0.12525980253E-10  0.17130000000E+03  0.17130000000E+03 0. -1.
       11    1    1    2    0    0 -0.24919319729E-03  0.23279064303E-02  0.57394602410E-01  0.57444606821E-01  0.51109989000E-03 0. -1.
     -623    1    1    2    0    0 -0.21405348031E-02 -0.29193609229E-02  0.10150752314E-03  0.17130000004E+03  0.17130000000E+03 0. -1.
      622    1    1    2    0    0  0.23897280004E-02  0.59145449261E-03  0.39425038574E+01  0.39425553549E+01  0.20000000000E-01 0. -1.
</event>
<event>
 5   0  0.3603037E+08  0.9118800E+02  0.7818608E-02  0.1180000E+00
       11   -1    0    0    0    0  0.00000000000E+00  0.00000000000E+00  0.39999999673E+01  0.40000000000E+01  0.51109989000E-03 0. -1.
     -623   -1    0    0    0    0  0.00000000000E+00  0.00000000000E+00  0.12525980253E-10  0.17130000000E+03  0.17130000000E+03 0. -1.
       11    1    1    2    0    0  0.33917211113E-01 -0.35351593416E-01  0.11789760226E+01  0.11799935744E+01  0.51109989000E-03 0. -1.
     -623    1    1    2    0    0 -0.19729658827E-01  0.55362031236E-01  0.12052186415E-02  0.17130001009E+03  0.17130000000E+03 0. -1.
      622    1    1    2    0    0 -0.14187552286E-01 -0.20010437820E-01  0.28198187261E+01  0.28199963391E+01  0.20000000000E-01 0. -1.
</event>
<event>
 5   0  0.3603037E+08  0.9118800E+02  0.7818608E-02  0.1180000E+00
       11   -1    0    0    0    0  0.00000000000E+00  0.00000000000E+00  0.39999999673E+01  0.40000000000E+01  0.51109989000E-03 0.  1.
     -623   -1    0    0    0    0  0.00000000000E+00  0.00000000000E+00  0.12525980253E-10  0.17130000000E+03  0.17130000000E+03 0. -1.
       11    1    1    2    0    0 -0.28654270559E-02 -0.62252695631E-02  0.94415056165E-01  0.94664822961E-01  0.51109989000E-03 0.  1.
     -623    1    1    2    0    0 -0.27865678332E-03  0.42664210519E-03  0.30651809494E-03  0.17130000000E+03  0.17130000000E+03 0. -1.
      622    1    1    2    0    0  0.31440838392E-02  0.57986274580E-02  0.39052783931E+01  0.39053351760E+01  0.20000000000E-01 0.  1.
</event>
<event>
 5   0  0.3603037E+08  0.9118800E+02  0.7818608E-02  0.1180000E+00
       11   -1    0    0    0    0  0.00000000000E+00  0.00000000000E+00  0.39999999673E+01  0.40000000000E+01  0.51109989000E-03 0. -1.
     -623   -1    0    0    0    0  0.00000000000E+00  0.00000000000E+00  0.12525980253E-10  0.17130000000E+03  0.17130000000E+03 0. -1.
       11    1    1    2    0    0 -0.20907882391E-01 -0.22673564479E-01  0.63596357421E+00  0.63671120535E+00  0.51109989000E-03 0. -1.
     -623    1    1    2    0    0  0.19750716165E-01  0.30478829677E-01  0.82017296324E-03  0.17130000385E+03  0.17130000000E+03 0. -1.
      622    1    1    2    0    0  0.11571662260E-02 -0.78052651986E-02  0.33632162202E+01  0.33632849426E+01  0.20000000000E-01 0. -1.
</event>
<event>
 5   0  0.3603037E+08  0.9118800E+02  0.7818608E-02  0.1180000E+00
       11   -1    0    0    0    0  0.00000000000E+00  0.00000000000E+00  0.39999999673E+01  0.40000000000E+01  0.51109989000E-03 0.  1.
     -623   -1    0    0    0    0  0.00000000000E+00  0.00000000000E+00  0.12525980253E-10  0.17130000000E+03  0.17130000000E+03 0.  1.
       11    1    1    2    0    0 -0.89567159144E-03 -0.12833789621E-02  0.18293485884E-02  0.24611029662E-02  0.51109989000E-03 0.  1.
     -623    1    1    2    0    0  0.22513437666E-02  0.10202485049E-02  0.68201055947E-03  0.17130000002E+03  0.17130000000E+03 0.  1.
      622    1    1    2    0    0 -0.13556721751E-02  0.26313045724E-03  0.39974886082E+01  0.39975388778E+01  0.20000000000E-01 0.  1.
</event>
<event>
 5   0  0.3603037E+08  0.9118800E+02  0.7818608E-02  0.1180000E+00
       11   -1    0    0    0    0  0.00000000000E+00  0.00000000000E+00  0.39999999673E+01  0.40000000000E+01  0.51109989000E-03 0. -1.
     -623   -1    0    0    0    0  0.00000000000E+00  0.00000000000E+00  0.12525980253E-10  0.17130000000E+03  0.17130000000E+03 0.  1.
       11    1    1    2    0    0  0.58790015896E-03  0.52518095384E-03  0.13945994473E-01  0.13977604434E-01  0.51109989000E-03 0. -1.
     -623    1    1    2    0    0 -0.22221362705E-03  0.12014089679E-04  0.81806106679E-04  0.17130000000E+03  0.17130000000E+03 0.  1.
      622    1    1    2    0    0 -0.36568653191E-03 -0.53719504352E-03  0.39859721668E+01  0.39860223954E+01  0.20000000000E-01 0. -1.
</event>
<event>
 5   0  0.3603037E+08  0.9118800E+02  0.7818608E-02  0.1180000E+00
       11   -1    0    0    0    0  0.00000000000E+00  0.00000000000E+00  0.39999999673E+01  0.40000000000E+01  0.51109989000E-03 0.  1.
     -623   -1    0    0    0    0  0.00000000000E+00  0.00000000000E+00  0.12525980253E-10  0.17130000000E+03  0.17130000000E+03 0. -1.
       11    1    1    2    0    0  0.15922193008E-02  0.18688392002E-02  0.37743149547E+00  0.37743982662E+00  0.51109989000E-03 0.  1.
     -623    1    1    2    0    0 -0.14749111548E-03  0.43726667208E-04  0.64301561328E-04  0.17130000000E+03  0.17130000000E+03 0. -1.
      622    1    1    2    0    0 -0.14447281853E-02 -0.19125658674E-02  0.36225041703E+01  0.36225601733E+01  0.20000000000E-01 0.  1.
</event>
<event>
 5   0  0.3603037E+08  0.9118800E+02  0.7818608E-02  0.1180000E+00
       11   -1    0    0    0    0  0.00000000000E+00  0.00000000000E+00  0.39999999673E+01  0.40000000000E+01  0.51109989000E-03 0.  1.
     -623   -1    0    0    0    0  0.00000000000E+00  0.00000000000E+00  0.12525980253E-10  0.17130000000E+03  0.17130000000E+03 0.  1.
       11    1    1    2    0    0  0.19704576216E-02  0.11913414255E-01  0.16613932631E+01  0.16614372236E+01  0.51109989000E-03 0.  1.
     -623    1    1    2    0    0  0.38997461109E-03 -0.30030453669E-04  0.16083784144E-03  0.17130000000E+03  0.17130000000E+03 0.  1.
      622    1    1    2    0    0 -0.23604322327E-02 -0.11883383802E-01  0.23384458664E+01  0.23385627759E+01  0.20000000000E-01 0.  1.
</event>
<event>
 5   0  0.3603037E+08  0.9118800E+02  0.7818608E-02  0.1180000E+00
       11   -1    0    0    0    0  0.00000000000E+00  0.00000000000E+00  0.39999999673E+01  0.40000000000E+01  0.51109989000E-03 0.  1.
     -623   -1    0    0    0    0  0.00000000000E+00  0.00000000000E+00  0.12525980253E-10  0.17130000000E+03  0.17130000000E+03 0.  1.
       11    1    1    2    0    0  0.26367926814E-01  0.10729113171E-01  0.30105610377E+01  0.30106956679E+01  0.51109989000E-03 0.  1.
     -623    1    1    2    0    0 -0.11096439701E-01 -0.98118610884E-02  0.45574798350E-03  0.17130000064E+03  0.17130000000E+03 0.  1.
      622    1    1    2    0    0 -0.15271487113E-01 -0.91725208288E-03  0.98898318165E+00  0.98930369111E+00  0.20000000000E-01 0.  1.
</event>
<event>
 5   0  0.3603037E+08  0.9118800E+02  0.7818608E-02  0.1180000E+00
       11   -1    0    0    0    0  0.00000000000E+00  0.00000000000E+00  0.39999999673E+01  0.40000000000E+01  0.51109989000E-03 0.  1.
     -623   -1    0    0    0    0  0.00000000000E+00  0.00000000000E+00  0.12525980253E-10  0.17130000000E+03  0.17130000000E+03 0. -1.
       11    1    1    2    0    0 -0.20021279350E-02 -0.23014867834E-03  0.20339792474E-01  0.20445778605E-01  0.51109989000E-03 0.  1.
     -623    1    1    2    0    0  0.21447901296E-03 -0.17110529013E-03  0.15663273275E-03  0.17130000000E+03  0.17130000000E+03 0. -1.
      622    1    1    2    0    0  0.17876489220E-02  0.40125396847E-03  0.39795035422E+01  0.39795542211E+01  0.20000000000E-01 0.  1.
</event>
<event>
 5   0  0.3603037E+08  0.9118800E+02  0.7818608E-02  0.1180000E+00
       11   -1    0    0    0    0  0.00000000000E+00  0.00000000000E+00  0.39999999673E+01  0.40000000000E+01  0.51109989000E-03 0. -1.
     -623   -1    0    0    0    0  0.00000000000E+00  0.00000000000E+00  0.12525980253E-10  0.17130000000E+03  0.17130000000E+03 0.  1.
       11    1    1    2    0    0 -0.57065612045E-02  0.15786758038E-01  0.10786271583E+00  0.10916232526E+00  0.51109989000E-03 0. -1.
     -623    1    1    2    0    0 -0.37760523737E-02  0.16306158360E-02  0.14015759269E-02  0.17130000006E+03  0.17130000000E+03 0.  1.
      622    1    1    2    0    0  0.94826135782E-02 -0.17417373874E-01  0.38907356756E+01  0.38908376196E+01  0.20000000000E-01 0. -1.
</event>
<event>
 5   0  0.3603037E+08  0.9118800E+02  0.7818608E-02  0.1180000E+00
       11   -1    0    0    0    0  0.00000000000E+00  0.00000000000E+00  0.39999999673E+01  0.40000000000E+01  0.51109989000E-03 0. -1.
     -623   -1    0    0    0    0  0.00000000000E+00  0.00000000000E+00  0.12525980253E-10  0.17130000000E+03  0.17130000000E+03 0. -1.
       11    1    1    2    0    0  0.97962933235E-03 -0.10793667889E-02  0.84999479104E-02  0.86391574150E-02  0.51109989000E-03 0. -1.
     -623    1    1    2    0    0 -0.16784826599E-03  0.28351570435E-02  0.18977779372E-03  0.17130000002E+03  0.17130000000E+03 0. -1.
      622    1    1    2    0    0 -0.81178106637E-03 -0.17557902546E-02  0.39913102417E+01  0.39913608189E+01  0.20000000000E-01 0. -1.
</event>
<event>
 5   0  0.3603037E+08  0.9118800E+02  0.7818608E-02  0.1180000E+00
       11   -1    0    0    0    0  0.00000000000E+00  0.00000000000E+00  0.39999999673E+01  0.40000000000E+01  0.51109989000E-03 0.  1.
     -623   -1    0    0    0    0  0.00000000000E+00  0.00000000000E+00  0.12525980253E-10  0.17130000000E+03  0.17130000000E+03 0. -1.
       11    1    1    2    0    0  0.82441423333E-02  0.21263914905E-01  0.21873422344E+01  0.21874611840E+01  0.51109989000E-03 0.  1.
     -623    1    1    2    0    0 -0.22875688819E-02 -0.24837419358E-02  0.33638674569E-03  0.17130000003E+03  0.17130000000E+03 0. -1.
      622    1    1    2    0    0 -0.59565734514E-02 -0.18780172969E-01  0.18123213463E+01  0.18125387824E+01  0.20000000000E-01 0.  0.
</event>
<event>
 5   0  0.3603037E+08  0.9118800E+02  0.7818608E-02  0.1180000E+00
       11   -1    0    0    0    0  0.00000000000E+00  0.00000000000E+00  0.39999999673E+01  0.40000000000E+01  0.51109989000E-03 0. -1.
     -623   -1    0    0    0    0  0.00000000000E+00  0.00000000000E+00  0.12525980253E-10  0.17130000000E+03  0.17130000000E+03 0.  1.
       11    1    1    2    0    0 -0.50677434126E-02  0.19742974610E-03  0.54569040703E-01  0.54806591082E-01  0.51109989000E-03 0. -1.
     -623    1    1    2    0    0  0.11646571989E-02  0.25331295686E-02  0.29111129517E-03  0.17130000002E+03  0.17130000000E+03 0.  1.
      622    1    1    2    0    0  0.39030862137E-02 -0.27305593147E-02  0.39451398154E+01  0.39451933860E+01  0.20000000000E-01 0. -1.
</event>
<event>
 5   0  0.3603037E+08  0.9118800E+02  0.7818608E-02  0.1180000E+00
       11   -1    0    0    0    0  0.00000000000E+00  0.00000000000E+00  0.39999999673E+01  0.40000000000E+01  0.51109989000E-03 0. -1.
     -623   -1    0    0    0    0  0.00000000000E+00  0.00000000000E+00  0.12525980253E-10  0.17130000000E+03  0.17130000000E+03 0.  1.
       11    1    1    2    0    0 -0.90815451465E-03 -0.13344781738E-02  0.58858382172E-02  0.61245317734E-02  0.51109989000E-03 0. -1.
     -623    1    1    2    0    0 -0.33985258490E-03  0.88262209996E-03  0.28896131130E-03  0.17130000000E+03  0.17130000000E+03 0.  1.
      622    1    1    2    0    0  0.12480070996E-02  0.45185607389E-03  0.39938251678E+01  0.39938754654E+01  0.20000000000E-01 0. -1.
</event>
<event>
 5   0  0.3603037E+08  0.9118800E+02  0.7818608E-02  0.1180000E+00
       11   -1    0    0    0    0  0.00000000000E+00  0.00000000000E+00  0.39999999673E+01  0.40000000000E+01  0.51109989000E-03 0. -1.
     -623   -1    0    0    0    0  0.00000000000E+00  0.00000000000E+00  0.12525980253E-10  0.17130000000E+03  0.17130000000E+03 0.  1.
       11    1    1    2    0    0 -0.26771000412E-02 -0.59107580595E-02  0.20274320152E+00  0.20284765443E+00  0.51109989000E-03 0. -1.
     -623    1    1    2    0    0  0.69348702476E-03 -0.29057994861E-03  0.16267548615E-03  0.17130000000E+03  0.17130000000E+03 0.  1.
      622    1    1    2    0    0  0.19836130164E-02  0.62013380081E-02  0.37970940904E+01  0.37971523438E+01  0.20000000000E-01 0. -1.
</event>
<event>
 5   0  0.3603037E+08  0.9118800E+02  0.7818608E-02  0.1180000E+00
       11   -1    0    0    0    0  0.00000000000E+00  0.00000000000E+00  0.39999999673E+01  0.40000000000E+01  0.51109989000E-03 0.  1.
     -623   -1    0    0    0    0  0.00000000000E+00  0.00000000000E+00  0.12525980253E-10  0.17130000000E+03  0.17130000000E+03 0.  1.
       11    1    1    2    0    0 -0.25779861342E-02  0.62429572810E-04  0.74362377599E-04  0.26299544367E-02  0.51109989000E-03 0.  1.
     -623    1    1    2    0    0  0.38555480153E-02 -0.10921903723E-02  0.26059961200E-02  0.17130000007E+03  0.17130000000E+03 0.  1.
      622    1    1    2    0    0 -0.12775618811E-02  0.10297607995E-02  0.39973196089E+01  0.39973699789E+01  0.20000000000E-01 0.  1.
</event>
<event>
 5   0  0.3603037E+08  0.9118800E+02  0.7818608E-02  0.1180000E+00
       11   -1    0    0    0    0  0.00000000000E+00  0.00000000000E+00  0.39999999673E+01  0.40000000000E+01  0.51109989000E-03 0. -1.
     -623   -1    0    0    0    0  0.00000000000E+00  0.00000000000E+00  0.12525980253E-10  0.17130000000E+03  0.17130000000E+03 0.  1.
       11    1    1    2    0    0 -0.17371860807E-03 -0.95526012694E-03  0.81816156671E-02  0.82548626916E-02  0.51109989000E-03 0. -1.
     -623    1    1    2    0    0 -0.13406340829E-02  0.12202393916E-02  0.12362378408E-03  0.17130000001E+03  0.17130000000E+03 0.  1.
      622    1    1    2    0    0  0.15143526910E-02 -0.26497926463E-03  0.39916947279E+01  0.39917451277E+01  0.20000000000E-01 0. -1.
</event>
<event>
 5   0  0.3603037E+08  0.9118800E+02  0.7818608E-02  0.1180000E+00
       11   -1    0    0    0    0  0.00000000000E+00  0.00000000000E+00  0.39999999673E+01  0.40000000000E+01  0.51109989000E-03 0.  1.
     -623   -1    0    0    0    0  0.00000000000E+00  0.00000000000E+00  0.12525980253E-10  0.17130000000E+03  0.17130000000E+03 0. -1.
       11    1    1    2    0    0 -0.83237120231E-03  0.35728471824E-02  0.59679474685E-01  0.59794305739E-01  0.51109989000E-03 0.  1.
     -623    1    1    2    0    0 -0.74242781346E-03 -0.13693665153E-02  0.16649551653E-03  0.17130000001E+03  0.17130000000E+03 0. -1.
      622    1    1    2    0    0  0.15747990158E-02 -0.22034806671E-02  0.39401539972E+01  0.39402056871E+01  0.20000000000E-01 0.  1.
</event>
<event>
 5   0  0.3603037E+08  0.9118800E+02  0.7818608E-02  0.1180000E+00
       11   -1    0    0    0    0  0.00000000000E+00  0.00000000000E+00  0.39999999673E+01  0.40000000000E+01  0.51109989000E-03 0. -1.
     -623   -1    0    0    0    0  0.00000000000E+00  0.00000000000E+00  0.12525980253E-10  0.17130000000E+03  0.17130000000E+03 0.  1.
       11    1    1    2    0    0 -0.51059824684E-02  0.33979352317E-02  0.22474080063E+00  0.22482505579E+00  0.51109989000E-03 0. -1.
     -623    1    1    2    0    0  0.69731751788E-03 -0.34914163520E-02  0.13981304965E-03  0.17130000004E+03  0.17130000000E+03 0.  1.
      622    1    1    2    0    0  0.44086649505E-02  0.93481120277E-04  0.37751193537E+01  0.37751749072E+01  0.20000000000E-01 0. -1.
</event>
<event>
 5   0  0.3603037E+08  0.9118800E+02  0.7818608E-02  0.1180000E+00
       11   -1    0    0    0    0  0.00000000000E+00  0.00000000000E+00  0.39999999673E+01  0.40000000000E+01  0.51109989000E-03 0.  1.
     -623   -1    0    0    0    0  0.00000000000E+00  0.00000000000E+00  0.12525980253E-10  0.17130000000E+03  0.17130000000E+03 0. -1.
       11    1    1    2    0    0  0.29942011210E-02  0.48969178625E-03  0.18961680210E+00  0.18964176201E+00  0.51109989000E-03 0.  1.
     -623    1    1    2    0    0 -0.13660300518E-02 -0.89839279960E-03  0.77793741844E-04  0.17130000001E+03  0.17130000000E+03 0. -1.
      622    1    1    2    0    0 -0.16281710693E-02  0.40870101335E-03  0.38103053715E+01  0.38103582302E+01  0.20000000000E-01 0.  1.
</event>
<event>
 5   0  0.3603037E+08  0.9118800E+02  0.7818608E-02  0.1180000E+00
       11   -1    0    0    0    0  0.00000000000E+00  0.00000000000E+00  0.39999999673E+01  0.40000000000E+01  0.51109989000E-03 0. -1.
     -623   -1    0    0    0    0  0.00000000000E+00  0.00000000000E+00  0.12525980253E-10  0.17130000000E+03  0.17130000000E+03 0. -1.
       11    1    1    2    0    0  0.17008435092E-01  0.15692619858E-01  0.12495354288E+01  0.12497498126E+01  0.51109989000E-03 0. -1.
     -623    1    1    2    0    0  0.68034480988E-02  0.54281536803E-02  0.47148759430E-03  0.17130000022E+03  0.17130000000E+03 0. -1.
      622    1    1    2    0    0 -0.23811883191E-01 -0.21120773538E-01  0.27499930510E+01  0.27502499656E+01  0.20000000000E-01 0. -1.
</event>
<event>
 5   0  0.3603037E+08  0.9118800E+02  0.7818608E-02  0.1180000E+00
       11   -1    0    0    0    0  0.00000000000E+00  0.00000000000E+00  0.39999999673E+01  0.40000000000E+01  0.51109989000E-03 0. -1.
     -623   -1    0    0    0    0  0.00000000000E+00  0.00000000000E+00  0.12525980253E-10  0.17130000000E+03  0.17130000000E+03 0. -1.
       11    1    1    2    0    0 -0.61323460003E-03 -0.73067963084E-02  0.64204926979E+00  0.64209134194E+00  0.51109989000E-03 0. -1.
     -623    1    1    2    0    0 -0.42104527369E-03  0.75953169803E-03  0.10814550066E-03  0.17130000000E+03  0.17130000000E+03 0. -1.
      622    1    1    2    0    0  0.10342798737E-02  0.65472646104E-02  0.33578425521E+01  0.33579086558E+01  0.20000000000E-01 0. -1.
</event>
<event>
 5   0  0.3603037E+08  0.9118800E+02  0.7818608E-02  0.1180000E+00
       11   -1    0    0    0    0  0.00000000000E+00  0.00000000000E+00  0.39999999673E+01  0.40000000000E+01  0.51109989000E-03 0.  1.
     -623   -1    0    0    0    0  0.00000000000E+00  0.00000000000E+00  0.12525980253E-10  0.17130000000E+03  0.17130000000E+03 0. -1.
       11    1    1    2    0    0 -0.30080788270E-02  0.12019879268E-02  0.70843225658E-01  0.70919088806E-01  0.51109989000E-03 0.  1.
     -623    1    1    2    0    0  0.13012056122E-02  0.39886208960E-03  0.12743566261E-03  0.17130000001E+03  0.17130000000E+03 0. -1.
      622    1    1    2    0    0  0.17068732148E-02 -0.16008500164E-02  0.39290293060E+01  0.39290809057E+01  0.20000000000E-01 0.  1.
</event>
<event>
 5   0  0.3603037E+08  0.9118800E+02  0.7818608E-02  0.1180000E+00
       11   -1    0    0    0    0  0.00000000000E+00  0.00000000000E+00  0.39999999673E+01  0.40000000000E+01  0.51109989000E-03 0. -1.
     -623   -1    0    0    0    0  0.00000000000E+00  0.00000000000E+00  0.12525980253E-10  0.17130000000E+03  0.17130000000E+03 0.  1.
       11    1    1    2    0    0 -0.11649993533E-03  0.62612835662E-03  0.28188061724E-01  0.28199887468E-01  0.51109989000E-03 0. -1.
     -623    1    1    2    0    0  0.98632378850E-04  0.13367151086E-03  0.62221231766E-04  0.17130000000E+03  0.17130000000E+03 0.  1.
      622    1    1    2    0    0  0.17867556484E-04 -0.75979986748E-03  0.39717496844E+01  0.39718001124E+01  0.20000000000E-01 0. -1.
</event>
<event>
 5   0  0.3603037E+08  0.9118800E+02  0.7818608E-02  0.1180000E+00
       11   -1    0    0    0    0  0.00000000000E+00  0.00000000000E+00  0.39999999673E+01  0.40000000000E+01  0.51109989000E-03 0.  1.
     -623   -1    0    0    0    0  0.00000000000E+00  0.00000000000E+00  0.12525980253E-10  0.17130000000E+03  0.17130000000E+03 0.  1.
       11    1    1    2    0    0 -0.14651676268E-02  0.36704149475E-02  0.13884914062E+01  0.13884971246E+01  0.51109989000E-03 0.  1.
     -623    1    1    2    0    0  0.33175754560E-03 -0.43789228523E-05  0.85090697281E-04  0.17130000000E+03  0.17130000000E+03 0.  1.
      622    1    1    2    0    0  0.11334100812E-02 -0.36660360246E-02  0.26114234704E+01  0.26115028751E+01  0.20000000000E-01 0.  1.
</event>
<event>
 5   0  0.3603037E+08  0.9118800E+02  0.7818608E-02  0.1180000E+00
       11   -1    0    0    0    0  0.00000000000E+00  0.00000000000E+00  0.39999999673E+01  0.40000000000E+01  0.51109989000E-03 0.  1.
     -623   -1    0    0    0    0  0.00000000000E+00  0.00000000000E+00  0.12525980253E-10  0.17130000000E+03  0.17130000000E+03 0. -1.
       11    1    1    2    0    0 -0.64367941962E-02 -0.80728819088E-02  0.22761985080E+00  0.22785447427E+00  0.51109989000E-03 0.  1.
     -623    1    1    2    0    0 -0.19212838121E-02  0.62742039659E-02  0.29742598427E-03  0.17130000013E+03  0.17130000000E+03 0. -1.
      622    1    1    2    0    0  0.83580780083E-02  0.17986779429E-02  0.37720826906E+01  0.37721453998E+01  0.20000000000E-01 0.  1.
</event>
<event>
 5   0  0.3603037E+08  0.9118800E+02  0.7818608E-02  0.1180000E+00
       11   -1    0    0    0    0  0.00000000000E+00  0.00000000000E+00  0.39999999673E+01  0.40000000000E+01  0.51109989000E-03 0. -1.
     -623   -1    0    0    0    0  0.00000000000E+00  0.00000000000E+00  0.12525980253E-10  0.17130000000E+03  0.17130000000E+03 0.  1.
       11    1    1    2    0    0 -0.25500498397E-03 -0.28842880842E-03  0.44817572152E-01  0.44822139782E-01  0.51109989000E-03 0. -1.
     -623    1    1    2    0    0 -0.12769723881E-02 -0.30633475848E-03  0.55448398976E-04  0.17130000001E+03  0.17130000000E+03 0.  1.
      622    1    1    2    0    0  0.15319773720E-02  0.59476356690E-03  0.39551269468E+01  0.39551778552E+01  0.20000000000E-01 0. -1.
</event>
<event>
 5   0  0.3603037E+08  0.9118800E+02  0.7818608E-02  0.1180000E+00
       11   -1    0    0    0    0  0.00000000000E+00  0.00000000000E+00  0.39999999673E+01  0.40000000000E+01  0.51109989000E-03 0.  1.
     -623   -1    0    0    0    0  0.00000000000E+00  0.00000000000E+00  0.12525980253E-10  0.17130000000E+03  0.17130000000E+03 0.  1.
       11    1    1    2    0    0  0.10238259528E-01  0.12602887706E-01  0.11408240471E+01  0.11409397103E+01  0.51109989000E-03 0.  1.
     -623    1    1    2    0    0 -0.13856778079E-02  0.13675151284E-02  0.23343466103E-03  0.17130000001E+03  0.17130000000E+03 0.  1.
      622    1    1    2    0    0 -0.88525817202E-02 -0.13970402834E-01  0.28589424856E+01  0.28590602785E+01  0.20000000000E-01 0.  1.
</event>
<event>
 5   0  0.3603037E+08  0.9118800E+02  0.7818608E-02  0.1180000E+00
       11   -1    0    0    0    0  0.00000000000E+00  0.00000000000E+00  0.39999999673E+01  0.40000000000E+01  0.51109989000E-03 0.  1.
     -623   -1    0    0    0    0  0.00000000000E+00  0.00000000000E+00  0.12525980253E-10  0.17130000000E+03  0.17130000000E+03 0.  1.
       11    1    1    2    0    0  0.22541102787E-02  0.97784482569E-03  0.65709379854E-01  0.65757288692E-01  0.51109989000E-03 0.  1.
     -623    1    1    2    0    0 -0.31289369791E-03  0.10555711403E-02  0.99720210266E-04  0.17130000000E+03  0.17130000000E+03 0.  1.
      622    1    1    2    0    0 -0.19412165808E-02 -0.20334159660E-02  0.39341908673E+01  0.39342427077E+01  0.20000000000E-01 0.  1.
</event>
<event>
 5   0  0.3603037E+08  0.9118800E+02  0.7818608E-02  0.1180000E+00
       11   -1    0    0    0    0  0.00000000000E+00  0.00000000000E+00  0.39999999673E+01  0.40000000000E+01  0.51109989000E-03 0.  1.
     -623   -1    0    0    0    0  0.00000000000E+00  0.00000000000E+00  0.12525980253E-10  0.17130000000E+03  0.17130000000E+03 0.  1.
       11    1    1    2    0    0 -0.16019623353E-02 -0.23260439606E-03  0.10016154612E+00  0.10017592989E+00  0.51109989000E-03 0.  1.
     -623    1    1    2    0    0  0.36562345708E-03 -0.15898907541E-03  0.65851948959E-04  0.17130000000E+03  0.17130000000E+03 0.  1.
      622    1    1    2    0    0  0.12363388782E-02  0.39159347147E-03  0.38997725693E+01  0.38998240696E+01  0.20000000000E-01 0.  1.
</event>
<event>
 5   0  0.3603037E+08  0.9118800E+02  0.7818608E-02  0.1180000E+00
       11   -1    0    0    0    0  0.00000000000E+00  0.00000000000E+00  0.39999999673E+01  0.40000000000E+01  0.51109989000E-03 0. -1.
     -623   -1    0    0    0    0  0.00000000000E+00  0.00000000000E+00  0.12525980253E-10  0.17130000000E+03  0.17130000000E+03 0. -1.
       11    1    1    2    0    0 -0.51312821136E-02 -0.24633363344E-02  0.57644193389E+00  0.57647026154E+00  0.51109989000E-03 0. -1.
     -623    1    1    2    0    0  0.16962657158E-02  0.30847909834E-03  0.89124928594E-04  0.17130000001E+03  0.17130000000E+03 0. -1.
      622    1    1    2    0    0  0.34350163978E-02  0.21548572361E-02  0.34234689085E+01  0.34235297298E+01  0.20000000000E-01 0.  0.
</event>
<event>
 5   0  0.3603037E+08  0.9118800E+02  0.7818608E-02  0.1180000E+00
       11   -1    0    0    0    0  0.00000000000E+00  0.00000000000E+00  0.39999999673E+01  0.40000000000E+01  0.51109989000E-03 0. -1.
     -623   -1    0    0    0    0  0.00000000000E+00  0.00000000000E+00  0.12525980253E-10  0.17130000000E+03  0.17130000000E+03 0.  1.
       11    1    1    2    0    0  0.57554750667E-02  0.16357529488E-02  0.29482907764E+00  0.29489022945E+00  0.51109989000E-03 0. -1.
     -623    1    1    2    0    0 -0.24013886823E-02 -0.21055690977E-02  0.11667685273E-03  0.17130000003E+03  0.17130000000E+03 0.  1.
      622    1    1    2    0    0 -0.33540863845E-02  0.46981614891E-03  0.37050542129E+01  0.37051097407E+01  0.20000000000E-01 0.  0.
</event>
<event>
 5   0  0.3603037E+08  0.9118800E+02  0.7818608E-02  0.1180000E+00
       11   -1    0    0    0    0  0.00000000000E+00  0.00000000000E+00  0.39999999673E+01  0.40000000000E+01  0.51109989000E-03 0.  1.
     -623   -1    0    0    0    0  0.00000000000E+00  0.00000000000E+00  0.12525980253E-10  0.17130000000E+03  0.17130000000E+03 0.  1.
       11    1    1    2    0    0 -0.38727586030E-05 -0.79715913046E-03  0.28699865758E-01  0.28715483506E-01  0.51109989000E-03 0.  1.
     -623    1    1    2    0    0  0.79309041916E-03  0.39044442947E-03  0.66048508226E-04  0.17130000000E+03  0.17130000000E+03 0.  1.
      622    1    1    2    0    0 -0.78921766056E-03  0.40671470099E-03  0.39712340531E+01  0.39712845142E+01  0.20000000000E-01 0.  1.
</event>
<event>
 5   0  0.3603037E+08  0.9118800E+02  0.7818608E-02  0.1180000E+00
       11   -1    0    0    0    0  0.00000000000E+00  0.00000000000E+00  0.39999999673E+01  0.40000000000E+01  0.51109989000E-03 0.  1.
     -623   -1    0    0    0    0  0.00000000000E+00  0.00000000000E+00  0.12525980253E-10  0.17130000000E+03  0.17130000000E+03 0.  1.
       11    1    1    2    0    0 -0.21299467361E-02 -0.24605225031E-02  0.56729425272E+00  0.56730381740E+00  0.51109989000E-03 0.  1.
     -623    1    1    2    0    0 -0.18989719106E-03  0.22769600673E-03  0.69306134225E-04  0.17130000000E+03  0.17130000000E+03 0.  1.
      622    1    1    2    0    0  0.23198439272E-02  0.22328264964E-02  0.34326364085E+01  0.34326961823E+01  0.20000000000E-01 0.  1.
</event>
<event>
 5   0  0.3603037E+08  0.9118800E+02  0.7818608E-02  0.1180000E+00
       11   -1    0    0    0    0  0.00000000000E+00  0.00000000000E+00  0.39999999673E+01  0.40000000000E+01  0.51109989000E-03 0. -1.
     -623   -1    0    0    0    0  0.00000000000E+00  0.00000000000E+00  0.12525980253E-10  0.17130000000E+03  0.17130000000E+03 0.  1.
       11    1    1    2    0    0 -0.10157606815E-01  0.37338545257E-01  0.28882544993E+01  0.28885137455E+01  0.51109989000E-03 0. -1.
     -623    1    1    2    0    0 -0.55001091571E-02 -0.18024170210E-01  0.71838592257E-03  0.17130000104E+03  0.17130000000E+03 0.  1.
      622    1    1    2    0    0  0.15657715972E-01 -0.19314375047E-01  0.11110270821E+01  0.11114852164E+01  0.20000000000E-01 0.  1.
</event>
<event>
 5   0  0.3603037E+08  0.9118800E+02  0.7818608E-02  0.1180000E+00
       11   -1    0    0    0    0  0.00000000000E+00  0.00000000000E+00  0.39999999673E+01  0.40000000000E+01  0.51109989000E-03 0.  1.
     -623   -1    0    0    0    0  0.00000000000E+00  0.00000000000E+00  0.12525980253E-10  0.17130000000E+03  0.17130000000E+03 0.  1.
       11    1    1    2    0    0  0.17969982073E-02 -0.52208963971E-03  0.56976703693E-01  0.57009716420E-01  0.51109989000E-03 0.  1.
     -623    1    1    2    0    0 -0.20225315621E-03  0.97479560283E-04  0.84048871233E-04  0.17130000000E+03  0.17130000000E+03 0.  1.
      622    1    1    2    0    0 -0.15947450511E-02  0.42461007943E-03  0.39429392148E+01  0.39429902834E+01  0.20000000000E-01 0.  1.
</event>
<event>
 5   0  0.3603037E+08  0.9118800E+02  0.7818608E-02  0.1180000E+00
       11   -1    0    0    0    0  0.00000000000E+00  0.00000000000E+00  0.39999999673E+01  0.40000000000E+01  0.51109989000E-03 0.  1.
     -623   -1    0    0    0    0  0.00000000000E+00  0.00000000000E+00  0.12525980253E-10  0.17130000000E+03  0.17130000000E+03 0.  1.
       11    1    1    2    0    0 -0.33806348268E-03  0.29062143069E-02  0.95060931939E-01  0.95107320282E-01  0.51109989000E-03 0.  1.
     -623    1    1    2    0    0  0.72987808104E-03  0.13580183139E-03  0.98780051875E-04  0.17130000000E+03  0.17130000000E+03 0.  1.
      622    1    1    2    0    0 -0.39181459835E-03 -0.30420161383E-02  0.39048402554E+01  0.39048926781E+01  0.20000000000E-01 0.  1.
</event>
<event>
 5   0  0.3603037E+08  0.9118800E+02  0.7818608E-02  0.1180000E+00
       11   -1    0    0    0    0  0.00000000000E+00  0.00000000000E+00  0.39999999673E+01  0.40000000000E+01  0.51109989000E-03 0.  1.
     -623   -1    0    0    0    0  0.00000000000E+00  0.00000000000E+00  0.12525980253E-10  0.17130000000E+03  0.17130000000E+03 0. -1.
       11    1    1    2    0    0  0.64798814093E-02 -0.43868921894E-02  0.21360176103E+01  0.21360320050E+01  0.51109989000E-03 0.  1.
     -623    1    1    2    0    0 -0.22568082008E-02 -0.10640297591E-02  0.13443635398E-03  0.17130000002E+03  0.17130000000E+03 0. -1.
      622    1    1    2    0    0 -0.42230732085E-02  0.54509219485E-02  0.18638479207E+01  0.18639679768E+01  0.20000000000E-01 0.  1.
</event>
<event>
 5   0  0.3603037E+08  0.9118800E+02  0.7818608E-02  0.1180000E+00
       11   -1    0    0    0    0  0.00000000000E+00  0.00000000000E+00  0.39999999673E+01  0.40000000000E+01  0.51109989000E-03 0.  1.
     -623   -1    0    0    0    0  0.00000000000E+00  0.00000000000E+00  0.12525980253E-10  0.17130000000E+03  0.17130000000E+03 0. -1.
       11    1    1    2    0    0 -0.48389421122E-03  0.62809711717E-03  0.77805111780E+00  0.77805168967E+00  0.51109989000E-03 0.  1.
     -623    1    1    2    0    0  0.72326728167E-03  0.12786252045E-02  0.63193470440E-04  0.17130000001E+03  0.17130000000E+03 0. -1.
      622    1    1    2    0    0 -0.23937307045E-03 -0.19067223216E-02  0.32218856561E+01  0.32219483040E+01  0.20000000000E-01 0.  1.
</event>
<event>
 5   0  0.3603037E+08  0.9118800E+02  0.7818608E-02  0.1180000E+00
       11   -1    0    0    0    0  0.00000000000E+00  0.00000000000E+00  0.39999999673E+01  0.40000000000E+01  0.51109989000E-03 0. -1.
     -623   -1    0    0    0    0  0.00000000000E+00  0.00000000000E+00  0.12525980253E-10  0.17130000000E+03  0.17130000000E+03 0.  1.
       11    1    1    2    0    0 -0.18721615114E-02 -0.36557365503E-02  0.45603833634E+00  0.45605711795E+00  0.51109989000E-03 0. -1.
     -623    1    1    2    0    0  0.25590684883E-02  0.20247486248E-02  0.75656717825E-04  0.17130000003E+03  0.17130000000E+03 0.  1.
      622    1    1    2    0    0 -0.68690697684E-03  0.16309879256E-02  0.35438859743E+01  0.35439428509E+01  0.20000000000E-01 0. -1.
</event>
<event>
 5   0  0.3603037E+08  0.9118800E+02  0.7818608E-02  0.1180000E+00
       11   -1    0    0    0    0  0.00000000000E+00  0.00000000000E+00  0.39999999673E+01  0.40000000000E+01  0.51109989000E-03 0. -1.
     -623   -1    0    0    0    0  0.00000000000E+00  0.00000000000E+00  0.12525980253E-10  0.17130000000E+03  0.17130000000E+03 0.  1.
       11    1    1    2    0    0  0.43575098165E-03  0.29252581158E-02  0.73177995764E-01  0.73239520067E-01  0.51109989000E-03 0. -1.
     -623    1    1    2    0    0 -0.59379965683E-03 -0.87030356077E-03  0.11296872774E-03  0.17130000000E+03  0.17130000000E+03 0.  1.
      622    1    1    2    0    0  0.15804867518E-03 -0.20549545550E-02  0.39267090029E+01  0.39267604767E+01  0.20000000000E-01 0.  0.
</event>
<event>
 5   0  0.3603037E+08  0.9118800E+02  0.7818608E-02  0.1180000E+00
       11   -1    0    0    0    0  0.00000000000E+00  0.00000000000E+00  0.39999999673E+01  0.40000000000E+01  0.51109989000E-03 0. -1.
     -623   -1    0    0    0    0  0.00000000000E+00  0.00000000000E+00  0.12525980253E-10  0.17130000000E+03  0.17130000000E+03 0. -1.
       11    1    1    2    0    0 -0.36837982882E-04 -0.29344966555E-03  0.71459455400E-01  0.71461895139E-01  0.51109989000E-03 0. -1.
     -623    1    1    2    0    0  0.20609111326E-04 -0.28246354970E-04  0.53330168400E-04  0.17130000000E+03  0.17130000000E+03 0. -1.
      622    1    1    2    0    0  0.16228871555E-04  0.32169602052E-03  0.39284871818E+01  0.39285381048E+01  0.20000000000E-01 0. -1.
</event>
<event>
 5   0  0.3603037E+08  0.9118800E+02  0.7818608E-02  0.1180000E+00
       11   -1    0    0    0    0  0.00000000000E+00  0.00000000000E+00  0.39999999673E+01  0.40000000000E+01  0.51109989000E-03 0. -1.
     -623   -1    0    0    0    0  0.00000000000E+00  0.00000000000E+00  0.12525980253E-10  0.17130000000E+03  0.17130000000E+03 0. -1.
       11    1    1    2    0    0  0.38343605511E-03 -0.37530028320E-03  0.29797438487E-01  0.29806650861E-01  0.51109989000E-03 0. -1.
     -623    1    1    2    0    0  0.37219701326E-03  0.44806086490E-03  0.59629010068E-04  0.17130000000E+03  0.17130000000E+03 0. -1.
      622    1    1    2    0    0 -0.75563306837E-03 -0.72760581705E-04  0.39701428999E+01  0.39701933481E+01  0.20000000000E-01 0. -1.
</event>
<event>
 5   0  0.3603037E+08  0.9118800E+02  0.7818608E-02  0.1180000E+00
       11   -1    0    0    0    0  0.00000000000E+00  0.00000000000E+00  0.39999999673E+01  0.40000000000E+01  0.51109989000E-03 0.  1.
     -623   -1    0    0    0    0  0.00000000000E+00  0.00000000000E+00  0.12525980253E-10  0.17130000000E+03  0.17130000000E+03 0.  1.
       11    1    1    2    0    0  0.30381562799E-03 -0.14714716957E-01  0.17334823530E+00  0.17397266194E+00  0.51109989000E-03 0.  1.
     -623    1    1    2    0    0  0.18656514020E-02 -0.25157367163E-03  0.70656715586E-03  0.17130000001E+03  0.17130000000E+03 0.  1.
      622    1    1    2    0    0 -0.21694670300E-02  0.14966290629E-01  0.38259451649E+01  0.38260273263E+01  0.20000000000E-01 0.  1.
</event>
<event>
 5   0  0.3603037E+08  0.9118800E+02  0.7818608E-02  0.1180000E+00
       11   -1    0    0    0    0  0.00000000000E+00  0.00000000000E+00  0.39999999673E+01  0.40000000000E+01  0.51109989000E-03 0. -1.
     -623   -1    0    0    0    0  0.00000000000E+00  0.00000000000E+00  0.12525980253E-10  0.17130000000E+03  0.17130000000E+03 0. -1.
       11    1    1    2    0    0 -0.50973977927E-02  0.10577132218E-02  0.26045759730E+00  0.26051012156E+00  0.51109989000E-03 0. -1.
     -623    1    1    2    0    0  0.39603496163E-02 -0.28603540527E-02  0.10665229010E-03  0.17130000007E+03  0.17130000000E+03 0. -1.
      622    1    1    2    0    0  0.11370481764E-02  0.18026408309E-02  0.37394357178E+01  0.37394898087E+01  0.20000000000E-01 0. -1.
</event>
<event>
 5   0  0.3603037E+08  0.9118800E+02  0.7818608E-02  0.1180000E+00
       11   -1    0    0    0    0  0.00000000000E+00  0.00000000000E+00  0.39999999673E+01  0.40000000000E+01  0.51109989000E-03 0. -1.
     -623   -1    0    0    0    0  0.00000000000E+00  0.00000000000E+00  0.12525980253E-10  0.17130000000E+03  0.17130000000E+03 0. -1.
       11    1    1    2    0    0  0.16221250127E-02  0.13762131122E-02  0.10747921420E+00  0.10750147886E+00  0.51109989000E-03 0. -1.
     -623    1    1    2    0    0 -0.24988930165E-02  0.18738020943E-02  0.75097285802E-04  0.17130000003E+03  0.17130000000E+03 0. -1.
      622    1    1    2    0    0  0.87676800385E-03 -0.32500152065E-02  0.38924456559E+01  0.38924984926E+01  0.20000000000E-01 0. -1.
</event>
<event>
 5   0  0.3603037E+08  0.9118800E+02  0.7818608E-02  0.1180000E+00
       11   -1    0    0    0    0  0.00000000000E+00  0.00000000000E+00  0.39999999673E+01  0.40000000000E+01  0.51109989000E-03 0.  1.
     -623   -1    0    0    0    0  0.00000000000E+00  0.00000000000E+00  0.12525980253E-10  0.17130000000E+03  0.17130000000E+03 0. -1.
       11    1    1    2    0    0  0.67118715362E-02  0.11639557849E-01  0.45874927266E+00  0.45894627672E+00  0.51109989000E-03 0.  1.
     -623    1    1    2    0    0 -0.27869793328E-03  0.32498036128E-03  0.27951014284E-03  0.17130000000E+03  0.17130000000E+03 0. -1.
      622    1    1    2    0    0 -0.64331736029E-02 -0.11964538210E-01  0.35409711846E+01  0.35410537225E+01  0.20000000000E-01 0.  1.
</event>
<event>
 5   0  0.3603037E+08  0.9118800E+02  0.7818608E-02  0.1180000E+00
       11   -1    0    0    0    0  0.00000000000E+00  0.00000000000E+00  0.39999999673E+01  0.40000000000E+01  0.51109989000E-03 0.  1.
     -623   -1    0    0    0    0  0.00000000000E+00  0.00000000000E+00  0.12525980253E-10  0.17130000000E+03  0.17130000000E+03 0. -1.
       11    1    1    2    0    0  0.38092488382E-02  0.34961114933E-03  0.12878707384E+01  0.12878765207E+01  0.51109989000E-03 0.  1.
     -623    1    1    2    0    0 -0.40381850174E-03 -0.20457346159E-03  0.81636188560E-04  0.17130000000E+03  0.17130000000E+03 0. -1.
      622    1    1    2    0    0 -0.34054303365E-02 -0.14503768774E-03  0.27120475928E+01  0.27121234787E+01  0.20000000000E-01 0.  1.
</event>
<event>
 5   0  0.3603037E+08  0.9118800E+02  0.7818608E-02  0.1180000E+00
       11   -1    0    0    0    0  0.00000000000E+00  0.00000000000E+00  0.39999999673E+01  0.40000000000E+01  0.51109989000E-03 0. -1.
     -623   -1    0    0    0    0  0.00000000000E+00  0.00000000000E+00  0.12525980253E-10  0.17130000000E+03  0.17130000000E+03 0.  1.
       11    1    1    2    0    0 -0.33346472115E-02  0.76471445366E-02  0.24126149545E+00  0.24140623252E+00  0.51109989000E-03 0. -1.
     -623    1    1    2    0    0  0.78945173013E-03  0.28697067248E-03  0.20715445030E-03  0.17130000000E+03  0.17130000000E+03 0.  1.
      622    1    1    2    0    0  0.25451954813E-02 -0.79341152090E-02  0.37585313175E+01  0.37585937653E+01  0.20000000000E-01 0. -1.
</event>
<event>
 5   0  0.3603037E+08  0.9118800E+02  0.7818608E-02  0.1180000E+00
       11   -1    0    0    0    0  0.00000000000E+00  0.00000000000E+00  0.39999999673E+01  0.40000000000E+01  0.51109989000E-03 0.  1.
     -623   -1    0    0    0    0  0.00000000000E+00  0.00000000000E+00  0.12525980253E-10  0.17130000000E+03  0.17130000000E+03 0. -1.
       11    1    1    2    0    0 -0.23141831667E-02  0.65389367815E-02  0.70757938800E+00  0.70761357016E+00  0.51109989000E-03 0.  1.
     -623    1    1    2    0    0  0.42217092904E-02 -0.27589762088E-02  0.97693074534E-04  0.17130000007E+03  0.17130000000E+03 0. -1.
      622    1    1    2    0    0 -0.19075261237E-02 -0.37799605727E-02  0.32923228863E+01  0.32923863556E+01  0.20000000000E-01 0.  1.
</event>
<event>
 5   0  0.3603037E+08  0.9118800E+02  0.7818608E-02  0.1180000E+00
       11   -1    0    0    0    0  0.00000000000E+00  0.00000000000E+00  0.39999999673E+01  0.40000000000E+01  0.51109989000E-03 0. -1.
     -623   -1    0    0    0    0  0.00000000000E+00  0.00000000000E+00  0.12525980253E-10  0.17130000000E+03  0.17130000000E+03 0.  1.
       11    1    1    2    0    0  0.12197042842E-03  0.17986934811E-03  0.19964842786E-01  0.19972566166E-01  0.51109989000E-03 0. -1.
     -623    1    1    2    0    0  0.11503698888E-02 -0.86462719440E-03  0.58210302199E-04  0.17130000001E+03  0.17130000000E+03 0.  1.
      622    1    1    2    0    0 -0.12723403172E-02  0.68475784630E-03  0.39799769143E+01  0.39800274278E+01  0.20000000000E-01 0. -1.
</event>
<event>
 5   0  0.3603037E+08  0.9118800E+02  0.7818608E-02  0.1180000E+00
       11   -1    0    0    0    0  0.00000000000E+00  0.00000000000E+00  0.39999999673E+01  0.40000000000E+01  0.51109989000E-03 0. -1.
     -623   -1    0    0    0    0  0.00000000000E+00  0.00000000000E+00  0.12525980253E-10  0.17130000000E+03  0.17130000000E+03 0.  1.
       11    1    1    2    0    0  0.43064504345E-04 -0.19458177465E-04  0.62386253908E-01  0.62388365355E-01  0.51109989000E-03 0. -1.
     -623    1    1    2    0    0  0.27866350390E-03 -0.71592385944E-03  0.52954890384E-04  0.17130000000E+03  0.17130000000E+03 0.  1.
      622    1    1    2    0    0 -0.32172800825E-03  0.73538203691E-03  0.39375607586E+01  0.39376116329E+01  0.20000000000E-01 0. -1.
</event>
<event>
 5   0  0.3603037E+08  0.9118800E+02  0.7818608E-02  0.1180000E+00
       11   -1    0    0    0    0  0.00000000000E+00  0.00000000000E+00  0.39999999673E+01  0.40000000000E+01  0.51109989000E-03 0. -1.
     -623   -1    0    0    0    0  0.00000000000E+00  0.00000000000E+00  0.12525980253E-10  0.17130000000E+03  0.17130000000E+03 0. -1.
       11    1    1    2    0    0 -0.17936771957E-02  0.46869865678E-03  0.64239593676E+00  0.64239881518E+00  0.51109989000E-03 0. -1.
     -623    1    1    2    0    0 -0.99730780632E-04 -0.10739158007E-04  0.62977788622E-04  0.17130000000E+03  0.17130000000E+03 0. -1.
      622    1    1    2    0    0  0.18934079764E-02 -0.45795949878E-03  0.33575410528E+01  0.33576011848E+01  0.20000000000E-01 0. -1.
</event>
<event>
 5   0  0.3603037E+08  0.9118800E+02  0.7818608E-02  0.1180000E+00
       11   -1    0    0    0    0  0.00000000000E+00  0.00000000000E+00  0.39999999673E+01  0.40000000000E+01  0.51109989000E-03 0. -1.
     -623   -1    0    0    0    0  0.00000000000E+00  0.00000000000E+00  0.12525980253E-10  0.17130000000E+03  0.17130000000E+03 0.  1.
       11    1    1    2    0    0  0.12970025499E-02 -0.62207812359E-02  0.25284943516E-01  0.26076232940E-01  0.51109989000E-03 0. -1.
     -623    1    1    2    0    0 -0.74738295813E-02  0.77177478590E-02  0.84700665523E-03  0.17130000034E+03  0.17130000000E+03 0.  1.
      622    1    1    2    0    0  0.61768270314E-02 -0.14969666230E-02  0.39738680172E+01  0.39739234281E+01  0.20000000000E-01 0. -1.
</event>
<event>
 5   0  0.3603037E+08  0.9118800E+02  0.7818608E-02  0.1180000E+00
       11   -1    0    0    0    0  0.00000000000E+00  0.00000000000E+00  0.39999999673E+01  0.40000000000E+01  0.51109989000E-03 0.  1.
     -623   -1    0    0    0    0  0.00000000000E+00  0.00000000000E+00  0.12525980253E-10  0.17130000000E+03  0.17130000000E+03 0.  1.
       11    1    1    2    0    0  0.20117748834E-02  0.50001897004E-02  0.11352697021E+00  0.11365598675E+00  0.51109989000E-03 0.  1.
     -623    1    1    2    0    0 -0.17806648472E-02 -0.18266999025E-02  0.18176816146E-03  0.17130000002E+03  0.17130000000E+03 0.  1.
      622    1    1    2    0    0 -0.23111003622E-03 -0.31734897979E-02  0.38862912290E+01  0.38863439942E+01  0.20000000000E-01 0.  1.
</event>
<event>
 5   0  0.3603037E+08  0.9118800E+02  0.7818608E-02  0.1180000E+00
       11   -1    0    0    0    0  0.00000000000E+00  0.00000000000E+00  0.39999999673E+01  0.40000000000E+01  0.51109989000E-03 0.  1.
     -623   -1    0    0    0    0  0.00000000000E+00  0.00000000000E+00  0.12525980253E-10  0.17130000000E+03  0.17130000000E+03 0.  1.
       11    1    1    2    0    0 -0.89893238342E-02 -0.24535657643E-02  0.25535161266E+00  0.25552208366E+00  0.51109989000E-03 0.  1.
     -623    1    1    2    0    0  0.31941363922E-02 -0.60740200133E-03  0.22961743172E-03  0.17130000003E+03  0.17130000000E+03 0.  1.
      622    1    1    2    0    0  0.57951874420E-02  0.30609677657E-02  0.37444187373E+01  0.37444778853E+01  0.20000000000E-01 0.  1.
</event>
<event>
 5   0  0.3603037E+08  0.9118800E+02  0.7818608E-02  0.1180000E+00
       11   -1    0    0    0    0  0.00000000000E+00  0.00000000000E+00  0.39999999673E+01  0.40000000000E+01  0.51109989000E-03 0. -1.
     -623   -1    0    0    0    0  0.00000000000E+00  0.00000000000E+00  0.12525980253E-10  0.17130000000E+03  0.17130000000E+03 0. -1.
       11    1    1    2    0    0 -0.38118341179E-03  0.57692450184E-02  0.64320159974E-01  0.64581527450E-01  0.51109989000E-03 0. -1.
     -623    1    1    2    0    0 -0.26837965482E-03 -0.48429224570E-03  0.31575915658E-03  0.17130000000E+03  0.17130000000E+03 0. -1.
      622    1    1    2    0    0  0.64956306661E-03 -0.52849527727E-02  0.39353640482E+01  0.39354184714E+01  0.20000000000E-01 0. -1.
</event>
<event>
 5   0  0.3603037E+08  0.9118800E+02  0.7818608E-02  0.1180000E+00
       11   -1    0    0    0    0  0.00000000000E+00  0.00000000000E+00  0.39999999673E+01  0.40000000000E+01  0.51109989000E-03 0. -1.
     -623   -1    0    0    0    0  0.00000000000E+00  0.00000000000E+00  0.12525980253E-10  0.17130000000E+03  0.17130000000E+03 0. -1.
       11    1    1    2    0    0  0.19924399716E-01 -0.14511278454E-01  0.31997915633E+00  0.32092753172E+00  0.51109989000E-03 0. -1.
     -623    1    1    2    0    0  0.16926912685E-01  0.28295766336E-02  0.12066830043E-02  0.17130000086E+03  0.17130000000E+03 0. -1.
      622    1    1    2    0    0 -0.36851312401E-01  0.11681701820E-01  0.36788141280E+01  0.36790716043E+01  0.20000000000E-01 0. -1.
</event>
<event>
 5   0  0.3603037E+08  0.9118800E+02  0.7818608E-02  0.1180000E+00
       11   -1    0    0    0    0  0.00000000000E+00  0.00000000000E+00  0.39999999673E+01  0.40000000000E+01  0.51109989000E-03 0.  1.
     -623   -1    0    0    0    0  0.00000000000E+00  0.00000000000E+00  0.12525980253E-10  0.17130000000E+03  0.17130000000E+03 0.  1.
       11    1    1    2    0    0  0.23553869150E-01  0.12521433115E-01  0.14497883392E+01  0.14500338137E+01  0.51109989000E-03 0.  1.
     -623    1    1    2    0    0  0.57849835209E-03 -0.92470859476E-03  0.46444943781E-03  0.17130000000E+03  0.17130000000E+03 0.  1.
      622    1    1    2    0    0 -0.24132367502E-01 -0.11596724520E-01  0.25497471787E+01  0.25499661822E+01  0.20000000000E-01 0.  1.
</event>
<event>
 5   0  0.3603037E+08  0.9118800E+02  0.7818608E-02  0.1180000E+00
       11   -1    0    0    0    0  0.00000000000E+00  0.00000000000E+00  0.39999999673E+01  0.40000000000E+01  0.51109989000E-03 0. -1.
     -623   -1    0    0    0    0  0.00000000000E+00  0.00000000000E+00  0.12525980253E-10  0.17130000000E+03  0.17130000000E+03 0.  1.
       11    1    1    2    0    0 -0.10322371247E-02  0.11347185009E-02  0.49193749091E+00  0.49194014807E+00  0.51109989000E-03 0. -1.
     -623    1    1    2    0    0  0.41669112137E-03 -0.25765003737E-02  0.60006738325E-04  0.17130000002E+03  0.17130000000E+03 0.  1.
      622    1    1    2    0    0  0.61554600337E-03  0.14417818728E-02  0.35080024697E+01  0.35080598320E+01  0.20000000000E-01 0. -1.
</event>
<event>
 5   0  0.3603037E+08  0.9118800E+02  0.7818608E-02  0.1180000E+00
       11   -1    0    0    0    0  0.00000000000E+00  0.00000000000E+00  0.39999999673E+01  0.40000000000E+01  0.51109989000E-03 0. -1.
     -623   -1    0    0    0    0  0.00000000000E+00  0.00000000000E+00  0.12525980253E-10  0.17130000000E+03  0.17130000000E+03 0. -1.
       11    1    1    2    0    0  0.17802949381E-02 -0.97880206008E-03  0.70762153345E-02  0.73798067202E-02  0.51109989000E-03 0. -1.
     -623    1    1    2    0    0 -0.21395386156E-02 -0.80822590856E-03  0.35408320079E-03  0.17130000002E+03  0.17130000000E+03 0. -1.
      622    1    1    2    0    0  0.35924367746E-03  0.17870279686E-02  0.39925696688E+01  0.39926201776E+01  0.20000000000E-01 0. -1.
</event>
<event>
 5   0  0.3603037E+08  0.9118800E+02  0.7818608E-02  0.1180000E+00
       11   -1    0    0    0    0  0.00000000000E+00  0.00000000000E+00  0.39999999673E+01  0.40000000000E+01  0.51109989000E-03 0.  1.
     -623   -1    0    0    0    0  0.00000000000E+00  0.00000000000E+00  0.12525980253E-10  0.17130000000E+03  0.17130000000E+03 0.  1.
       11    1    1    2    0    0  0.87574334368E-03 -0.39922768129E-03  0.11615159906E-01  0.11666167766E-01  0.51109989000E-03 0.  1.
     -623    1    1    2    0    0 -0.34455575565E-03  0.90916830476E-03  0.10119255225E-03  0.17130000000E+03  0.17130000000E+03 0.  1.
      622    1    1    2    0    0 -0.53118758803E-03 -0.50994062347E-03  0.39882836149E+01  0.39883338294E+01  0.20000000000E-01 0.  1.
</event>
<event>
 5   0  0.3603037E+08  0.9118800E+02  0.7818608E-02  0.1180000E+00
       11   -1    0    0    0    0  0.00000000000E+00  0.00000000000E+00  0.39999999673E+01  0.40000000000E+01  0.51109989000E-03 0.  1.
     -623   -1    0    0    0    0  0.00000000000E+00  0.00000000000E+00  0.12525980253E-10  0.17130000000E+03  0.17130000000E+03 0. -1.
       11    1    1    2    0    0 -0.25940660995E-02 -0.64262614306E-01  0.99419230676E+00  0.99627055403E+00  0.51109989000E-03 0.  1.
     -623    1    1    2    0    0  0.22983878132E-01  0.51208280591E-02  0.27979654369E-02  0.17130000164E+03  0.17130000000E+03 0. -1.
      622    1    1    2    0    0 -0.20389812033E-01  0.59141786247E-01  0.30030096952E+01  0.30037278047E+01  0.20000000000E-01 0.  1.
</event>
<event>
 5   0  0.3603037E+08  0.9118800E+02  0.7818608E-02  0.1180000E+00
       11   -1    0    0    0    0  0.00000000000E+00  0.00000000000E+00  0.39999999673E+01  0.40000000000E+01  0.51109989000E-03 0. -1.
     -623   -1    0    0    0    0  0.00000000000E+00  0.00000000000E+00  0.12525980253E-10  0.17130000000E+03  0.17130000000E+03 0.  1.
       11    1    1    2    0    0 -0.15244739271E-02 -0.15244098432E-02  0.33513506170E+00  0.33514238564E+00  0.51109989000E-03 0. -1.
     -623    1    1    2    0    0 -0.26044846921E-04  0.57745325825E-04  0.62485584663E-04  0.17130000000E+03  0.17130000000E+03 0.  1.
      622    1    1    2    0    0  0.15505187740E-02  0.14666645174E-02  0.36648024201E+01  0.36648576143E+01  0.20000000000E-01 0. -1.
</event>
<event>
 5   0  0.3603037E+08  0.9118800E+02  0.7818608E-02  0.1180000E+00
       11   -1    0    0    0    0  0.00000000000E+00  0.00000000000E+00  0.39999999673E+01  0.40000000000E+01  0.51109989000E-03 0. -1.
     -623   -1    0    0    0    0  0.00000000000E+00  0.00000000000E+00  0.12525980253E-10  0.17130000000E+03  0.17130000000E+03 0. -1.
       11    1    1    2    0    0  0.24987518210E-03 -0.56321104217E-03  0.20236109416E-01  0.20251937924E-01  0.51109989000E-03 0. -1.
     -623    1    1    2    0    0  0.43221542917E-04 -0.10162696980E-03  0.66116997265E-04  0.17130000000E+03  0.17130000000E+03 0. -1.
      622    1    1    2    0    0 -0.29309672502E-03  0.66483801198E-03  0.39796977409E+01  0.39797480620E+01  0.20000000000E-01 0. -1.
</event>
<event>
 5   0  0.3603037E+08  0.9118800E+02  0.7818608E-02  0.1180000E+00
       11   -1    0    0    0    0  0.00000000000E+00  0.00000000000E+00  0.39999999673E+01  0.40000000000E+01  0.51109989000E-03 0. -1.
     -623   -1    0    0    0    0  0.00000000000E+00  0.00000000000E+00  0.12525980253E-10  0.17130000000E+03  0.17130000000E+03 0. -1.
       11    1    1    2    0    0 -0.73145653152E-03  0.29934297919E-04  0.22332684324E-01  0.22350524249E-01  0.51109989000E-03 0. -1.
     -623    1    1    2    0    0  0.68758173667E-03  0.37461291784E-03  0.68111171937E-04  0.17130000000E+03  0.17130000000E+03 0. -1.
      622    1    1    2    0    0  0.43874794846E-04 -0.40454721575E-03  0.39775991719E+01  0.39776494739E+01  0.20000000000E-01 0. -1.
</event>
<event>
 5   0  0.3603037E+08  0.9118800E+02  0.7818608E-02  0.1180000E+00
       11   -1    0    0    0    0  0.00000000000E+00  0.00000000000E+00  0.39999999673E+01  0.40000000000E+01  0.51109989000E-03 0.  1.
     -623   -1    0    0    0    0  0.00000000000E+00  0.00000000000E+00  0.12525980253E-10  0.17130000000E+03  0.17130000000E+03 0.  1.
       11    1    1    2    0    0 -0.42901325802E-02 -0.33411170525E-02  0.64757800783E+00  0.64760103902E+00  0.51109989000E-03 0.  1.
     -623    1    1    2    0    0 -0.73438406995E-04  0.11228033863E-03  0.87052797205E-04  0.17130000000E+03  0.17130000000E+03 0.  1.
      622    1    1    2    0    0  0.43635709872E-02  0.32288367139E-02  0.33523349067E+01  0.33523989609E+01  0.20000000000E-01 0.  1.
</event>
<event>
 5   0  0.3603037E+08  0.9118800E+02  0.7818608E-02  0.1180000E+00
       11   -1    0    0    0    0  0.00000000000E+00  0.00000000000E+00  0.39999999673E+01  0.40000000000E+01  0.51109989000E-03 0.  1.
     -623   -1    0    0    0    0  0.00000000000E+00  0.00000000000E+00  0.12525980253E-10  0.17130000000E+03  0.17130000000E+03 0.  1.
       11    1    1    2    0    0 -0.11928868009E-02  0.20824124510E-03  0.79360523240E-02  0.80441588773E-02  0.51109989000E-03 0.  1.
     -623    1    1    2    0    0 -0.21575008256E-03 -0.13248197384E-02  0.15858500914E-03  0.17130000001E+03  0.17130000000E+03 0.  1.
      622    1    1    2    0    0  0.14086368834E-02  0.11165784933E-02  0.39919053300E+01  0.39919558358E+01  0.20000000000E-01 0.  1.
</event>
<event>
 5   0  0.3603037E+08  0.9118800E+02  0.7818608E-02  0.1180000E+00
       11   -1    0    0    0    0  0.00000000000E+00  0.00000000000E+00  0.39999999673E+01  0.40000000000E+01  0.51109989000E-03 0. -1.
     -623   -1    0    0    0    0  0.00000000000E+00  0.00000000000E+00  0.12525980253E-10  0.17130000000E+03  0.17130000000E+03 0.  1.
       11    1    1    2    0    0 -0.37501953240E-02 -0.37610285466E-02  0.22645004984E+00  0.22651290381E+00  0.51109989000E-03 0. -1.
     -623    1    1    2    0    0 -0.63906587759E-03  0.12221557527E-02  0.11923558361E-03  0.17130000001E+03  0.17130000000E+03 0.  1.
      622    1    1    2    0    0  0.43892612016E-02  0.25388727939E-02  0.37734306819E+01  0.37734870906E+01  0.20000000000E-01 0. -1.
</event>
<event>
 5   0  0.3603037E+08  0.9118800E+02  0.7818608E-02  0.1180000E+00
       11   -1    0    0    0    0  0.00000000000E+00  0.00000000000E+00  0.39999999673E+01  0.40000000000E+01  0.51109989000E-03 0.  1.
     -623   -1    0    0    0    0  0.00000000000E+00  0.00000000000E+00  0.12525980253E-10  0.17130000000E+03  0.17130000000E+03 0. -1.
       11    1    1    2    0    0 -0.23632380513E-02  0.41151987029E-02  0.15086825806E+00  0.15094373874E+00  0.51109989000E-03 0.  1.
     -623    1    1    2    0    0  0.22711593288E-03  0.58080575789E-04  0.13026458257E-03  0.17130000000E+03  0.17130000000E+03 0. -1.
      622    1    1    2    0    0  0.21361221184E-02 -0.41732792787E-02  0.38490014447E+01  0.38490562610E+01  0.20000000000E-01 0.  1.
</event>
<event>
 5   0  0.3603037E+08  0.9118800E+02  0.7818608E-02  0.1180000E+00
       11   -1    0    0    0    0  0.00000000000E+00  0.00000000000E+00  0.39999999673E+01  0.40000000000E+01  0.51109989000E-03 0. -1.
     -623   -1    0    0    0    0  0.00000000000E+00  0.00000000000E+00  0.12525980253E-10  0.17130000000E+03  0.17130000000E+03 0. -1.
       11    1    1    2    0    0  0.20637300025E-02  0.11578056263E-03  0.35820505462E-01  0.35883731980E-01  0.51109989000E-03 0. -1.
     -623    1    1    2    0    0 -0.79020951032E-04 -0.22981595215E-02  0.11475986947E-03  0.17130000002E+03  0.17130000000E+03 0. -1.
      622    1    1    2    0    0 -0.19847090514E-02  0.21823789589E-02  0.39640647020E+01  0.39641162525E+01  0.20000000000E-01 0. -1.
</event>
<event>
 5   0  0.3603037E+08  0.9118800E+02  0.7818608E-02  0.1180000E+00
       11   -1    0    0    0    0  0.00000000000E+00  0.00000000000E+00  0.39999999673E+01  0.40000000000E+01  0.51109989000E-03 0.  1.
     -623   -1    0    0    0    0  0.00000000000E+00  0.00000000000E+00  0.12525980253E-10  0.17130000000E+03  0.17130000000E+03 0. -1.
       11    1    1    2    0    0  0.16709568580E-02  0.29528180315E-01  0.55860558531E+00  0.55938820750E+00  0.51109989000E-03 0.  1.
     -623    1    1    2    0    0 -0.36030300932E-02  0.20416810934E-02  0.98615719781E-03  0.17130000005E+03  0.17130000000E+03 0. -1.
      622    1    1    2    0    0  0.19320732352E-02 -0.31569861408E-01  0.34404082248E+01  0.34406117396E+01  0.20000000000E-01 0.  1.
</event>
<event>
 5   0  0.3603037E+08  0.9118800E+02  0.7818608E-02  0.1180000E+00
       11   -1    0    0    0    0  0.00000000000E+00  0.00000000000E+00  0.39999999673E+01  0.40000000000E+01  0.51109989000E-03 0. -1.
     -623   -1    0    0    0    0  0.00000000000E+00  0.00000000000E+00  0.12525980253E-10  0.17130000000E+03  0.17130000000E+03 0. -1.
       11    1    1    2    0    0 -0.12655921196E-02  0.45865545432E-02  0.53674713897E+00  0.53676847022E+00  0.51109989000E-03 0. -1.
     -623    1    1    2    0    0 -0.64934886966E-03  0.40925814207E-03  0.83183155368E-04  0.17130000000E+03  0.17130000000E+03 0. -1.
      622    1    1    2    0    0  0.19149409893E-02 -0.49958126853E-02  0.34631696452E+01  0.34632315280E+01  0.20000000000E-01 0. -1.
</event>
<event>
 5   0  0.3603037E+08  0.9118800E+02  0.7818608E-02  0.1180000E+00
       11   -1    0    0    0    0  0.00000000000E+00  0.00000000000E+00  0.39999999673E+01  0.40000000000E+01  0.51109989000E-03 0.  1.
     -623   -1    0    0    0    0  0.00000000000E+00  0.00000000000E+00  0.12525980253E-10  0.17130000000E+03  0.17130000000E+03 0. -1.
       11    1    1    2    0    0  0.97532477742E-03 -0.51258281127E-03  0.11444581492E+00  0.11445225981E+00  0.51109989000E-03 0.  1.
     -623    1    1    2    0    0  0.20923847976E-03  0.33350141843E-03  0.58070536482E-04  0.17130000000E+03  0.17130000000E+03 0. -1.
      622    1    1    2    0    0 -0.11845632572E-02  0.17908139284E-03  0.38854960819E+01  0.38855477397E+01  0.20000000000E-01 0.  1.
</event>
<event>
 5   0  0.3603037E+08  0.9118800E+02  0.7818608E-02  0.1180000E+00
       11   -1    0    0    0    0  0.00000000000E+00  0.00000000000E+00  0.39999999673E+01  0.40000000000E+01  0.51109989000E-03 0. -1.
     -623   -1    0    0    0    0  0.00000000000E+00  0.00000000000E+00  0.12525980253E-10  0.17130000000E+03  0.17130000000E+03 0. -1.
       11    1    1    2    0    0 -0.75714916363E-03 -0.46141139190E-02  0.63013498077E-01  0.63188808221E-01  0.51109989000E-03 0. -1.
     -623    1    1    2    0    0 -0.13699119638E-03  0.10084883698E-02  0.22783625812E-03  0.17130000000E+03  0.17130000000E+03 0. -1.
      622    1    1    2    0    0  0.89414036001E-03  0.36056255492E-02  0.39367586330E+01  0.39368111886E+01  0.20000000000E-01 0. -1.
</event>
<event>
 5   0  0.3603037E+08  0.9118800E+02  0.7818608E-02  0.1180000E+00
       11   -1    0    0    0    0  0.00000000000E+00  0.00000000000E+00  0.39999999673E+01  0.40000000000E+01  0.51109989000E-03 0.  1.
     -623   -1    0    0    0    0  0.00000000000E+00  0.00000000000E+00  0.12525980253E-10  0.17130000000E+03  0.17130000000E+03 0. -1.
       11    1    1    2    0    0 -0.22553845422E-01  0.11413865385E-02  0.45111575128E-01  0.50450908204E-01  0.51109989000E-03 0.  1.
     -623    1    1    2    0    0  0.21467159554E-01  0.27146216483E-02  0.53934228754E-02  0.17130000145E+03  0.17130000000E+03 0. -1.
      622    1    1    2    0    0  0.10866858677E-02 -0.38560081869E-02  0.39494949694E+01  0.39495476403E+01  0.20000000000E-01 0.  1.
</event>
<event>
 5   0  0.3603037E+08  0.9118800E+02  0.7818608E-02  0.1180000E+00
       11   -1    0    0    0    0  0.00000000000E+00  0.00000000000E+00  0.39999999673E+01  0.40000000000E+01  0.51109989000E-03 0.  1.
     -623   -1    0    0    0    0  0.00000000000E+00  0.00000000000E+00  0.12525980253E-10  0.17130000000E+03  0.17130000000E+03 0.  1.
       11    1    1    2    0    0 -0.22174843736E-04 -0.40439307778E-03  0.15077486615E+00  0.15077627635E+00  0.51109989000E-03 0.  1.
     -623    1    1    2    0    0 -0.11605986249E-04 -0.13490592859E-03  0.53374427101E-04  0.17130000000E+03  0.17130000000E+03 0.  1.
      622    1    1    2    0    0  0.33780829985E-04  0.53929900637E-03  0.38491717268E+01  0.38492237236E+01  0.20000000000E-01 0.  1.
</event>
<event>
 5   0  0.3603037E+08  0.9118800E+02  0.7818608E-02  0.1180000E+00
       11   -1    0    0    0    0  0.00000000000E+00  0.00000000000E+00  0.39999999673E+01  0.40000000000E+01  0.51109989000E-03 0.  1.
     -623   -1    0    0    0    0  0.00000000000E+00  0.00000000000E+00  0.12525980253E-10  0.17130000000E+03  0.17130000000E+03 0. -1.
       11    1    1    2    0    0 -0.63489672372E-02 -0.64322037104E-02  0.13191133986E+01  0.13191444584E+01  0.51109989000E-03 0.  1.
     -623    1    1    2    0    0 -0.24095893751E-02 -0.10077819951E-01  0.17109322573E-03  0.17130000031E+03  0.17130000000E+03 0. -1.
      622    1    1    2    0    0  0.87585566123E-02  0.16510023661E-01  0.26807154755E+01  0.26808552281E+01  0.20000000000E-01 0.  0.
</event>
<event>
 5   0  0.3603037E+08  0.9118800E+02  0.7818608E-02  0.1180000E+00
       11   -1    0    0    0    0  0.00000000000E+00  0.00000000000E+00  0.39999999673E+01  0.40000000000E+01  0.51109989000E-03 0. -1.
     -623   -1    0    0    0    0  0.00000000000E+00  0.00000000000E+00  0.12525980253E-10  0.17130000000E+03  0.17130000000E+03 0.  1.
       11    1    1    2    0    0 -0.13560914436E-02  0.20943195841E-02  0.20267009652E-01  0.20426405958E-01  0.51109989000E-03 0. -1.
     -623    1    1    2    0    0  0.53688521629E-03  0.97268269128E-03  0.21089053946E-03  0.17130000000E+03  0.17130000000E+03 0.  1.
      622    1    1    2    0    0  0.81920622736E-03 -0.30670022754E-02  0.39795220672E+01  0.39795735903E+01  0.20000000000E-01 0. -1.
</event>
<event>
 5   0  0.3603037E+08  0.9118800E+02  0.7818608E-02  0.1180000E+00
       11   -1    0    0    0    0  0.00000000000E+00  0.00000000000E+00  0.39999999673E+01  0.40000000000E+01  0.51109989000E-03 0.  1.
     -623   -1    0    0    0    0  0.00000000000E+00  0.00000000000E+00  0.12525980253E-10  0.17130000000E+03  0.17130000000E+03 0. -1.
       11    1    1    2    0    0  0.25943259697E-03  0.51209744955E-03  0.27974556401E+00  0.27974661992E+00  0.51109989000E-03 0.  1.
     -623    1    1    2    0    0 -0.11414441382E-02 -0.30909501814E-02  0.55813523404E-04  0.17130000003E+03  0.17130000000E+03 0. -1.
      622    1    1    2    0    0  0.88201154124E-03  0.25788527318E-02  0.37201985898E+01  0.37202533484E+01  0.20000000000E-01 0.  1.
</event>
<event>
 5   0  0.3603037E+08  0.9118800E+02  0.7818608E-02  0.1180000E+00
       11   -1    0    0    0    0  0.00000000000E+00  0.00000000000E+00  0.39999999673E+01  0.40000000000E+01  0.51109989000E-03 0. -1.
     -623   -1    0    0    0    0  0.00000000000E+00  0.00000000000E+00  0.12525980253E-10  0.17130000000E+03  0.17130000000E+03 0. -1.
       11    1    1    2    0    0  0.25147250092E-02  0.29412806914E-02  0.44499078674E+00  0.44500790609E+00  0.51109989000E-03 0. -1.
     -623    1    1    2    0    0 -0.75121322656E-03 -0.30063615829E-03  0.74766161113E-04  0.17130000000E+03  0.17130000000E+03 0. -1.
      622    1    1    2    0    0 -0.17635117826E-02 -0.26406445332E-02  0.35549344145E+01  0.35549920920E+01  0.20000000000E-01 0.  0.
</event>
<event>
 5   0  0.3603037E+08  0.9118800E+02  0.7818608E-02  0.1180000E+00
       11   -1    0    0    0    0  0.00000000000E+00  0.00000000000E+00  0.39999999673E+01  0.40000000000E+01  0.51109989000E-03 0. -1.
     -623   -1    0    0    0    0  0.00000000000E+00  0.00000000000E+00  0.12525980253E-10  0.17130000000E+03  0.17130000000E+03 0. -1.
       11    1    1    2    0    0 -0.23867493738E-03 -0.39539889367E-03  0.76511900534E-01  0.76515001479E-01  0.51109989000E-03 0. -1.
     -623    1    1    2    0    0  0.10926125461E-02 -0.49700604392E-03  0.54242361446E-04  0.17130000000E+03  0.17130000000E+03 0. -1.
      622    1    1    2    0    0 -0.85393760870E-03  0.89240493759E-03  0.39234338245E+01  0.39234849943E+01  0.20000000000E-01 0. -1.
</event>
<event>
 5   0  0.3603037E+08  0.9118800E+02  0.7818608E-02  0.1180000E+00
       11   -1    0    0    0    0  0.00000000000E+00  0.00000000000E+00  0.39999999673E+01  0.40000000000E+01  0.51109989000E-03 0. -1.
     -623   -1    0    0    0    0  0.00000000000E+00  0.00000000000E+00  0.12525980253E-10  0.17130000000E+03  0.17130000000E+03 0. -1.
       11    1    1    2    0    0 -0.12594660525E-02 -0.61674808826E-03  0.28656668062E-01  0.28695513212E-01  0.51109989000E-03 0. -1.
     -623    1    1    2    0    0 -0.24009028663E-03  0.42603456441E-03  0.89462534344E-04  0.17130000000E+03  0.17130000000E+03 0. -1.
      622    1    1    2    0    0  0.14995563391E-02  0.19071352385E-03  0.39712538368E+01  0.39713044861E+01  0.20000000000E-01 0. -1.
</event>
<event>
 5   0  0.3603037E+08  0.9118800E+02  0.7818608E-02  0.1180000E+00
       11   -1    0    0    0    0  0.00000000000E+00  0.00000000000E+00  0.39999999673E+01  0.40000000000E+01  0.51109989000E-03 0. -1.
     -623   -1    0    0    0    0  0.00000000000E+00  0.00000000000E+00  0.12525980253E-10  0.17130000000E+03  0.17130000000E+03 0. -1.
       11    1    1    2    0    0  0.41828966275E-02 -0.46445212493E-02  0.12263501920E+00  0.12279526603E+00  0.51109989000E-03 0. -1.
     -623    1    1    2    0    0 -0.48146351564E-03  0.16605518029E-03  0.21615233542E-03  0.17130000000E+03  0.17130000000E+03 0. -1.
      622    1    1    2    0    0 -0.37014331119E-02  0.44784660690E-02  0.38771487958E+01  0.38772047331E+01  0.20000000000E-01 0. -1.
</event>
<event>
 5   0  0.3603037E+08  0.9118800E+02  0.7818608E-02  0.1180000E+00
       11   -1    0    0    0    0  0.00000000000E+00  0.00000000000E+00  0.39999999673E+01  0.40000000000E+01  0.51109989000E-03 0.  1.
     -623   -1    0    0    0    0  0.00000000000E+00  0.00000000000E+00  0.12525980253E-10  0.17130000000E+03  0.17130000000E+03 0.  1.
       11    1    1    2    0    0 -0.57480978773E-02 -0.13672323593E-02  0.11102311436E-01  0.12586997045E-01  0.51109989000E-03 0.  1.
     -623    1    1    2    0    0  0.41596153595E-02  0.27870455356E-02  0.15354603689E-02  0.17130000008E+03  0.17130000000E+03 0.  1.
      622    1    1    2    0    0  0.15884825178E-02 -0.14198131763E-02  0.39873621956E+01  0.39874129229E+01  0.20000000000E-01 0.  1.
</event>
<event>
 5   0  0.3603037E+08  0.9118800E+02  0.7818608E-02  0.1180000E+00
       11   -1    0    0    0    0  0.00000000000E+00  0.00000000000E+00  0.39999999673E+01  0.40000000000E+01  0.51109989000E-03 0. -1.
     -623   -1    0    0    0    0  0.00000000000E+00  0.00000000000E+00  0.12525980253E-10  0.17130000000E+03  0.17130000000E+03 0.  1.
       11    1    1    2    0    0  0.22127672765E-02  0.25872337833E-02  0.90501240107E+00  0.90501894866E+00  0.51109989000E-03 0. -1.
     -623    1    1    2    0    0  0.66179726103E-04  0.39276655809E-03  0.73410581850E-04  0.17130000000E+03  0.17130000000E+03 0.  1.
      622    1    1    2    0    0 -0.22789470026E-02 -0.29800003414E-02  0.30949141557E+01  0.30949810509E+01  0.20000000000E-01 0. -1.
</event>
<event>
 5   0  0.3603037E+08  0.9118800E+02  0.7818608E-02  0.1180000E+00
       11   -1    0    0    0    0  0.00000000000E+00  0.00000000000E+00  0.39999999673E+01  0.40000000000E+01  0.51109989000E-03 0.  1.
     -623   -1    0    0    0    0  0.00000000000E+00  0.00000000000E+00  0.12525980253E-10  0.17130000000E+03  0.17130000000E+03 0.  1.
       11    1    1    2    0    0 -0.39355362171E-02 -0.96373849822E-02  0.87589204017E+00  0.87595404839E+00  0.51109989000E-03 0.  1.
     -623    1    1    2    0    0  0.16838122672E-02  0.12912184165E-01  0.12901871478E-03  0.17130000049E+03  0.17130000000E+03 0.  1.
      622    1    1    2    0    0  0.22517239499E-02 -0.32747991828E-02  0.31239789085E+01  0.31240454566E+01  0.20000000000E-01 0.  1.
</event>
<event>
 5   0  0.3603037E+08  0.9118800E+02  0.7818608E-02  0.1180000E+00
       11   -1    0    0    0    0  0.00000000000E+00  0.00000000000E+00  0.39999999673E+01  0.40000000000E+01  0.51109989000E-03 0.  1.
     -623   -1    0    0    0    0  0.00000000000E+00  0.00000000000E+00  0.12525980253E-10  0.17130000000E+03  0.17130000000E+03 0.  1.
       11    1    1    2    0    0  0.50037166964E-02  0.60420427908E-02  0.18613625259E+00  0.18630219862E+00  0.51109989000E-03 0.  1.
     -623    1    1    2    0    0 -0.56141545093E-02  0.13644349602E-02  0.22569479769E-03  0.17130000010E+03  0.17130000000E+03 0.  1.
      622    1    1    2    0    0  0.61043781290E-03 -0.74064777510E-02  0.38136380200E+01  0.38136977038E+01  0.20000000000E-01 0.  1.
</event>
<event>
 5   0  0.3603037E+08  0.9118800E+02  0.7818608E-02  0.1180000E+00
       11   -1    0    0    0    0  0.00000000000E+00  0.00000000000E+00  0.39999999673E+01  0.40000000000E+01  0.51109989000E-03 0. -1.
     -623   -1    0    0    0    0  0.00000000000E+00  0.00000000000E+00  0.12525980253E-10  0.17130000000E+03  0.17130000000E+03 0.  1.
       11    1    1    2    0    0 -0.42749493192E-02 -0.53112642931E-02  0.32711676122E+00  0.32718820488E+00  0.51109989000E-03 0. -1.
     -623    1    1    2    0    0 -0.18847607846E-02  0.89571806558E-03  0.13369800079E-03  0.17130000001E+03  0.17130000000E+03 0.  1.
      622    1    1    2    0    0  0.61597101038E-02  0.44155462275E-02  0.36727495081E+01  0.36728117824E+01  0.20000000000E-01 0. -1.
</event>
<event>
 5   0  0.3603037E+08  0.9118800E+02  0.7818608E-02  0.1180000E+00
       11   -1    0    0    0    0  0.00000000000E+00  0.00000000000E+00  0.39999999673E+01  0.40000000000E+01  0.51109989000E-03 0.  1.
     -623   -1    0    0    0    0  0.00000000000E+00  0.00000000000E+00  0.12525980253E-10  0.17130000000E+03  0.17130000000E+03 0.  1.
       11    1    1    2    0    0 -0.33241014181E-02  0.38373833336E-02  0.10562539433E+00  0.10574857118E+00  0.51109989000E-03 0.  1.
     -623    1    1    2    0    0  0.63586363752E-02 -0.61175549936E-02  0.17657953228E-03  0.17130000023E+03  0.17130000000E+03 0.  1.
      622    1    1    2    0    0 -0.30345349571E-02  0.22801716600E-02  0.38941979935E+01  0.38942512015E+01  0.20000000000E-01 0.  1.
</event>
<event>
 5   0  0.3603037E+08  0.9118800E+02  0.7818608E-02  0.1180000E+00
       11   -1    0    0    0    0  0.00000000000E+00  0.00000000000E+00  0.39999999673E+01  0.40000000000E+01  0.51109989000E-03 0. -1.
     -623   -1    0    0    0    0  0.00000000000E+00  0.00000000000E+00  0.12525980253E-10  0.17130000000E+03  0.17130000000E+03 0. -1.
       11    1    1    2    0    0  0.21573247923E-02  0.10831352832E-02  0.28171000899E-01  0.28278856884E-01  0.51109989000E-03 0. -1.
     -623    1    1    2    0    0 -0.50530559247E-03  0.14976922654E-02  0.15936913517E-03  0.17130000001E+03  0.17130000000E+03 0. -1.
      622    1    1    2    0    0 -0.16520191998E-02 -0.25808275486E-02  0.39716695973E+01  0.39717211357E+01  0.20000000000E-01 0. -1.
</event>
<event>
 5   0  0.3603037E+08  0.9118800E+02  0.7818608E-02  0.1180000E+00
       11   -1    0    0    0    0  0.00000000000E+00  0.00000000000E+00  0.39999999673E+01  0.40000000000E+01  0.51109989000E-03 0.  1.
     -623   -1    0    0    0    0  0.00000000000E+00  0.00000000000E+00  0.12525980253E-10  0.17130000000E+03  0.17130000000E+03 0.  1.
       11    1    1    2    0    0 -0.37520990234E-02  0.25006275847E-02  0.20909179183E+00  0.20914102902E+00  0.51109989000E-03 0.  1.
     -623    1    1    2    0    0 -0.35244448010E-03 -0.24140451235E-03  0.10485931255E-03  0.17130000000E+03  0.17130000000E+03 0.  1.
      622    1    1    2    0    0  0.41045435035E-02 -0.22592230724E-02  0.37908033162E+01  0.37908589704E+01  0.20000000000E-01 0.  1.
</event>
<event>
 5   0  0.3603037E+08  0.9118800E+02  0.7818608E-02  0.1180000E+00
       11   -1    0    0    0    0  0.00000000000E+00  0.00000000000E+00  0.39999999673E+01  0.40000000000E+01  0.51109989000E-03 0.  1.
     -623   -1    0    0    0    0  0.00000000000E+00  0.00000000000E+00  0.12525980253E-10  0.17130000000E+03  0.17130000000E+03 0. -1.
       11    1    1    2    0    0  0.24885046570E-02 -0.13678220707E-02  0.68004783029E+00  0.68005395102E+00  0.51109989000E-03 0.  1.
     -623    1    1    2    0    0 -0.62271094914E-04  0.48719697082E-04  0.67479240023E-04  0.17130000000E+03  0.17130000000E+03 0. -1.
      622    1    1    2    0    0 -0.24262335621E-02  0.13191023736E-02  0.33198846578E+01  0.33199460489E+01  0.20000000000E-01 0.  1.
</event>
<event>
 5   0  0.3603037E+08  0.9118800E+02  0.7818608E-02  0.1180000E+00
       11   -1    0    0    0    0  0.00000000000E+00  0.00000000000E+00  0.39999999673E+01  0.40000000000E+01  0.51109989000E-03 0.  1.
     -623   -1    0    0    0    0  0.00000000000E+00  0.00000000000E+00  0.12525980253E-10  0.17130000000E+03  0.17130000000E+03 0.  1.
       11    1    1    2    0    0 -0.50694544930E-03 -0.46696075101E-03  0.11780031421E-01  0.11811240732E-01  0.51109989000E-03 0. -1.
     -623    1    1    2    0    0  0.16065714694E-03 -0.19905989360E-03  0.81395921177E-04  0.17130000000E+03  0.17130000000E+03 0.  1.
      622    1    1    2    0    0  0.34628830236E-03  0.66602064461E-03  0.39881385400E+01  0.39881887591E+01  0.20000000000E-01 0.  1.
</event>
<event>
 5   0  0.3603037E+08  0.9118800E+02  0.7818608E-02  0.1180000E+00
       11   -1    0    0    0    0  0.00000000000E+00  0.00000000000E+00  0.39999999673E+01  0.40000000000E+01  0.51109989000E-03 0.  1.
     -623   -1    0    0    0    0  0.00000000000E+00  0.00000000000E+00  0.12525980253E-10  0.17130000000E+03  0.17130000000E+03 0. -1.
       11    1    1    2    0    0 -0.26592001795E-03 -0.56554848134E-03  0.42182135296E-01  0.42189860374E-01  0.51109989000E-03 0.  1.
     -623    1    1    2    0    0  0.10956891127E-03  0.29566945822E-04  0.58265184166E-04  0.17130000000E+03  0.17130000000E+03 0. -1.
      622    1    1    2    0    0  0.15635110668E-03  0.53598153552E-03  0.39577595669E+01  0.39578101396E+01  0.20000000000E-01 0.  1.
</event>
<event>
 5   0  0.3603037E+08  0.9118800E+02  0.7818608E-02  0.1180000E+00
       11   -1    0    0    0    0  0.00000000000E+00  0.00000000000E+00  0.39999999673E+01  0.40000000000E+01  0.51109989000E-03 0. -1.
     -623   -1    0    0    0    0  0.00000000000E+00  0.00000000000E+00  0.12525980253E-10  0.17130000000E+03  0.17130000000E+03 0.  1.
       11    1    1    2    0    0 -0.35127295664E-03 -0.49035609196E-03  0.18081222527E-01  0.18098499115E-01  0.51109989000E-03 0. -1.
     -623    1    1    2    0    0 -0.54813858383E-04  0.24222234679E-03  0.67500156097E-04  0.17130000000E+03  0.17130000000E+03 0.  1.
      622    1    1    2    0    0  0.40608681502E-03  0.24813374517E-03  0.39818512447E+01  0.39819015007E+01  0.20000000000E-01 0. -1.
</event>
<event>
 5   0  0.3603037E+08  0.9118800E+02  0.7818608E-02  0.1180000E+00
       11   -1    0    0    0    0  0.00000000000E+00  0.00000000000E+00  0.39999999673E+01  0.40000000000E+01  0.51109989000E-03 0. -1.
     -623   -1    0    0    0    0  0.00000000000E+00  0.00000000000E+00  0.12525980253E-10  0.17130000000E+03  0.17130000000E+03 0.  1.
       11    1    1    2    0    0 -0.28580443944E-02 -0.31756342921E-02  0.13958850860E+01  0.13958917177E+01  0.51109989000E-03 0. -1.
     -623    1    1    2    0    0 -0.12274734120E-01 -0.94183299844E-02  0.15852659050E-03  0.17130000070E+03  0.17130000000E+03 0.  1.
      622    1    1    2    0    0  0.15132778514E-01  0.12593964276E-01  0.26039563548E+01  0.26041075835E+01  0.20000000000E-01 0.  0.
</event>
<event>
 5   0  0.3603037E+08  0.9118800E+02  0.7818608E-02  0.1180000E+00
       11   -1    0    0    0    0  0.00000000000E+00  0.00000000000E+00  0.39999999673E+01  0.40000000000E+01  0.51109989000E-03 0. -1.
     -623   -1    0    0    0    0  0.00000000000E+00  0.00000000000E+00  0.12525980253E-10  0.17130000000E+03  0.17130000000E+03 0.  1.
       11    1    1    2    0    0  0.86575243825E-03  0.32746803544E-01  0.27159771268E+01  0.27161747214E+01  0.51109989000E-03 0. -1.
     -623    1    1    2    0    0 -0.32287714954E-02  0.33521895077E-02  0.86328038344E-03  0.17130000007E+03  0.17130000000E+03 0.  1.
      622    1    1    2    0    0  0.23630190572E-02 -0.36098993052E-01  0.12831595601E+01  0.12838252132E+01  0.20000000000E-01 0. -1.
</event>
<event>
 5   0  0.3603037E+08  0.9118800E+02  0.7818608E-02  0.1180000E+00
       11   -1    0    0    0    0  0.00000000000E+00  0.00000000000E+00  0.39999999673E+01  0.40000000000E+01  0.51109989000E-03 0. -1.
     -623   -1    0    0    0    0  0.00000000000E+00  0.00000000000E+00  0.12525980253E-10  0.17130000000E+03  0.17130000000E+03 0. -1.
       11    1    1    2    0    0  0.13022167694E-02  0.26490427055E-04  0.78952133893E-01  0.78964530885E-01  0.51109989000E-03 0. -1.
     -623    1    1    2    0    0 -0.18057834096E-02 -0.60696178798E-03  0.63457527255E-04  0.17130000001E+03  0.17130000000E+03 0. -1.
      622    1    1    2    0    0  0.50356664025E-03  0.58047136093E-03  0.39209843759E+01  0.39210354585E+01  0.20000000000E-01 0. -1.
</event>
<event>
 5   0  0.3603037E+08  0.9118800E+02  0.7818608E-02  0.1180000E+00
       11   -1    0    0    0    0  0.00000000000E+00  0.00000000000E+00  0.39999999673E+01  0.40000000000E+01  0.51109989000E-03 0.  1.
     -623   -1    0    0    0    0  0.00000000000E+00  0.00000000000E+00  0.12525980253E-10  0.17130000000E+03  0.17130000000E+03 0. -1.
       11    1    1    2    0    0  0.11925283080E-02 -0.72900531559E-03  0.31454825495E-01  0.31490011744E-01  0.51109989000E-03 0.  1.
     -623    1    1    2    0    0 -0.91257699326E-03 -0.49028781560E-03  0.85751016484E-04  0.17130000000E+03  0.17130000000E+03 0. -1.
      622    1    1    2    0    0 -0.27995131470E-03  0.12192931312E-02  0.39684593908E+01  0.39685099851E+01  0.20000000000E-01 0.  1.
</event>
<event>
 5   0  0.3603037E+08  0.9118800E+02  0.7818608E-02  0.1180000E+00
       11   -1    0    0    0    0  0.00000000000E+00  0.00000000000E+00  0.39999999673E+01  0.40000000000E+01  0.51109989000E-03 0. -1.
     -623   -1    0    0    0    0  0.00000000000E+00  0.00000000000E+00  0.12525980253E-10  0.17130000000E+03  0.17130000000E+03 0.  1.
       11    1    1    2    0    0  0.39749341032E-01 -0.20174159025E-01  0.16681771004E+00  0.17267141168E+00  0.51109989000E-03 0. -1.
     -623    1    1    2    0    0 -0.41369262723E-01  0.10410589451E-01  0.59241358924E-02  0.17130000541E+03  0.17130000000E+03 0.  1.
      622    1    1    2    0    0  0.16199216906E-02  0.97635695744E-02  0.38272581214E+01  0.38273231742E+01  0.20000000000E-01 0. -1.
</event>
<event>
 5   0  0.3603037E+08  0.9118800E+02  0.7818608E-02  0.1180000E+00
       11   -1    0    0    0    0  0.00000000000E+00  0.00000000000E+00  0.39999999673E+01  0.40000000000E+01  0.51109989000E-03 0.  1.
     -623   -1    0    0    0    0  0.00000000000E+00  0.00000000000E+00  0.12525980253E-10  0.17130000000E+03  0.17130000000E+03 0.  1.
       11    1    1    2    0    0  0.10896805148E-01 -0.15402822273E-01  0.18851120312E+01  0.18852065189E+01  0.51109989000E-03 0.  1.
     -623    1    1    2    0    0 -0.88111462768E-03  0.10071921478E-02  0.26175246674E-03  0.17130000001E+03  0.17130000000E+03 0.  1.
      622    1    1    2    0    0 -0.10015690520E-01  0.14395630125E-01  0.21146261836E+01  0.21147934757E+01  0.20000000000E-01 0.  0.
</event>
<event>
 5   0  0.3603037E+08  0.9118800E+02  0.7818608E-02  0.1180000E+00
       11   -1    0    0    0    0  0.00000000000E+00  0.00000000000E+00  0.39999999673E+01  0.40000000000E+01  0.51109989000E-03 0. -1.
     -623   -1    0    0    0    0  0.00000000000E+00  0.00000000000E+00  0.12525980253E-10  0.17130000000E+03  0.17130000000E+03 0.  1.
       11    1    1    2    0    0 -0.91231807514E-02 -0.39930018894E-02  0.13528159114E+00  0.13564861449E+00  0.51109989000E-03 0. -1.
     -623    1    1    2    0    0 -0.11472400481E-03 -0.31008177894E-03  0.43218488137E-03  0.17130000000E+03  0.17130000000E+03 0.  1.
      622    1    1    2    0    0  0.92379047562E-02  0.43030836684E-02  0.38642861913E+01  0.38643513846E+01  0.20000000000E-01 0. -1.
</event>
<event>
 5   0  0.3603037E+08  0.9118800E+02  0.7818608E-02  0.1180000E+00
       11   -1    0    0    0    0  0.00000000000E+00  0.00000000000E+00  0.39999999673E+01  0.40000000000E+01  0.51109989000E-03 0. -1.
     -623   -1    0    0    0    0  0.00000000000E+00  0.00000000000E+00  0.12525980253E-10  0.17130000000E+03  0.17130000000E+03 0. -1.
       11    1    1    2    0    0  0.23593869263E-02 -0.29880856691E-02  0.14774979949E+01  0.14775029886E+01  0.51109989000E-03 0. -1.
     -623    1    1    2    0    0 -0.82622904780E-04  0.25053603491E-04  0.87016757560E-04  0.17130000000E+03  0.17130000000E+03 0. -1.
      622    1    1    2    0    0 -0.22767640215E-02  0.29630320656E-02  0.25224149557E+01  0.25224970113E+01  0.20000000000E-01 0.  0.
</event>
<event>
 5   0  0.3603037E+08  0.9118800E+02  0.7818608E-02  0.1180000E+00
       11   -1    0    0    0    0  0.00000000000E+00  0.00000000000E+00  0.39999999673E+01  0.40000000000E+01  0.51109989000E-03 0.  1.
     -623   -1    0    0    0    0  0.00000000000E+00  0.00000000000E+00  0.12525980253E-10  0.17130000000E+03  0.17130000000E+03 0. -1.
       11    1    1    2    0    0  0.50779845724E-02  0.20994259419E-02  0.98039415803E-01  0.98194611821E-01  0.51109989000E-03 0.  1.
     -623    1    1    2    0    0  0.40110026758E-03 -0.55810082064E-03  0.21057502021E-03  0.17130000000E+03  0.17130000000E+03 0. -1.
      622    1    1    2    0    0 -0.54790848400E-02 -0.15413251212E-02  0.39017499765E+01  0.39018053867E+01  0.20000000000E-01 0.  1.
</event>
<event>
 5   0  0.3603037E+08  0.9118800E+02  0.7818608E-02  0.1180000E+00
       11   -1    0    0    0    0  0.00000000000E+00  0.00000000000E+00  0.39999999673E+01  0.40000000000E+01  0.51109989000E-03 0. -1.
     -623   -1    0    0    0    0  0.00000000000E+00  0.00000000000E+00  0.12525980253E-10  0.17130000000E+03  0.17130000000E+03 0.  1.
       11    1    1    2    0    0  0.91672209166E-02 -0.48642241336E-03  0.14297032629E+01  0.14297328267E+01  0.51109989000E-03 0. -1.
     -623    1    1    2    0    0 -0.10007832787E-02 -0.17168504413E-03  0.12040647912E-03  0.17130000000E+03  0.17130000000E+03 0.  1.
      622    1    1    2    0    0 -0.81664376379E-02  0.65810745749E-03  0.25701762980E+01  0.25702671703E+01  0.20000000000E-01 0.  0.
</event>
<event>
 5   0  0.3603037E+08  0.9118800E+02  0.7818608E-02  0.1180000E+00
       11   -1    0    0    0    0  0.00000000000E+00  0.00000000000E+00  0.39999999673E+01  0.40000000000E+01  0.51109989000E-03 0. -1.
     -623   -1    0    0    0    0  0.00000000000E+00  0.00000000000E+00  0.12525980253E-10  0.17130000000E+03  0.17130000000E+03 0.  1.
       11    1    1    2    0    0  0.58129759492E-05 -0.44948242271E-03  0.12722014301E-01  0.12740209502E-01  0.51109989000E-03 0. -1.
     -623    1    1    2    0    0  0.87175735441E-03  0.34702084333E-03  0.68423112426E-04  0.17130000000E+03  0.17130000000E+03 0.  1.
      622    1    1    2    0    0 -0.87757033036E-03  0.10246157938E-03  0.39872095299E+01  0.39872597879E+01  0.20000000000E-01 0. -1.
</event>
<event>
 5   0  0.3603037E+08  0.9118800E+02  0.7818608E-02  0.1180000E+00
       11   -1    0    0    0    0  0.00000000000E+00  0.00000000000E+00  0.39999999673E+01  0.40000000000E+01  0.51109989000E-03 0.  1.
     -623   -1    0    0    0    0  0.00000000000E+00  0.00000000000E+00  0.12525980253E-10  0.17130000000E+03  0.17130000000E+03 0. -1.
       11    1    1    2    0    0  0.61519326002E-02 -0.97382072046E-02  0.31981574963E+01  0.31981782801E+01  0.51109989000E-03 0.  1.
     -623    1    1    2    0    0  0.84308195237E-03  0.37301985477E-03  0.35545995681E-03  0.17130000000E+03  0.17130000000E+03 0. -1.
      622    1    1    2    0    0 -0.69950145526E-02  0.93651873498E-02  0.80148701111E+00  0.80182171705E+00  0.20000000000E-01 0.  1.
</event>
<event>
 5   0  0.3603037E+08  0.9118800E+02  0.7818608E-02  0.1180000E+00
       11   -1    0    0    0    0  0.00000000000E+00  0.00000000000E+00  0.39999999673E+01  0.40000000000E+01  0.51109989000E-03 0. -1.
     -623   -1    0    0    0    0  0.00000000000E+00  0.00000000000E+00  0.12525980253E-10  0.17130000000E+03  0.17130000000E+03 0.  1.
       11    1    1    2    0    0 -0.15337474130E-01  0.44992690231E-02  0.19550060962E+00  0.19615359063E+00  0.51109989000E-03 0. -1.
     -623    1    1    2    0    0 -0.33611072825E-02 -0.15707507096E-01  0.76875452972E-03  0.17130000075E+03  0.17130000000E+03 0.  1.
      622    1    1    2    0    0  0.18698581413E-01  0.11208238073E-01  0.38037306032E+01  0.38038456545E+01  0.20000000000E-01 0. -1.
</event>
<event>
 5   0  0.3603037E+08  0.9118800E+02  0.7818608E-02  0.1180000E+00
       11   -1    0    0    0    0  0.00000000000E+00  0.00000000000E+00  0.39999999673E+01  0.40000000000E+01  0.51109989000E-03 0.  1.
     -623   -1    0    0    0    0  0.00000000000E+00  0.00000000000E+00  0.12525980253E-10  0.17130000000E+03  0.17130000000E+03 0. -1.
       11    1    1    2    0    0 -0.10012746732E-02 -0.15823523034E-02  0.65576360428E-01  0.65605081048E-01  0.51109989000E-03 0.  1.
     -623    1    1    2    0    0  0.43058466100E-02  0.99758240107E-03  0.81010349204E-04  0.17130000006E+03  0.17130000000E+03 0. -1.
      622    1    1    2    0    0 -0.33045719368E-02  0.58476990236E-03  0.39343425966E+01  0.39343948619E+01  0.20000000000E-01 0.  1.
</event>
<event>
 5   0  0.3603037E+08  0.9118800E+02  0.7818608E-02  0.1180000E+00
       11   -1    0    0    0    0  0.00000000000E+00  0.00000000000E+00  0.39999999673E+01  0.40000000000E+01  0.51109989000E-03 0.  1.
     -623   -1    0    0    0    0  0.00000000000E+00  0.00000000000E+00  0.12525980253E-10  0.17130000000E+03  0.17130000000E+03 0. -1.
       11    1    1    2    0    0  0.94687959225E-02  0.77373962406E-02  0.50477609417E+00  0.50492444174E+00  0.51109989000E-03 0.  1.
     -623    1    1    2    0    0  0.27719993427E-03  0.60843497045E-03  0.22909344655E-03  0.17130000000E+03  0.17130000000E+03 0. -1.
      622    1    1    2    0    0 -0.97459958568E-02 -0.83458312111E-02  0.34949947797E+01  0.34950755568E+01  0.20000000000E-01 0.  1.
</event>
<event>
 5   0  0.3603037E+08  0.9118800E+02  0.7818608E-02  0.1180000E+00
       11   -1    0    0    0    0  0.00000000000E+00  0.00000000000E+00  0.39999999673E+01  0.40000000000E+01  0.51109989000E-03 0. -1.
     -623   -1    0    0    0    0  0.00000000000E+00  0.00000000000E+00  0.12525980253E-10  0.17130000000E+03  0.17130000000E+03 0. -1.
       11    1    1    2    0    0  0.10389269239E-02 -0.29575691238E-02  0.14419188462E+01  0.14419223443E+01  0.51109989000E-03 0. -1.
     -623    1    1    2    0    0  0.10749749838E-03  0.27812318050E-03  0.83310816455E-04  0.17130000000E+03  0.17130000000E+03 0. -1.
      622    1    1    2    0    0 -0.11464244223E-02  0.26794459433E-02  0.25579978103E+01  0.25580776555E+01  0.20000000000E-01 0. -1.
</event>
<event>
 5   0  0.3603037E+08  0.9118800E+02  0.7818608E-02  0.1180000E+00
       11   -1    0    0    0    0  0.00000000000E+00  0.00000000000E+00  0.39999999673E+01  0.40000000000E+01  0.51109989000E-03 0. -1.
     -623   -1    0    0    0    0  0.00000000000E+00  0.00000000000E+00  0.12525980253E-10  0.17130000000E+03  0.17130000000E+03 0.  1.
       11    1    1    2    0    0  0.40960575001E-02  0.71229132089E-02  0.43999918738E+00  0.44007619760E+00  0.51109989000E-03 0. -1.
     -623    1    1    2    0    0  0.27061267016E-04 -0.10777621797E-02  0.14068295974E-03  0.17130000000E+03  0.17130000000E+03 0.  1.
      622    1    1    2    0    0 -0.41231187671E-02 -0.60451510292E-02  0.35598600970E+01  0.35599237990E+01  0.20000000000E-01 0. -1.
</event>
<event>
 5   0  0.3603037E+08  0.9118800E+02  0.7818608E-02  0.1180000E+00
       11   -1    0    0    0    0  0.00000000000E+00  0.00000000000E+00  0.39999999673E+01  0.40000000000E+01  0.51109989000E-03 0. -1.
     -623   -1    0    0    0    0  0.00000000000E+00  0.00000000000E+00  0.12525980253E-10  0.17130000000E+03  0.17130000000E+03 0.  1.
       11    1    1    2    0    0 -0.94790488924E-02  0.32304292529E-02  0.34645034855E+00  0.34659543170E+00  0.51109989000E-03 0. -1.
     -623    1    1    2    0    0  0.28713787893E-02 -0.43438732242E-02  0.20601883762E-03  0.17130000008E+03  0.17130000000E+03 0.  1.
      622    1    1    2    0    0  0.66076701031E-02  0.11134439713E-02  0.36533436000E+01  0.36534044890E+01  0.20000000000E-01 0. -1.
</event>
<event>
 5   0  0.3603037E+08  0.9118800E+02  0.7818608E-02  0.1180000E+00
       11   -1    0    0    0    0  0.00000000000E+00  0.00000000000E+00  0.39999999673E+01  0.40000000000E+01  0.51109989000E-03 0.  1.
     -623   -1    0    0    0    0  0.00000000000E+00  0.00000000000E+00  0.12525980253E-10  0.17130000000E+03  0.17130000000E+03 0. -1.
       11    1    1    2    0    0  0.74511812813E-03  0.14630915986E-02  0.56724538092E-02  0.59273764989E-02  0.51109989000E-03 0.  1.
     -623    1    1    2    0    0 -0.79588631945E-03  0.50736611553E-03  0.30545382540E-03  0.17130000000E+03  0.17130000000E+03 0. -1.
      622    1    1    2    0    0  0.50768191327E-04 -0.19704577141E-02  0.39940220597E+01  0.39940726206E+01  0.20000000000E-01 0.  1.
</event>
<event>
 5   0  0.3603037E+08  0.9118800E+02  0.7818608E-02  0.1180000E+00
       11   -1    0    0    0    0  0.00000000000E+00  0.00000000000E+00  0.39999999673E+01  0.40000000000E+01  0.51109989000E-03 0.  1.
     -623   -1    0    0    0    0  0.00000000000E+00  0.00000000000E+00  0.12525980253E-10  0.17130000000E+03  0.17130000000E+03 0.  1.
       11    1    1    2    0    0 -0.71851228275E-03  0.17420040940E-03  0.12449968326E+01  0.12449971570E+01  0.51109989000E-03 0.  1.
     -623    1    1    2    0    0 -0.12104781070E-02 -0.14564995221E-02  0.73872199454E-04  0.17130000001E+03  0.17130000000E+03 0.  1.
      622    1    1    2    0    0  0.19289903898E-02  0.12822991127E-02  0.27549292626E+01  0.27550028325E+01  0.20000000000E-01 0.  1.
</event>
<event>
 5   0  0.3603037E+08  0.9118800E+02  0.7818608E-02  0.1180000E+00
       11   -1    0    0    0    0  0.00000000000E+00  0.00000000000E+00  0.39999999673E+01  0.40000000000E+01  0.51109989000E-03 0. -1.
     -623   -1    0    0    0    0  0.00000000000E+00  0.00000000000E+00  0.12525980253E-10  0.17130000000E+03  0.17130000000E+03 0.  1.
       11    1    1    2    0    0  0.10364525777E-02 -0.33061147247E-04  0.48610502687E-01  0.48624248268E-01  0.51109989000E-03 0. -1.
     -623    1    1    2    0    0 -0.20583892496E-03  0.78840303065E-03  0.64489996367E-04  0.17130000000E+03  0.17130000000E+03 0.  1.
      622    1    1    2    0    0 -0.83061365274E-03 -0.75534188341E-03  0.39513249747E+01  0.39513757498E+01  0.20000000000E-01 0. -1.
</event>
<event>
 5   0  0.3603037E+08  0.9118800E+02  0.7818608E-02  0.1180000E+00
       11   -1    0    0    0    0  0.00000000000E+00  0.00000000000E+00  0.39999999673E+01  0.40000000000E+01  0.51109989000E-03 0.  1.
     -623   -1    0    0    0    0  0.00000000000E+00  0.00000000000E+00  0.12525980253E-10  0.17130000000E+03  0.17130000000E+03 0. -1.
       11    1    1    2    0    0  0.75118034365E-02 -0.31229625021E-01  0.47179314610E+00  0.47288555761E+00  0.51109989000E-03 0.  1.
     -623    1    1    2    0    0  0.45297953379E-02  0.32059157257E-02  0.12810645408E-02  0.17130000009E+03  0.17130000000E+03 0. -1.
      622    1    1    2    0    0 -0.12041598774E-01  0.28023709295E-01  0.35269257567E+01  0.35271143477E+01  0.20000000000E-01 0.  1.
</event>
<event>
 5   0  0.3603037E+08  0.9118800E+02  0.7818608E-02  0.1180000E+00
       11   -1    0    0    0    0  0.00000000000E+00  0.00000000000E+00  0.39999999673E+01  0.40000000000E+01  0.51109989000E-03 0. -1.
     -623   -1    0    0    0    0  0.00000000000E+00  0.00000000000E+00  0.12525980253E-10  0.17130000000E+03  0.17130000000E+03 0.  1.
       11    1    1    2    0    0 -0.14540147487E-01 -0.14386363566E-01  0.24817359808E+01  0.24818203245E+01  0.51109989000E-03 0. -1.
     -623    1    1    2    0    0  0.86107636106E-02  0.52496450057E-02  0.25542663192E-03  0.17130000030E+03  0.17130000000E+03 0.  1.
      622    1    1    2    0    0  0.59293838769E-02  0.91367185606E-02  0.15180085599E+01  0.15181793785E+01  0.20000000000E-01 0.  0.
</event>
<event>
 5   0  0.3603037E+08  0.9118800E+02  0.7818608E-02  0.1180000E+00
       11   -1    0    0    0    0  0.00000000000E+00  0.00000000000E+00  0.39999999673E+01  0.40000000000E+01  0.51109989000E-03 0.  1.
     -623   -1    0    0    0    0  0.00000000000E+00  0.00000000000E+00  0.12525980253E-10  0.17130000000E+03  0.17130000000E+03 0.  1.
       11    1    1    2    0    0  0.25855732599E-02  0.24770514241E-02  0.13237667132E+00  0.13242607487E+00  0.51109989000E-03 0.  1.
     -623    1    1    2    0    0 -0.83536292398E-02 -0.74769748604E-02  0.10898338010E-03  0.17130000037E+03  0.17130000000E+03 0.  1.
      622    1    1    2    0    0  0.57680559798E-02  0.49999234363E-02  0.38675143127E+01  0.38675735582E+01  0.20000000000E-01 0.  1.
</event>
<event>
 5   0  0.3603037E+08  0.9118800E+02  0.7818608E-02  0.1180000E+00
       11   -1    0    0    0    0  0.00000000000E+00  0.00000000000E+00  0.39999999673E+01  0.40000000000E+01  0.51109989000E-03 0. -1.
     -623   -1    0    0    0    0  0.00000000000E+00  0.00000000000E+00  0.12525980253E-10  0.17130000000E+03  0.17130000000E+03 0.  1.
       11    1    1    2    0    0  0.10862053048E-02 -0.45690810354E-03  0.13453143984E+00  0.13453757146E+00  0.51109989000E-03 0. -1.
     -623    1    1    2    0    0  0.67094549677E-03  0.37509349468E-03  0.58241561987E-04  0.17130000000E+03  0.17130000000E+03 0.  1.
      622    1    1    2    0    0 -0.17571508016E-02  0.81814608860E-04  0.38654102860E+01  0.38654624268E+01  0.20000000000E-01 0. -1.
</event>
<event>
 5   0  0.3603037E+08  0.9118800E+02  0.7818608E-02  0.1180000E+00
       11   -1    0    0    0    0  0.00000000000E+00  0.00000000000E+00  0.39999999673E+01  0.40000000000E+01  0.51109989000E-03 0.  1.
     -623   -1    0    0    0    0  0.00000000000E+00  0.00000000000E+00  0.12525980253E-10  0.17130000000E+03  0.17130000000E+03 0.  1.
       11    1    1    2    0    0 -0.31309218827E-03 -0.26803700406E-02  0.71402946127E+00  0.71403474368E+00  0.51109989000E-03 0.  1.
     -623    1    1    2    0    0  0.68504920123E-04 -0.87984250761E-04  0.67290570863E-04  0.17130000000E+03  0.17130000000E+03 0.  1.
      622    1    1    2    0    0  0.24458726815E-03  0.27683542913E-02  0.32859032155E+01  0.32859652563E+01  0.20000000000E-01 0.  0.
</event>
<event>
 5   0  0.3603037E+08  0.9118800E+02  0.7818608E-02  0.1180000E+00
       11   -1    0    0    0    0  0.00000000000E+00  0.00000000000E+00  0.39999999673E+01  0.40000000000E+01  0.51109989000E-03 0.  1.
     -623   -1    0    0    0    0  0.00000000000E+00  0.00000000000E+00  0.12525980253E-10  0.17130000000E+03  0.17130000000E+03 0. -1.
       11    1    1    2    0    0 -0.42919363842E-03  0.19463375579E-02  0.22950971125E-01  0.23043019187E-01  0.51109989000E-03 0.  1.
     -623    1    1    2    0    0 -0.19237872701E-03 -0.20729688702E-04  0.14282037661E-03  0.17130000000E+03  0.17130000000E+03 0. -1.
      622    1    1    2    0    0  0.62157236543E-03 -0.19256078692E-02  0.39769061759E+01  0.39769569806E+01  0.20000000000E-01 0.  1.
</event>
<event>
 5   0  0.3603037E+08  0.9118800E+02  0.7818608E-02  0.1180000E+00
       11   -1    0    0    0    0  0.00000000000E+00  0.00000000000E+00  0.39999999673E+01  0.40000000000E+01  0.51109989000E-03 0.  1.
     -623   -1    0    0    0    0  0.00000000000E+00  0.00000000000E+00  0.12525980253E-10  0.17130000000E+03  0.17130000000E+03 0.  1.
       11    1    1    2    0    0 -0.28366138969E-03 -0.10016871307E-03  0.14569226107E+00  0.14569346813E+00  0.51109989000E-03 0.  1.
     -623    1    1    2    0    0 -0.19073129061E-03  0.15688508040E-03  0.53094568407E-04  0.17130000000E+03  0.17130000000E+03 0.  1.
      622    1    1    2    0    0  0.47439268029E-03 -0.56716367333E-04  0.38542546117E+01  0.38543065317E+01  0.20000000000E-01 0.  1.
</event>
<event>
 5   0  0.3603037E+08  0.9118800E+02  0.7818608E-02  0.1180000E+00
       11   -1    0    0    0    0  0.00000000000E+00  0.00000000000E+00  0.39999999673E+01  0.40000000000E+01  0.51109989000E-03 0.  1.
     -623   -1    0    0    0    0  0.00000000000E+00  0.00000000000E+00  0.12525980253E-10  0.17130000000E+03  0.17130000000E+03 0. -1.
       11    1    1    2    0    0 -0.13184962785E-01  0.13396604897E-02  0.23959442353E+01  0.23959809427E+01  0.51109989000E-03 0.  1.
     -623    1    1    2    0    0  0.13905600546E-02  0.18403540529E-02  0.20790090558E-03  0.17130000002E+03  0.17130000000E+03 0. -1.
      622    1    1    2    0    0  0.11794402730E-01 -0.31800145426E-02  0.16038478311E+01  0.16040190416E+01  0.20000000000E-01 0.  0.
</event>
<event>
 5   0  0.3603037E+08  0.9118800E+02  0.7818608E-02  0.1180000E+00
       11   -1    0    0    0    0  0.00000000000E+00  0.00000000000E+00  0.39999999673E+01  0.40000000000E+01  0.51109989000E-03 0. -1.
     -623   -1    0    0    0    0  0.00000000000E+00  0.00000000000E+00  0.12525980253E-10  0.17130000000E+03  0.17130000000E+03 0.  1.
       11    1    1    2    0    0 -0.11541369972E-01  0.11975332201E-01  0.71998605652E+00  0.72017830751E+00  0.51109989000E-03 0. -1.
     -623    1    1    2    0    0  0.20867105606E-01 -0.17094894415E-01  0.27257631733E-03  0.17130000212E+03  0.17130000000E+03 0.  1.
      622    1    1    2    0    0 -0.93257356345E-02  0.51195622142E-02  0.32797413345E+01  0.32798195683E+01  0.20000000000E-01 0. -1.
</event>
<event>
 5   0  0.3603037E+08  0.9118800E+02  0.7818608E-02  0.1180000E+00
       11   -1    0    0    0    0  0.00000000000E+00  0.00000000000E+00  0.39999999673E+01  0.40000000000E+01  0.51109989000E-03 0.  1.
     -623   -1    0    0    0    0  0.00000000000E+00  0.00000000000E+00  0.12525980253E-10  0.17130000000E+03  0.17130000000E+03 0. -1.
       11    1    1    2    0    0 -0.28459808801E-03 -0.57963133645E-03  0.16789411250E-01  0.16809596059E-01  0.51109989000E-03 0.  1.
     -623    1    1    2    0    0  0.80903551173E-03  0.10364647590E-02  0.70429275491E-04  0.17130000001E+03  0.17130000000E+03 0. -1.
      622    1    1    2    0    0 -0.52443742372E-03 -0.45683342258E-03  0.39831401268E+01  0.39831903989E+01  0.20000000000E-01 0.  1.
</event>
<event>
 5   0  0.3603037E+08  0.9118800E+02  0.7818608E-02  0.1180000E+00
       11   -1    0    0    0    0  0.00000000000E+00  0.00000000000E+00  0.39999999673E+01  0.40000000000E+01  0.51109989000E-03 0. -1.
     -623   -1    0    0    0    0  0.00000000000E+00  0.00000000000E+00  0.12525980253E-10  0.17130000000E+03  0.17130000000E+03 0. -1.
       11    1    1    2    0    0 -0.65904168426E-03 -0.16295932013E-03  0.83493134858E-01  0.83497459129E-01  0.51109989000E-03 0. -1.
     -623    1    1    2    0    0  0.25188745902E-02  0.87648082719E-03  0.55885297138E-04  0.17130000002E+03  0.17130000000E+03 0. -1.
      622    1    1    2    0    0 -0.18598329059E-02 -0.71352150706E-03  0.39164509472E+01  0.39165025201E+01  0.20000000000E-01 0. -1.
</event>
<event>
 5   0  0.3603037E+08  0.9118800E+02  0.7818608E-02  0.1180000E+00
       11   -1    0    0    0    0  0.00000000000E+00  0.00000000000E+00  0.39999999673E+01  0.40000000000E+01  0.51109989000E-03 0.  1.
     -623   -1    0    0    0    0  0.00000000000E+00  0.00000000000E+00  0.12525980253E-10  0.17130000000E+03  0.17130000000E+03 0.  1.
       11    1    1    2    0    0  0.10437477586E-02 -0.15183731849E-02  0.26601675377E+00  0.26602362559E+00  0.51109989000E-03 0.  1.
     -623    1    1    2    0    0  0.46892561198E-04  0.98828972296E-04  0.60830937582E-04  0.17130000000E+03  0.17130000000E+03 0.  1.
      622    1    1    2    0    0 -0.10906403198E-02  0.14195442126E-02  0.37339223827E+01  0.37339763744E+01  0.20000000000E-01 0.  1.
</event>
<event>
 5   0  0.3603037E+08  0.9118800E+02  0.7818608E-02  0.1180000E+00
       11   -1    0    0    0    0  0.00000000000E+00  0.00000000000E+00  0.39999999673E+01  0.40000000000E+01  0.51109989000E-03 0.  1.
     -623   -1    0    0    0    0  0.00000000000E+00  0.00000000000E+00  0.12525980253E-10  0.17130000000E+03  0.17130000000E+03 0. -1.
       11    1    1    2    0    0  0.19122899640E-01 -0.32743308770E-02  0.10209349835E+01  0.10211194388E+01  0.51109989000E-03 0.  1.
     -623    1    1    2    0    0 -0.33141645041E-02  0.79388210427E-02  0.29738033587E-03  0.17130000022E+03  0.17130000000E+03 0. -1.
      622    1    1    2    0    0 -0.15808735136E-01 -0.46644901657E-02  0.29787676036E+01  0.29788803450E+01  0.20000000000E-01 0.  1.
</event>
<event>
 5   0  0.3603037E+08  0.9118800E+02  0.7818608E-02  0.1180000E+00
       11   -1    0    0    0    0  0.00000000000E+00  0.00000000000E+00  0.39999999673E+01  0.40000000000E+01  0.51109989000E-03 0. -1.
     -623   -1    0    0    0    0  0.00000000000E+00  0.00000000000E+00  0.12525980253E-10  0.17130000000E+03  0.17130000000E+03 0. -1.
       11    1    1    2    0    0  0.10165534096E-01  0.64033201861E-02  0.14403467405E+01  0.14403969365E+01  0.51109989000E-03 0. -1.
     -623    1    1    2    0    0  0.30677521541E-02 -0.24730724621E-02  0.16557431335E-03  0.17130000005E+03  0.17130000000E+03 0. -1.
      622    1    1    2    0    0 -0.13233286250E-01 -0.39302477240E-02  0.25594876525E+01  0.25596030181E+01  0.20000000000E-01 0. -1.
</event>
<event>
 5   0  0.3603037E+08  0.9118800E+02  0.7818608E-02  0.1180000E+00
       11   -1    0    0    0    0  0.00000000000E+00  0.00000000000E+00  0.39999999673E+01  0.40000000000E+01  0.51109989000E-03 0. -1.
     -623   -1    0    0    0    0  0.00000000000E+00  0.00000000000E+00  0.12525980253E-10  0.17130000000E+03  0.17130000000E+03 0.  1.
       11    1    1    2    0    0 -0.15437490224E-01 -0.60061521295E-02  0.17066688708E+01  0.17067493330E+01  0.51109989000E-03 0. -1.
     -623    1    1    2    0    0  0.12720921848E-01  0.12631248286E-02  0.17463494552E-03  0.17130000048E+03  0.17130000000E+03 0.  1.
      622    1    1    2    0    0  0.27165683763E-02  0.47430273009E-02  0.22931564616E+01  0.22932501899E+01  0.20000000000E-01 0. -1.
</event>
<event>
 5   0  0.3603037E+08  0.9118800E+02  0.7818608E-02  0.1180000E+00
       11   -1    0    0    0    0  0.00000000000E+00  0.00000000000E+00  0.39999999673E+01  0.40000000000E+01  0.51109989000E-03 0.  1.
     -623   -1    0    0    0    0  0.00000000000E+00  0.00000000000E+00  0.12525980253E-10  0.17130000000E+03  0.17130000000E+03 0. -1.
       11    1    1    2    0    0  0.35946177127E-02  0.17741780363E-02  0.14507304121E+01  0.14507360404E+01  0.51109989000E-03 0.  1.
     -623    1    1    2    0    0 -0.15738766275E-03 -0.31242459395E-03  0.86787643767E-04  0.17130000000E+03  0.17130000000E+03 0. -1.
      622    1    1    2    0    0 -0.34372300500E-02 -0.14617534423E-02  0.25491827676E+01  0.25492639592E+01  0.20000000000E-01 0.  1.
</event>
<event>
 5   0  0.3603037E+08  0.9118800E+02  0.7818608E-02  0.1180000E+00
       11   -1    0    0    0    0  0.00000000000E+00  0.00000000000E+00  0.39999999673E+01  0.40000000000E+01  0.51109989000E-03 0. -1.
     -623   -1    0    0    0    0  0.00000000000E+00  0.00000000000E+00  0.12525980253E-10  0.17130000000E+03  0.17130000000E+03 0. -1.
       11    1    1    2    0    0  0.14154131983E-01 -0.11512386447E-01  0.81103324967E+00  0.81123860102E+00  0.51109989000E-03 0. -1.
     -623    1    1    2    0    0 -0.62758658238E-03 -0.10451226088E-02  0.32146122549E-03  0.17130000000E+03  0.17130000000E+03 0. -1.
      622    1    1    2    0    0 -0.13526545401E-01  0.12557509056E-01  0.31886452565E+01  0.31887613943E+01  0.20000000000E-01 0. -1.
</event>
<event>
 5   0  0.3603037E+08  0.9118800E+02  0.7818608E-02  0.1180000E+00
       11   -1    0    0    0    0  0.00000000000E+00  0.00000000000E+00  0.39999999673E+01  0.40000000000E+01  0.51109989000E-03 0.  1.
     -623   -1    0    0    0    0  0.00000000000E+00  0.00000000000E+00  0.12525980253E-10  0.17130000000E+03  0.17130000000E+03 0. -1.
       11    1    1    2    0    0  0.42804728967E-02  0.28360770481E-02  0.92231873875E+00  0.92233317345E+00  0.51109989000E-03 0.  1.
     -623    1    1    2    0    0 -0.75265026154E-03 -0.11550766904E-02  0.81873646770E-04  0.17130000001E+03  0.17130000000E+03 0. -1.
      622    1    1    2    0    0 -0.35278226352E-02 -0.16810003577E-02  0.30775993550E+01  0.30776668210E+01  0.20000000000E-01 0.  1.
</event>
<event>
 5   0  0.3603037E+08  0.9118800E+02  0.7818608E-02  0.1180000E+00
       11   -1    0    0    0    0  0.00000000000E+00  0.00000000000E+00  0.39999999673E+01  0.40000000000E+01  0.51109989000E-03 0. -1.
     -623   -1    0    0    0    0  0.00000000000E+00  0.00000000000E+00  0.12525980253E-10  0.17130000000E+03  0.17130000000E+03 0. -1.
       11    1    1    2    0    0 -0.57583598975E-03 -0.15461192492E-02  0.65069378880E+00  0.65069608119E+00  0.51109989000E-03 0. -1.
     -623    1    1    2    0    0 -0.57536256060E-03  0.65150128102E-04  0.62500445055E-04  0.17130000000E+03  0.17130000000E+03 0. -1.
      622    1    1    2    0    0  0.11511985503E-02  0.14809691211E-02  0.33492436781E+01  0.33493039178E+01  0.20000000000E-01 0. -1.
</event>
<event>
 5   0  0.3603037E+08  0.9118800E+02  0.7818608E-02  0.1180000E+00
       11   -1    0    0    0    0  0.00000000000E+00  0.00000000000E+00  0.39999999673E+01  0.40000000000E+01  0.51109989000E-03 0.  1.
     -623   -1    0    0    0    0  0.00000000000E+00  0.00000000000E+00  0.12525980253E-10  0.17130000000E+03  0.17130000000E+03 0.  1.
       11    1    1    2    0    0 -0.90523015719E-02 -0.15821185710E-01  0.53109006845E+00  0.53140302607E+00  0.51109989000E-03 0.  1.
     -623    1    1    2    0    0  0.58211487205E-02 -0.77311670622E-02  0.45232912911E-03  0.17130000027E+03  0.17130000000E+03 0.  1.
      622    1    1    2    0    0  0.32311528515E-02  0.23552352772E-01  0.34684575698E+01  0.34685967000E+01  0.20000000000E-01 0.  1.
</event>
<event>
 5   0  0.3603037E+08  0.9118800E+02  0.7818608E-02  0.1180000E+00
       11   -1    0    0    0    0  0.00000000000E+00  0.00000000000E+00  0.39999999673E+01  0.40000000000E+01  0.51109989000E-03 0. -1.
     -623   -1    0    0    0    0  0.00000000000E+00  0.00000000000E+00  0.12525980253E-10  0.17130000000E+03  0.17130000000E+03 0.  1.
       11    1    1    2    0    0  0.76350952087E-02  0.98182949241E-02  0.56043740213E+00  0.56057562961E+00  0.51109989000E-03 0. -1.
     -623    1    1    2    0    0  0.91179728144E-03 -0.50675702139E-02  0.21032278245E-03  0.17130000008E+03  0.17130000000E+03 0.  1.
      622    1    1    2    0    0 -0.85468924902E-02 -0.47507247102E-02  0.34393522425E+01  0.34394242929E+01  0.20000000000E-01 0. -1.
</event>
<event>
 5   0  0.3603037E+08  0.9118800E+02  0.7818608E-02  0.1180000E+00
       11   -1    0    0    0    0  0.00000000000E+00  0.00000000000E+00  0.39999999673E+01  0.40000000000E+01  0.51109989000E-03 0.  1.
     -623   -1    0    0    0    0  0.00000000000E+00  0.00000000000E+00  0.12525980253E-10  0.17130000000E+03  0.17130000000E+03 0.  1.
       11    1    1    2    0    0  0.69796929295E-03 -0.10607524868E-02  0.86663982422E-01  0.86674791184E-01  0.51109989000E-03 0.  1.
     -623    1    1    2    0    0 -0.58909209907E-03  0.25125000416E-02  0.62174136802E-04  0.17130000002E+03  0.17130000000E+03 0.  1.
      622    1    1    2    0    0 -0.10887719387E-03 -0.14517475547E-02  0.39132738108E+01  0.39133251894E+01  0.20000000000E-01 0.  1.
</event>
<event>
 5   0  0.3603037E+08  0.9118800E+02  0.7818608E-02  0.1180000E+00
       11   -1    0    0    0    0  0.00000000000E+00  0.00000000000E+00  0.39999999673E+01  0.40000000000E+01  0.51109989000E-03 0. -1.
     -623   -1    0    0    0    0  0.00000000000E+00  0.00000000000E+00  0.12525980253E-10  0.17130000000E+03  0.17130000000E+03 0. -1.
       11    1    1    2    0    0 -0.57673701937E-02 -0.90679136311E-02  0.26185195258E+00  0.26207288282E+00  0.51109989000E-03 0. -1.
     -623    1    1    2    0    0  0.45810000169E-02  0.47578211503E-02  0.27720435586E-03  0.17130000013E+03  0.17130000000E+03 0. -1.
      622    1    1    2    0    0  0.11863701768E-02  0.43100924808E-02  0.37378708104E+01  0.37379269896E+01  0.20000000000E-01 0. -1.
</event>
<event>
 5   0  0.3603037E+08  0.9118800E+02  0.7818608E-02  0.1180000E+00
       11   -1    0    0    0    0  0.00000000000E+00  0.00000000000E+00  0.39999999673E+01  0.40000000000E+01  0.51109989000E-03 0.  1.
     -623   -1    0    0    0    0  0.00000000000E+00  0.00000000000E+00  0.12525980253E-10  0.17130000000E+03  0.17130000000E+03 0. -1.
       11    1    1    2    0    0  0.34155974573E-02 -0.87589064820E-03  0.66591516146E+00  0.66592469317E+00  0.51109989000E-03 0.  1.
     -623    1    1    2    0    0 -0.51428891089E-03 -0.16528727138E-02  0.71716401017E-04  0.17130000001E+03  0.17130000000E+03 0. -1.
      622    1    1    2    0    0 -0.29013085464E-02  0.25287633620E-02  0.33340130895E+01  0.33340752981E+01  0.20000000000E-01 0.  1.
</event>
<event>
 5   0  0.3603037E+08  0.9118800E+02  0.7818608E-02  0.1180000E+00
       11   -1    0    0    0    0  0.00000000000E+00  0.00000000000E+00  0.39999999673E+01  0.40000000000E+01  0.51109989000E-03 0. -1.
     -623   -1    0    0    0    0  0.00000000000E+00  0.00000000000E+00  0.12525980253E-10  0.17130000000E+03  0.17130000000E+03 0.  1.
       11    1    1    2    0    0 -0.86847022093E-02 -0.33080483642E-02  0.77817715810E+00  0.77823281725E+00  0.51109989000E-03 0. -1.
     -623    1    1    2    0    0  0.99947326323E-02  0.50306232147E-02  0.11879719372E-03  0.17130000037E+03  0.17130000000E+03 0.  1.
      622    1    1    2    0    0 -0.13100304230E-02 -0.17225748505E-02  0.32217040121E+01  0.32217668173E+01  0.20000000000E-01 0.  0.
</event>
<event>
 5   0  0.3603037E+08  0.9118800E+02  0.7818608E-02  0.1180000E+00
       11   -1    0    0    0    0  0.00000000000E+00  0.00000000000E+00  0.39999999673E+01  0.40000000000E+01  0.51109989000E-03 0. -1.
     -623   -1    0    0    0    0  0.00000000000E+00  0.00000000000E+00  0.12525980253E-10  0.17130000000E+03  0.17130000000E+03 0.  1.
       11    1    1    2    0    0 -0.36441328976E-02 -0.27833474801E-02  0.79235411826E-01  0.79369631708E-01  0.51109989000E-03 0. -1.
     -623    1    1    2    0    0  0.56939459406E-02 -0.10927329806E-02  0.18774990112E-03  0.17130000010E+03  0.17130000000E+03 0.  1.
      622    1    1    2    0    0 -0.20498130430E-02  0.38760804607E-02  0.39205768056E+01  0.39206302701E+01  0.20000000000E-01 0. -1.
</event>
<event>
 5   0  0.3603037E+08  0.9118800E+02  0.7818608E-02  0.1180000E+00
       11   -1    0    0    0    0  0.00000000000E+00  0.00000000000E+00  0.39999999673E+01  0.40000000000E+01  0.51109989000E-03 0. -1.
     -623   -1    0    0    0    0  0.00000000000E+00  0.00000000000E+00  0.12525980253E-10  0.17130000000E+03  0.17130000000E+03 0. -1.
       11    1    1    2    0    0  0.72715524333E-03 -0.32019848908E-03  0.28764035780E-01  0.28779545833E-01  0.51109989000E-03 0. -1.
     -623    1    1    2    0    0 -0.43545411288E-03  0.88450061509E-03  0.65893739707E-04  0.17130000000E+03  0.17130000000E+03 0. -1.
      622    1    1    2    0    0 -0.29170113045E-03 -0.56430212601E-03  0.39711700378E+01  0.39712204513E+01  0.20000000000E-01 0. -1.
</event>
<event>
 5   0  0.3603037E+08  0.9118800E+02  0.7818608E-02  0.1180000E+00
       11   -1    0    0    0    0  0.00000000000E+00  0.00000000000E+00  0.39999999673E+01  0.40000000000E+01  0.51109989000E-03 0. -1.
     -623   -1    0    0    0    0  0.00000000000E+00  0.00000000000E+00  0.12525980253E-10  0.17130000000E+03  0.17130000000E+03 0. -1.
       11    1    1    2    0    0 -0.12033245095E-01 -0.77757384753E-02  0.11522806320E+01  0.11523698092E+01  0.51109989000E-03 0. -1.
     -623    1    1    2    0    0  0.24349750914E-02  0.20318224911E-01  0.20440112506E-03  0.17130000122E+03  0.17130000000E+03 0. -1.
      622    1    1    2    0    0  0.95982700038E-02 -0.12542486435E-01  0.28475149343E+01  0.28476289684E+01  0.20000000000E-01 0. -1.
</event>
<event>
 5   0  0.3603037E+08  0.9118800E+02  0.7818608E-02  0.1180000E+00
       11   -1    0    0    0    0  0.00000000000E+00  0.00000000000E+00  0.39999999673E+01  0.40000000000E+01  0.51109989000E-03 0.  1.
     -623   -1    0    0    0    0  0.00000000000E+00  0.00000000000E+00  0.12525980253E-10  0.17130000000E+03  0.17130000000E+03 0.  1.
       11    1    1    2    0    0  0.13425333924E-02 -0.21424269406E-01  0.11273159928E+01  0.11275204701E+01  0.51109989000E-03 0.  1.
     -623    1    1    2    0    0  0.42333230523E-02 -0.72391928505E-02  0.42270806687E-03  0.17130000021E+03  0.17130000000E+03 0.  1.
      622    1    1    2    0    0 -0.55758564447E-02  0.28663462256E-01  0.28722612665E+01  0.28724793241E+01  0.20000000000E-01 0.  1.
</event>
<event>
 5   0  0.3603037E+08  0.9118800E+02  0.7818608E-02  0.1180000E+00
       11   -1    0    0    0    0  0.00000000000E+00  0.00000000000E+00  0.39999999673E+01  0.40000000000E+01  0.51109989000E-03 0.  1.
     -623   -1    0    0    0    0  0.00000000000E+00  0.00000000000E+00  0.12525980253E-10  0.17130000000E+03  0.17130000000E+03 0.  1.
       11    1    1    2    0    0  0.29419615655E-02  0.44213581637E-02  0.14821967613E+01  0.14822063635E+01  0.51109989000E-03 0.  1.
     -623    1    1    2    0    0 -0.23034713903E-03 -0.62432597367E-04  0.94239163599E-04  0.17130000000E+03  0.17130000000E+03 0.  1.
      622    1    1    2    0    0 -0.27116144265E-02 -0.43589255663E-02  0.25177089669E+01  0.25177936363E+01  0.20000000000E-01 0.  1.
</event>
<event>
 5   0  0.3603037E+08  0.9118800E+02  0.7818608E-02  0.1180000E+00
       11   -1    0    0    0    0  0.00000000000E+00  0.00000000000E+00  0.39999999673E+01  0.40000000000E+01  0.51109989000E-03 0.  1.
     -623   -1    0    0    0    0  0.00000000000E+00  0.00000000000E+00  0.12525980253E-10  0.17130000000E+03  0.17130000000E+03 0.  1.
       11    1    1    2    0    0  0.27351907741E-02  0.33326502494E-03  0.14745927044E+01  0.14745953674E+01  0.51109989000E-03 0.  1.
     -623    1    1    2    0    0  0.13228002257E-03  0.50702734569E-03  0.83595397242E-04  0.17130000000E+03  0.17130000000E+03 0.  1.
      622    1    1    2    0    0 -0.28674707967E-02 -0.84029237062E-03  0.25253236675E+01  0.25254046318E+01  0.20000000000E-01 0.  1.
</event>
<event>
 5   0  0.3603037E+08  0.9118800E+02  0.7818608E-02  0.1180000E+00
       11   -1    0    0    0    0  0.00000000000E+00  0.00000000000E+00  0.39999999673E+01  0.40000000000E+01  0.51109989000E-03 0.  1.
     -623   -1    0    0    0    0  0.00000000000E+00  0.00000000000E+00  0.12525980253E-10  0.17130000000E+03  0.17130000000E+03 0.  1.
       11    1    1    2    0    0  0.39623836983E-02 -0.49416651575E-02  0.80538013889E-01  0.80788324913E-01  0.51109989000E-03 0.  1.
     -623    1    1    2    0    0 -0.71813805048E-04 -0.13767125349E-02  0.30833948050E-03  0.17130000001E+03  0.17130000000E+03 0.  1.
      622    1    1    2    0    0 -0.38905698932E-02  0.63183776923E-02  0.39191536140E+01  0.39192116693E+01  0.20000000000E-01 0.  1.
</event>
<event>
 5   0  0.3603037E+08  0.9118800E+02  0.7818608E-02  0.1180000E+00
       11   -1    0    0    0    0  0.00000000000E+00  0.00000000000E+00  0.39999999673E+01  0.40000000000E+01  0.51109989000E-03 0.  1.
     -623   -1    0    0    0    0  0.00000000000E+00  0.00000000000E+00  0.12525980253E-10  0.17130000000E+03  0.17130000000E+03 0. -1.
       11    1    1    2    0    0 -0.11624645428E-01 -0.61052054137E-02  0.11799699325E+01  0.11800430961E+01  0.51109989000E-03 0.  1.
     -623    1    1    2    0    0  0.17954339257E-02  0.87390396584E-02  0.16264818438E-03  0.17130000023E+03  0.17130000000E+03 0. -1.
      622    1    1    2    0    0  0.98292115020E-02 -0.26338342447E-02  0.28198673867E+01  0.28199566715E+01  0.20000000000E-01 0.  1.
</event>
<event>
 5   0  0.3603037E+08  0.9118800E+02  0.7818608E-02  0.1180000E+00
       11   -1    0    0    0    0  0.00000000000E+00  0.00000000000E+00  0.39999999673E+01  0.40000000000E+01  0.51109989000E-03 0. -1.
     -623   -1    0    0    0    0  0.00000000000E+00  0.00000000000E+00  0.12525980253E-10  0.17130000000E+03  0.17130000000E+03 0.  1.
       11    1    1    2    0    0 -0.57947758602E-01  0.17535994100E-01  0.40755301545E+00  0.41202569755E+00  0.51109989000E-03 0. -1.
     -623    1    1    2    0    0  0.49524378184E-01 -0.27408995532E-01  0.45612761905E-02  0.17130000941E+03  0.17130000000E+03 0.  1.
      622    1    1    2    0    0  0.84233804178E-02  0.98730014317E-02  0.35878856757E+01  0.35879648900E+01  0.20000000000E-01 0. -1.
</event>
<event>
 5   0  0.3603037E+08  0.9118800E+02  0.7818608E-02  0.1180000E+00
       11   -1    0    0    0    0  0.00000000000E+00  0.00000000000E+00  0.39999999673E+01  0.40000000000E+01  0.51109989000E-03 0.  1.
     -623   -1    0    0    0    0  0.00000000000E+00  0.00000000000E+00  0.12525980253E-10  0.17130000000E+03  0.17130000000E+03 0. -1.
       11    1    1    2    0    0  0.69457988875E-02  0.11456133014E-01  0.41411666489E+00  0.41433363424E+00  0.51109989000E-03 0.  1.
     -623    1    1    2    0    0 -0.31700880534E-03  0.13447099708E-03  0.29757637055E-03  0.17130000000E+03  0.17130000000E+03 0. -1.
      622    1    1    2    0    0 -0.66287900821E-02 -0.11590604011E-01  0.35855857261E+01  0.35856663652E+01  0.20000000000E-01 0.  1.
</event>
<event>
 5   0  0.3603037E+08  0.9118800E+02  0.7818608E-02  0.1180000E+00
       11   -1    0    0    0    0  0.00000000000E+00  0.00000000000E+00  0.39999999673E+01  0.40000000000E+01  0.51109989000E-03 0.  1.
     -623   -1    0    0    0    0  0.00000000000E+00  0.00000000000E+00  0.12525980253E-10  0.17130000000E+03  0.17130000000E+03 0. -1.
       11    1    1    2    0    0 -0.24836782811E-01 -0.26809182710E-01  0.52045798216E+00  0.52173975358E+00  0.51109989000E-03 0.  1.
     -623    1    1    2    0    0 -0.50559318928E-02  0.38657281512E-02  0.15434954901E-02  0.17130000013E+03  0.17130000000E+03 0. -1.
      622    1    1    2    0    0  0.29892714704E-01  0.22943454559E-01  0.34779984897E+01  0.34782601212E+01  0.20000000000E-01 0.  1.
</event>
<event>
 5   0  0.3603037E+08  0.9118800E+02  0.7818608E-02  0.1180000E+00
       11   -1    0    0    0    0  0.00000000000E+00  0.00000000000E+00  0.39999999673E+01  0.40000000000E+01  0.51109989000E-03 0. -1.
     -623   -1    0    0    0    0  0.00000000000E+00  0.00000000000E+00  0.12525980253E-10  0.17130000000E+03  0.17130000000E+03 0. -1.
       11    1    1    2    0    0  0.74553824658E-02  0.48807659052E-02  0.45186217997E+00  0.45195032417E+00  0.51109989000E-03 0. -1.
     -623    1    1    2    0    0  0.14109335479E-04 -0.62554198651E-03  0.15489659728E-03  0.17130000000E+03  0.17130000000E+03 0. -1.
      622    1    1    2    0    0 -0.74694918013E-02 -0.42552239187E-02  0.35479828908E+01  0.35480496746E+01  0.20000000000E-01 0. -1.
</event>
<event>
 5   0  0.3603037E+08  0.9118800E+02  0.7818608E-02  0.1180000E+00
       11   -1    0    0    0    0  0.00000000000E+00  0.00000000000E+00  0.39999999673E+01  0.40000000000E+01  0.51109989000E-03 0. -1.
     -623   -1    0    0    0    0  0.00000000000E+00  0.00000000000E+00  0.12525980253E-10  0.17130000000E+03  0.17130000000E+03 0.  1.
       11    1    1    2    0    0  0.53722422802E-02  0.14478231608E-02  0.20041359396E+00  0.20049146377E+00  0.51109989000E-03 0. -1.
     -623    1    1    2    0    0 -0.11401672533E-02  0.76722552937E-02  0.14395434957E-03  0.17130000018E+03  0.17130000000E+03 0.  1.
      622    1    1    2    0    0 -0.42320750269E-02 -0.91200784545E-02  0.37994424190E+01  0.37995083606E+01  0.20000000000E-01 0.  0.
</event>
<event>
 5   0  0.3603037E+08  0.9118800E+02  0.7818608E-02  0.1180000E+00
       11   -1    0    0    0    0  0.00000000000E+00  0.00000000000E+00  0.39999999673E+01  0.40000000000E+01  0.51109989000E-03 0. -1.
     -623   -1    0    0    0    0  0.00000000000E+00  0.00000000000E+00  0.12525980253E-10  0.17130000000E+03  0.17130000000E+03 0.  1.
       11    1    1    2    0    0  0.54929103579E-02 -0.43392810757E-03  0.13567381357E+00  0.13578661667E+00  0.51109989000E-03 0. -1.
     -623    1    1    2    0    0  0.11657114417E-02 -0.58519628066E-02  0.17548147365E-03  0.17130000010E+03  0.17130000000E+03 0.  1.
      622    1    1    2    0    0 -0.66586217996E-02  0.62858909141E-02  0.38641506723E+01  0.38642132793E+01  0.20000000000E-01 0. -1.
</event>
<event>
 5   0  0.3603037E+08  0.9118800E+02  0.7818608E-02  0.1180000E+00
       11   -1    0    0    0    0  0.00000000000E+00  0.00000000000E+00  0.39999999673E+01  0.40000000000E+01  0.51109989000E-03 0. -1.
     -623   -1    0    0    0    0  0.00000000000E+00  0.00000000000E+00  0.12525980253E-10  0.17130000000E+03  0.17130000000E+03 0.  1.
       11    1    1    2    0    0 -0.16465635774E-02 -0.23490703108E-01  0.10314905437E+01  0.10317594328E+01  0.51109989000E-03 0. -1.
     -623    1    1    2    0    0 -0.27876833983E-02 -0.12558525713E-01  0.55895538884E-03  0.17130000048E+03  0.17130000000E+03 0.  1.
      622    1    1    2    0    0  0.44342469757E-02  0.36049228820E-01  0.29679504683E+01  0.29682400832E+01  0.20000000000E-01 0. -1.
</event>
<event>
 5   0  0.3603037E+08  0.9118800E+02  0.7818608E-02  0.1180000E+00
       11   -1    0    0    0    0  0.00000000000E+00  0.00000000000E+00  0.39999999673E+01  0.40000000000E+01  0.51109989000E-03 0.  1.
     -623   -1    0    0    0    0  0.00000000000E+00  0.00000000000E+00  0.12525980253E-10  0.17130000000E+03  0.17130000000E+03 0.  1.
       11    1    1    2    0    0 -0.14885772711E-01 -0.11224043069E-01  0.61625017255E+00  0.61653232012E+00  0.51109989000E-03 0.  1.
     -623    1    1    2    0    0  0.19040720589E-01  0.56606229948E-02  0.34950379593E-03  0.17130000115E+03  0.17130000000E+03 0.  1.
      622    1    1    2    0    0 -0.41549478781E-02  0.55634200744E-02  0.33834002910E+01  0.33834665278E+01  0.20000000000E-01 0.  1.
</event>
<event>
 5   0  0.3603037E+08  0.9118800E+02  0.7818608E-02  0.1180000E+00
       11   -1    0    0    0    0  0.00000000000E+00  0.00000000000E+00  0.39999999673E+01  0.40000000000E+01  0.51109989000E-03 0. -1.
     -623   -1    0    0    0    0  0.00000000000E+00  0.00000000000E+00  0.12525980253E-10  0.17130000000E+03  0.17130000000E+03 0. -1.
       11    1    1    2    0    0  0.79044969539E-03 -0.11380672962E-02  0.32920769396E-01  0.32953881215E-01  0.51109989000E-03 0. -1.
     -623    1    1    2    0    0 -0.17063509699E-02 -0.10044170245E-02  0.84190593494E-04  0.17130000001E+03  0.17130000000E+03 0. -1.
      622    1    1    2    0    0  0.91590127454E-03  0.21424843206E-02  0.39669950074E+01  0.39670461073E+01  0.20000000000E-01 0. -1.
</event>
<event>
 5   0  0.3603037E+08  0.9118800E+02  0.7818608E-02  0.1180000E+00
       11   -1    0    0    0    0  0.00000000000E+00  0.00000000000E+00  0.39999999673E+01  0.40000000000E+01  0.51109989000E-03 0. -1.
     -623   -1    0    0    0    0  0.00000000000E+00  0.00000000000E+00  0.12525980253E-10  0.17130000000E+03  0.17130000000E+03 0. -1.
       11    1    1    2    0    0  0.12169618583E-01  0.16755628314E-02  0.15336124715E+01  0.15336617558E+01  0.51109989000E-03 0. -1.
     -623    1    1    2    0    0 -0.62091590093E-04 -0.99829538059E-03  0.16016057334E-03  0.17130000000E+03  0.17130000000E+03 0. -1.
      622    1    1    2    0    0 -0.12107526993E-01 -0.67726745078E-03  0.24662273353E+01  0.24663382412E+01  0.20000000000E-01 0. -1.
</event>
<event>
 5   0  0.3603037E+08  0.9118800E+02  0.7818608E-02  0.1180000E+00
       11   -1    0    0    0    0  0.00000000000E+00  0.00000000000E+00  0.39999999673E+01  0.40000000000E+01  0.51109989000E-03 0. -1.
     -623   -1    0    0    0    0  0.00000000000E+00  0.00000000000E+00  0.12525980253E-10  0.17130000000E+03  0.17130000000E+03 0. -1.
       11    1    1    2    0    0 -0.33670422498E-01 -0.34391829800E-01  0.23671351413E+01  0.23676244495E+01  0.51109989000E-03 0. -1.
     -623    1    1    2    0    0  0.19635305991E-01  0.50559023328E-01  0.76080459814E-03  0.17130000859E+03  0.17130000000E+03 0. -1.
      622    1    1    2    0    0  0.14035116507E-01 -0.16167193528E-01  0.16321040214E+01  0.16323669622E+01  0.20000000000E-01 0. -1.
</event>
<event>
 5   0  0.3603037E+08  0.9118800E+02  0.7818608E-02  0.1180000E+00
       11   -1    0    0    0    0  0.00000000000E+00  0.00000000000E+00  0.39999999673E+01  0.40000000000E+01  0.51109989000E-03 0.  1.
     -623   -1    0    0    0    0  0.00000000000E+00  0.00000000000E+00  0.12525980253E-10  0.17130000000E+03  0.17130000000E+03 0. -1.
       11    1    1    2    0    0 -0.44157698503E-03  0.66946277522E-02  0.18018448047E+01  0.18018573680E+01  0.51109989000E-03 0.  1.
     -623    1    1    2    0    0 -0.81618766048E-02  0.10190574329E-01  0.18571030970E-03  0.17130000050E+03  0.17130000000E+03 0. -1.
      622    1    1    2    0    0  0.86034535899E-02 -0.16885202081E-01  0.21979694523E+01  0.21981421343E+01  0.20000000000E-01 0.  0.
</event>
<event>
 5   0  0.3603037E+08  0.9118800E+02  0.7818608E-02  0.1180000E+00
       11   -1    0    0    0    0  0.00000000000E+00  0.00000000000E+00  0.39999999673E+01  0.40000000000E+01  0.51109989000E-03 0.  1.
     -623   -1    0    0    0    0  0.00000000000E+00  0.00000000000E+00  0.12525980253E-10  0.17130000000E+03  0.17130000000E+03 0.  1.
       11    1    1    2    0    0 -0.41661404081E-02 -0.44771446930E-02  0.94543880697E-01  0.94742852764E-01  0.51109989000E-03 0.  1.
     -623    1    1    2    0    0 -0.26816686095E-02 -0.22636773231E-02  0.26201049523E-03  0.17130000004E+03  0.17130000000E+03 0.  1.
      622    1    1    2    0    0  0.68478090176E-02  0.67408220161E-02  0.39051940762E+01  0.39052571111E+01  0.20000000000E-01 0.  1.
</event>
<event>
 5   0  0.3603037E+08  0.9118800E+02  0.7818608E-02  0.1180000E+00
       11   -1    0    0    0    0  0.00000000000E+00  0.00000000000E+00  0.39999999673E+01  0.40000000000E+01  0.51109989000E-03 0. -1.
     -623   -1    0    0    0    0  0.00000000000E+00  0.00000000000E+00  0.12525980253E-10  0.17130000000E+03  0.17130000000E+03 0.  1.
       11    1    1    2    0    0 -0.32466454639E-02  0.50895225881E-03  0.10855148508E+00  0.10860242112E+00  0.51109989000E-03 0. -1.
     -623    1    1    2    0    0  0.26069478996E-03  0.20252541181E-02  0.10428215421E-03  0.17130000001E+03  0.17130000000E+03 0.  1.
      622    1    1    2    0    0  0.29859506740E-02 -0.25342063769E-02  0.38913442001E+01  0.38913975667E+01  0.20000000000E-01 0. -1.
</event>
<event>
 5   0  0.3603037E+08  0.9118800E+02  0.7818608E-02  0.1180000E+00
       11   -1    0    0    0    0  0.00000000000E+00  0.00000000000E+00  0.39999999673E+01  0.40000000000E+01  0.51109989000E-03 0. -1.
     -623   -1    0    0    0    0  0.00000000000E+00  0.00000000000E+00  0.12525980253E-10  0.17130000000E+03  0.17130000000E+03 0. -1.
       11    1    1    2    0    0  0.52737800253E-02  0.15680778377E-02  0.79599729291E-01  0.79791288679E-01  0.51109989000E-03 0. -1.
     -623    1    1    2    0    0 -0.28334253090E-02  0.33439994944E-02  0.24643809514E-03  0.17130000006E+03  0.17130000000E+03 0. -1.
      622    1    1    2    0    0 -0.24403547163E-02 -0.49120773321E-02  0.39201538000E+01  0.39202086551E+01  0.20000000000E-01 0. -1.
</event>
<event>
 5   0  0.3603037E+08  0.9118800E+02  0.7818608E-02  0.1180000E+00
       11   -1    0    0    0    0  0.00000000000E+00  0.00000000000E+00  0.39999999673E+01  0.40000000000E+01  0.51109989000E-03 0. -1.
     -623   -1    0    0    0    0  0.00000000000E+00  0.00000000000E+00  0.12525980253E-10  0.17130000000E+03  0.17130000000E+03 0.  1.
       11    1    1    2    0    0 -0.43728106993E-03  0.73652427345E-03  0.12524461509E-01  0.12564117196E-01  0.51109989000E-03 0. -1.
     -623    1    1    2    0    0 -0.15239684357E-02 -0.10037239722E-02  0.90281938699E-04  0.17130000001E+03  0.17130000000E+03 0.  1.
      622    1    1    2    0    0  0.19612495056E-02  0.26719969874E-03  0.39873852239E+01  0.39874358731E+01  0.20000000000E-01 0. -1.
</event>
<event>
 5   0  0.3603037E+08  0.9118800E+02  0.7818608E-02  0.1180000E+00
       11   -1    0    0    0    0  0.00000000000E+00  0.00000000000E+00  0.39999999673E+01  0.40000000000E+01  0.51109989000E-03 0. -1.
     -623   -1    0    0    0    0  0.00000000000E+00  0.00000000000E+00  0.12525980253E-10  0.17130000000E+03  0.17130000000E+03 0.  1.
       11    1    1    2    0    0  0.64243968367E-02 -0.15254123410E-02  0.11752200341E+01  0.11752386947E+01  0.51109989000E-03 0. -1.
     -623    1    1    2    0    0 -0.89419745342E-02 -0.43459019954E-02  0.96943748472E-04  0.17130000029E+03  0.17130000000E+03 0.  1.
      622    1    1    2    0    0  0.25175776975E-02  0.58713143364E-02  0.28246829895E+01  0.28247610168E+01  0.20000000000E-01 0. -1.
</event>
<event>
 5   0  0.3603037E+08  0.9118800E+02  0.7818608E-02  0.1180000E+00
       11   -1    0    0    0    0  0.00000000000E+00  0.00000000000E+00  0.39999999673E+01  0.40000000000E+01  0.51109989000E-03 0.  1.
     -623   -1    0    0    0    0  0.00000000000E+00  0.00000000000E+00  0.12525980253E-10  0.17130000000E+03  0.17130000000E+03 0. -1.
       11    1    1    2    0    0 -0.31748088889E-02 -0.12011781632E-02  0.22538981230E+00  0.22541595096E+00  0.51109989000E-03 0.  1.
     -623    1    1    2    0    0  0.39128819884E-03 -0.97213684563E-04  0.80342529587E-04  0.17130000000E+03  0.17130000000E+03 0. -1.
      622    1    1    2    0    0  0.27835206900E-02  0.12983918477E-02  0.37745298125E+01  0.37745840485E+01  0.20000000000E-01 0.  1.
</event>
<event>
 5   0  0.3603037E+08  0.9118800E+02  0.7818608E-02  0.1180000E+00
       11   -1    0    0    0    0  0.00000000000E+00  0.00000000000E+00  0.39999999673E+01  0.40000000000E+01  0.51109989000E-03 0. -1.
     -623   -1    0    0    0    0  0.00000000000E+00  0.00000000000E+00  0.12525980253E-10  0.17130000000E+03  0.17130000000E+03 0. -1.
       11    1    1    2    0    0  0.18861621030E-02  0.10730912935E-02  0.11429989174E+00  0.11432163227E+00  0.51109989000E-03 0. -1.
     -623    1    1    2    0    0 -0.43869228617E-02  0.23712180030E-03  0.74261283080E-04  0.17130000006E+03  0.17130000000E+03 0. -1.
      622    1    1    2    0    0  0.25007607587E-02 -0.13102130938E-02  0.38856258143E+01  0.38856783114E+01  0.20000000000E-01 0. -1.
</event>
<event>
 5   0  0.3603037E+08  0.9118800E+02  0.7818608E-02  0.1180000E+00
       11   -1    0    0    0    0  0.00000000000E+00  0.00000000000E+00  0.39999999673E+01  0.40000000000E+01  0.51109989000E-03 0.  1.
     -623   -1    0    0    0    0  0.00000000000E+00  0.00000000000E+00  0.12525980253E-10  0.17130000000E+03  0.17130000000E+03 0. -1.
       11    1    1    2    0    0  0.40632522725E-02 -0.63234993392E-02  0.63998303770E+00  0.64002737943E+00  0.51109989000E-03 0.  1.
     -623    1    1    2    0    0 -0.12112213596E-01 -0.20327744166E-02  0.12430653584E-03  0.17130000044E+03  0.17130000000E+03 0. -1.
      622    1    1    2    0    0  0.80489613231E-02  0.83562737558E-02  0.33598926231E+01  0.33599721802E+01  0.20000000000E-01 0.  1.
</event>
<event>
 5   0  0.3603037E+08  0.9118800E+02  0.7818608E-02  0.1180000E+00
       11   -1    0    0    0    0  0.00000000000E+00  0.00000000000E+00  0.39999999673E+01  0.40000000000E+01  0.51109989000E-03 0.  1.
     -623   -1    0    0    0    0  0.00000000000E+00  0.00000000000E+00  0.12525980253E-10  0.17130000000E+03  0.17130000000E+03 0. -1.
       11    1    1    2    0    0  0.25006612056E-02  0.27908005530E-06  0.16334244592E-01  0.16532455136E-01  0.51109989000E-03 0.  1.
     -623    1    1    2    0    0 -0.35281744751E-03 -0.93832684459E-03  0.24907835283E-03  0.17130000000E+03  0.17130000000E+03 0. -1.
      622    1    1    2    0    0 -0.21478437581E-02  0.93804776454E-03  0.39834166444E+01  0.39834675417E+01  0.20000000000E-01 0.  1.
</event>
<event>
 5   0  0.3603037E+08  0.9118800E+02  0.7818608E-02  0.1180000E+00
       11   -1    0    0    0    0  0.00000000000E+00  0.00000000000E+00  0.39999999673E+01  0.40000000000E+01  0.51109989000E-03 0. -1.
     -623   -1    0    0    0    0  0.00000000000E+00  0.00000000000E+00  0.12525980253E-10  0.17130000000E+03  0.17130000000E+03 0. -1.
       11    1    1    2    0    0  0.12222129343E-01  0.31327903112E-02  0.18386137435E+01  0.18386571061E+01  0.51109989000E-03 0. -1.
     -623    1    1    2    0    0 -0.10528871558E-02  0.15302934425E-02  0.16976899666E-03  0.17130000001E+03  0.17130000000E+03 0. -1.
      622    1    1    2    0    0 -0.11169242188E-01 -0.46630837537E-02  0.21612164549E+01  0.21613428837E+01  0.20000000000E-01 0.  1.
</event>
<event>
 5   0  0.3603037E+08  0.9118800E+02  0.7818608E-02  0.1180000E+00
       11   -1    0    0    0    0  0.00000000000E+00  0.00000000000E+00  0.39999999673E+01  0.40000000000E+01  0.51109989000E-03 0.  1.
     -623   -1    0    0    0    0  0.00000000000E+00  0.00000000000E+00  0.12525980253E-10  0.17130000000E+03  0.17130000000E+03 0. -1.
       11    1    1    2    0    0 -0.13261382301E-02  0.21210816854E-02  0.38694230559E+00  0.38695072904E+00  0.51109989000E-03 0.  1.
     -623    1    1    2    0    0  0.45138185893E-03  0.29411718571E-03  0.64660147943E-04  0.17130000000E+03  0.17130000000E+03 0. -1.
      622    1    1    2    0    0  0.87475637119E-03 -0.24151988711E-02  0.36129930016E+01  0.36130492701E+01  0.20000000000E-01 0.  1.
</event>
<event>
 5   0  0.3603037E+08  0.9118800E+02  0.7818608E-02  0.1180000E+00
       11   -1    0    0    0    0  0.00000000000E+00  0.00000000000E+00  0.39999999673E+01  0.40000000000E+01  0.51109989000E-03 0. -1.
     -623   -1    0    0    0    0  0.00000000000E+00  0.00000000000E+00  0.12525980253E-10  0.17130000000E+03  0.17130000000E+03 0. -1.
       11    1    1    2    0    0  0.95621707810E-03  0.20128795252E-02  0.27429606382E-01  0.27524726367E-01  0.51109989000E-03 0. -1.
     -623    1    1    2    0    0 -0.86186538256E-03 -0.13486174461E-02  0.14549830477E-03  0.17130000001E+03  0.17130000000E+03 0. -1.
      622    1    1    2    0    0 -0.94351695540E-04 -0.66426207911E-03  0.39724248627E+01  0.39724752661E+01  0.20000000000E-01 0. -1.
</event>
<event>
 5   0  0.3603037E+08  0.9118800E+02  0.7818608E-02  0.1180000E+00
       11   -1    0    0    0    0  0.00000000000E+00  0.00000000000E+00  0.39999999673E+01  0.40000000000E+01  0.51109989000E-03 0. -1.
     -623   -1    0    0    0    0  0.00000000000E+00  0.00000000000E+00  0.12525980253E-10  0.17130000000E+03  0.17130000000E+03 0.  1.
       11    1    1    2    0    0  0.23398321697E-02 -0.33455185371E-03  0.24504240362E+00  0.24505433588E+00  0.51109989000E-03 0. -1.
     -623    1    1    2    0    0  0.37263225721E-03  0.39836302099E-02  0.67962665973E-04  0.17130000005E+03  0.17130000000E+03 0.  1.
      622    1    1    2    0    0 -0.27124644269E-02 -0.36490783562E-02  0.37548896011E+01  0.37549456174E+01  0.20000000000E-01 0. -1.
</event>
<event>
 5   0  0.3603037E+08  0.9118800E+02  0.7818608E-02  0.1180000E+00
       11   -1    0    0    0    0  0.00000000000E+00  0.00000000000E+00  0.39999999673E+01  0.40000000000E+01  0.51109989000E-03 0.  1.
     -623   -1    0    0    0    0  0.00000000000E+00  0.00000000000E+00  0.12525980253E-10  0.17130000000E+03  0.17130000000E+03 0.  1.
       11    1    1    2    0    0  0.14483447417E-02 -0.77411667715E-04  0.25753908176E-01  0.25799781065E-01  0.51109989000E-03 0.  1.
     -623    1    1    2    0    0 -0.73688527109E-04  0.13560777135E-03  0.96403426996E-04  0.17130000000E+03  0.17130000000E+03 0.  1.
      622    1    1    2    0    0 -0.13746562145E-02 -0.58196103633E-04  0.39741496558E+01  0.39742002188E+01  0.20000000000E-01 0.  1.
</event>
<event>
 5   0  0.3603037E+08  0.9118800E+02  0.7818608E-02  0.1180000E+00
       11   -1    0    0    0    0  0.00000000000E+00  0.00000000000E+00  0.39999999673E+01  0.40000000000E+01  0.51109989000E-03 0. -1.
     -623   -1    0    0    0    0  0.00000000000E+00  0.00000000000E+00  0.12525980253E-10  0.17130000000E+03  0.17130000000E+03 0. -1.
       11    1    1    2    0    0 -0.14419965780E-02 -0.19866949161E-02  0.10474458790E+00  0.10477459725E+00  0.51109989000E-03 0. -1.
     -623    1    1    2    0    0  0.38349495513E-03  0.45198978410E-03  0.81769159652E-04  0.17130000000E+03  0.17130000000E+03 0. -1.
      622    1    1    2    0    0  0.10585016229E-02  0.15347051320E-02  0.38951736103E+01  0.38952254017E+01  0.20000000000E-01 0. -1.
</event>
<event>
 5   0  0.3603037E+08  0.9118800E+02  0.7818608E-02  0.1180000E+00
       11   -1    0    0    0    0  0.00000000000E+00  0.00000000000E+00  0.39999999673E+01  0.40000000000E+01  0.51109989000E-03 0.  1.
     -623   -1    0    0    0    0  0.00000000000E+00  0.00000000000E+00  0.12525980253E-10  0.17130000000E+03  0.17130000000E+03 0. -1.
       11    1    1    2    0    0  0.23826042001E-02  0.82360918988E-02  0.18636273825E+01  0.18636471748E+01  0.51109989000E-03 0.  1.
     -623    1    1    2    0    0 -0.46947278985E-02 -0.43999251425E-02  0.11819568273E-03  0.17130000012E+03  0.17130000000E+03 0. -1.
      622    1    1    2    0    0  0.23121236984E-02 -0.38361667563E-02  0.21362543892E+01  0.21363527043E+01  0.20000000000E-01 0.  1.
</event>
<event>
 5   0  0.3603037E+08  0.9118800E+02  0.7818608E-02  0.1180000E+00
       11   -1    0    0    0    0  0.00000000000E+00  0.00000000000E+00  0.39999999673E+01  0.40000000000E+01  0.51109989000E-03 0.  1.
     -623   -1    0    0    0    0  0.00000000000E+00  0.00000000000E+00  0.12525980253E-10  0.17130000000E+03  0.17130000000E+03 0. -1.
       11    1    1    2    0    0 -0.27950484644E-03  0.26938650285E-02  0.84322622887E+00  0.84323073314E+00  0.51109989000E-03 0.  1.
     -623    1    1    2    0    0 -0.26765281485E-03  0.27073678372E-03  0.69268128512E-04  0.17130000000E+03  0.17130000000E+03 0. -1.
      622    1    1    2    0    0  0.54715766129E-03 -0.29646018122E-02  0.31567044704E+01  0.31567692664E+01  0.20000000000E-01 0.  1.
</event>
<event>
 5   0  0.3603037E+08  0.9118800E+02  0.7818608E-02  0.1180000E+00
       11   -1    0    0    0    0  0.00000000000E+00  0.00000000000E+00  0.39999999673E+01  0.40000000000E+01  0.51109989000E-03 0. -1.
     -623   -1    0    0    0    0  0.00000000000E+00  0.00000000000E+00  0.12525980253E-10  0.17130000000E+03  0.17130000000E+03 0.  1.
       11    1    1    2    0    0  0.20634687159E-01 -0.11104705066E-01  0.33499619760E+01  0.33500439708E+01  0.51109989000E-03 0. -1.
     -623    1    1    2    0    0 -0.14397497705E-01  0.11637009004E-01  0.42090957187E-03  0.17130000100E+03  0.17130000000E+03 0.  1.
      622    1    1    2    0    0 -0.62371894538E-02 -0.53230393726E-03  0.64961708183E+00  0.64995502835E+00  0.20000000000E-01 0. -1.
</event>
<event>
 5   0  0.3603037E+08  0.9118800E+02  0.7818608E-02  0.1180000E+00
       11   -1    0    0    0    0  0.00000000000E+00  0.00000000000E+00  0.39999999673E+01  0.40000000000E+01  0.51109989000E-03 0. -1.
     -623   -1    0    0    0    0  0.00000000000E+00  0.00000000000E+00  0.12525980253E-10  0.17130000000E+03  0.17130000000E+03 0. -1.
       11    1    1    2    0    0  0.34836067681E-02 -0.24873346874E-02  0.77555254518E-01  0.77674970717E-01  0.51109989000E-03 0. -1.
     -623    1    1    2    0    0  0.10199219795E-02 -0.86523449378E-03  0.17469763522E-03  0.17130000001E+03  0.17130000000E+03 0. -1.
      622    1    1    2    0    0 -0.45035287476E-02  0.33525691811E-02  0.39222700152E+01  0.39223250240E+01  0.20000000000E-01 0.  0.
</event>
<event>
 5   0  0.3603037E+08  0.9118800E+02  0.7818608E-02  0.1180000E+00
       11   -1    0    0    0    0  0.00000000000E+00  0.00000000000E+00  0.39999999673E+01  0.40000000000E+01  0.51109989000E-03 0.  1.
     -623   -1    0    0    0    0  0.00000000000E+00  0.00000000000E+00  0.12525980253E-10  0.17130000000E+03  0.17130000000E+03 0.  1.
       11    1    1    2    0    0 -0.13240451085E-02  0.33501761783E-02  0.27592991746E-01  0.27831837725E-01  0.51109989000E-03 0.  1.
     -623    1    1    2    0    0  0.12997979864E-02 -0.53863073635E-02  0.28977579428E-03  0.17130000009E+03  0.17130000000E+03 0.  1.
      622    1    1    2    0    0  0.24247122142E-04  0.20361311852E-02  0.39721171998E+01  0.39721680724E+01  0.20000000000E-01 0.  1.
</event>
<event>
 5   0  0.3603037E+08  0.9118800E+02  0.7818608E-02  0.1180000E+00
       11   -1    0    0    0    0  0.00000000000E+00  0.00000000000E+00  0.39999999673E+01  0.40000000000E+01  0.51109989000E-03 0.  1.
     -623   -1    0    0    0    0  0.00000000000E+00  0.00000000000E+00  0.12525980253E-10  0.17130000000E+03  0.17130000000E+03 0. -1.
       11    1    1    2    0    0 -0.14327469405E-02  0.10737227798E-02  0.36335675928E-01  0.36383350753E-01  0.51109989000E-03 0. -1.
     -623    1    1    2    0    0 -0.14167137455E-03 -0.37604042857E-04  0.98549687134E-04  0.17130000000E+03  0.17130000000E+03 0. -1.
      622    1    1    2    0    0  0.15744183151E-02 -0.10361187370E-02  0.39635657417E+01  0.39636166492E+01  0.20000000000E-01 0.  1.
</event>
<event>
 5   0  0.3603037E+08  0.9118800E+02  0.7818608E-02  0.1180000E+00
       11   -1    0    0    0    0  0.00000000000E+00  0.00000000000E+00  0.39999999673E+01  0.40000000000E+01  0.51109989000E-03 0.  1.
     -623   -1    0    0    0    0  0.00000000000E+00  0.00000000000E+00  0.12525980253E-10  0.17130000000E+03  0.17130000000E+03 0. -1.
       11    1    1    2    0    0 -0.38869415639E-02 -0.89460545449E-02  0.78820025363E-01  0.79422904920E-01  0.51109989000E-03 0.  1.
     -623    1    1    2    0    0  0.89559046637E-03 -0.50969417393E-02  0.68023137185E-03  0.17130000008E+03  0.17130000000E+03 0. -1.
      622    1    1    2    0    0  0.29913510975E-02  0.14042996284E-01  0.39204997106E+01  0.39205770156E+01  0.20000000000E-01 0.  1.
</event>
<event>
 5   0  0.3603037E+08  0.9118800E+02  0.7818608E-02  0.1180000E+00
       11   -1    0    0    0    0  0.00000000000E+00  0.00000000000E+00  0.39999999673E+01  0.40000000000E+01  0.51109989000E-03 0.  1.
     -623   -1    0    0    0    0  0.00000000000E+00  0.00000000000E+00  0.12525980253E-10  0.17130000000E+03  0.17130000000E+03 0. -1.
       11    1    1    2    0    0  0.12759272585E-01 -0.81030812135E-02  0.45420569802E+00  0.45445740867E+00  0.51109989000E-03 0.  1.
     -623    1    1    2    0    0 -0.13135982732E-02  0.49413293318E-02  0.32804845108E-03  0.17130000008E+03  0.17130000000E+03 0. -1.
      622    1    1    2    0    0 -0.11445674312E-01  0.31617518817E-02  0.35454662209E+01  0.35455425147E+01  0.20000000000E-01 0.  1.
</event>
<event>
 5   0  0.3603037E+08  0.9118800E+02  0.7818608E-02  0.1180000E+00
       11   -1    0    0    0    0  0.00000000000E+00  0.00000000000E+00  0.39999999673E+01  0.40000000000E+01  0.51109989000E-03 0.  1.
     -623   -1    0    0    0    0  0.00000000000E+00  0.00000000000E+00  0.12525980253E-10  0.17130000000E+03  0.17130000000E+03 0.  1.
       11    1    1    2    0    0 -0.16548171433E-03  0.18478407386E-02  0.23734444653E+00  0.23735224756E+00  0.51109989000E-03 0.  1.
     -623    1    1    2    0    0 -0.42747667271E-04 -0.13790843861E-03  0.61317200509E-04  0.17130000000E+03  0.17130000000E+03 0.  1.
      622    1    1    2    0    0  0.20822938160E-03 -0.17099323000E-02  0.37625942036E+01  0.37626477524E+01  0.20000000000E-01 0.  0.
</event>
<event>
 5   0  0.3603037E+08  0.9118800E+02  0.7818608E-02  0.1180000E+00
       11   -1    0    0    0    0  0.00000000000E+00  0.00000000000E+00  0.39999999673E+01  0.40000000000E+01  0.51109989000E-03 0. -1.
     -623   -1    0    0    0    0  0.00000000000E+00  0.00000000000E+00  0.12525980253E-10  0.17130000000E+03  0.17130000000E+03 0.  1.
       11    1    1    2    0    0  0.16782998196E-02  0.18084417911E-02  0.65062873150E-01  0.65111641328E-01  0.51109989000E-03 0. -1.
     -623    1    1    2    0    0  0.97319034333E-03 -0.10062117522E-02  0.10054411087E-03  0.17130000001E+03  0.17130000000E+03 0.  1.
      622    1    1    2    0    0 -0.26514901629E-02 -0.80223003890E-03  0.39348365501E+01  0.39348883529E+01  0.20000000000E-01 0. -1.
</event>
<event>
 5   0  0.3603037E+08  0.9118800E+02  0.7818608E-02  0.1180000E+00
       11   -1    0    0    0    0  0.00000000000E+00  0.00000000000E+00  0.39999999673E+01  0.40000000000E+01  0.51109989000E-03 0. -1.
     -623   -1    0    0    0    0  0.00000000000E+00  0.00000000000E+00  0.12525980253E-10  0.17130000000E+03  0.17130000000E+03 0. -1.
       11    1    1    2    0    0 -0.95713164742E-02 -0.25359780742E-02  0.13570626595E+01  0.13570988779E+01  0.51109989000E-03 0. -1.
     -623    1    1    2    0    0  0.61117018402E-03  0.59955226055E-03  0.12776197237E-03  0.17130000000E+03  0.17130000000E+03 0. -1.
      622    1    1    2    0    0  0.89601462902E-02  0.19364258137E-02  0.26428095459E+01  0.26429011200E+01  0.20000000000E-01 0.  0.
</event>
<event>
 5   0  0.3603037E+08  0.9118800E+02  0.7818608E-02  0.1180000E+00
       11   -1    0    0    0    0  0.00000000000E+00  0.00000000000E+00  0.39999999673E+01  0.40000000000E+01  0.51109989000E-03 0. -1.
     -623   -1    0    0    0    0  0.00000000000E+00  0.00000000000E+00  0.12525980253E-10  0.17130000000E+03  0.17130000000E+03 0. -1.
       11    1    1    2    0    0  0.21887208131E-02  0.51939599171E-03  0.10998158258E-01  0.11237480889E-01  0.51109989000E-03 0. -1.
     -623    1    1    2    0    0 -0.21135175929E-02 -0.49626961826E-02  0.29199190340E-03  0.17130000009E+03  0.17130000000E+03 0. -1.
      622    1    1    2    0    0 -0.75203220190E-04  0.44433001909E-02  0.39887098172E+01  0.39887624339E+01  0.20000000000E-01 0. -1.
</event>
<event>
 5   0  0.3603037E+08  0.9118800E+02  0.7818608E-02  0.1180000E+00
       11   -1    0    0    0    0  0.00000000000E+00  0.00000000000E+00  0.39999999673E+01  0.40000000000E+01  0.51109989000E-03 0.  1.
     -623   -1    0    0    0    0  0.00000000000E+00  0.00000000000E+00  0.12525980253E-10  0.17130000000E+03  0.17130000000E+03 0.  1.
       11    1    1    2    0    0 -0.23640928867E-03  0.61473319036E-03  0.29074779918E-01  0.29086729523E-01  0.51109989000E-03 0.  1.
     -623    1    1    2    0    0 -0.33749389033E-05 -0.57033293811E-03  0.62291980604E-04  0.17130000000E+03  0.17130000000E+03 0.  1.
      622    1    1    2    0    0  0.23978422758E-03 -0.44400252246E-04  0.39708628955E+01  0.39709132695E+01  0.20000000000E-01 0.  1.
</event>
<event>
 5   0  0.3603037E+08  0.9118800E+02  0.7818608E-02  0.1180000E+00
       11   -1    0    0    0    0  0.00000000000E+00  0.00000000000E+00  0.39999999673E+01  0.40000000000E+01  0.51109989000E-03 0.  1.
     -623   -1    0    0    0    0  0.00000000000E+00  0.00000000000E+00  0.12525980253E-10  0.17130000000E+03  0.17130000000E+03 0. -1.
       11    1    1    2    0    0 -0.33071747703E-02 -0.19580647848E-01  0.20002095403E+01  0.20003081776E+01  0.51109989000E-03 0.  1.
     -623    1    1    2    0    0  0.16423655837E-01  0.42363363113E-02  0.30135854580E-03  0.17130000084E+03  0.17130000000E+03 0. -1.
      622    1    1    2    0    0 -0.13116481067E-01  0.15344311537E-01  0.19994890685E+01  0.19996909824E+01  0.20000000000E-01 0.  1.
</event>
<event>
 5   0  0.3603037E+08  0.9118800E+02  0.7818608E-02  0.1180000E+00
       11   -1    0    0    0    0  0.00000000000E+00  0.00000000000E+00  0.39999999673E+01  0.40000000000E+01  0.51109989000E-03 0. -1.
     -623   -1    0    0    0    0  0.00000000000E+00  0.00000000000E+00  0.12525980253E-10  0.17130000000E+03  0.17130000000E+03 0.  1.
       11    1    1    2    0    0  0.79133777945E-02  0.68531747331E-02  0.96312479224E-01  0.96881073634E-01  0.51109989000E-03 0. -1.
     -623    1    1    2    0    0  0.12979730942E-02 -0.99835958986E-03  0.63507300923E-03  0.17130000001E+03  0.17130000000E+03 0.  1.
      622    1    1    2    0    0 -0.92113508887E-02 -0.58548151432E-02  0.39030524151E+01  0.39031189174E+01  0.20000000000E-01 0. -1.
</event>
<event>
 5   0  0.3603037E+08  0.9118800E+02  0.7818608E-02  0.1180000E+00
       11   -1    0    0    0    0  0.00000000000E+00  0.00000000000E+00  0.39999999673E+01  0.40000000000E+01  0.51109989000E-03 0. -1.
     -623   -1    0    0    0    0  0.00000000000E+00  0.00000000000E+00  0.12525980253E-10  0.17130000000E+03  0.17130000000E+03 0. -1.
       11    1    1    2    0    0 -0.12194258341E-02 -0.70035734067E-03  0.56499305833E-02  0.58446930238E-02  0.51109989000E-03 0. -1.
     -623    1    1    2    0    0  0.14278091103E-02  0.21328811454E-02  0.24508501437E-03  0.17130000002E+03  0.17130000000E+03 0. -1.
      622    1    1    2    0    0 -0.20838327612E-03 -0.14325238047E-02  0.39941049518E+01  0.39941552876E+01  0.20000000000E-01 0. -1.
</event>
<event>
 5   0  0.3603037E+08  0.9118800E+02  0.7818608E-02  0.1180000E+00
       11   -1    0    0    0    0  0.00000000000E+00  0.00000000000E+00  0.39999999673E+01  0.40000000000E+01  0.51109989000E-03 0.  1.
     -623   -1    0    0    0    0  0.00000000000E+00  0.00000000000E+00  0.12525980253E-10  0.17130000000E+03  0.17130000000E+03 0.  1.
       11    1    1    2    0    0  0.28649054720E-02  0.26784824292E-02  0.35375701729E+00  0.35377912666E+00  0.51109989000E-03 0.  1.
     -623    1    1    2    0    0 -0.20576378035E-03  0.25153446074E-03  0.79075691634E-04  0.17130000000E+03  0.17130000000E+03 0.  1.
      622    1    1    2    0    0 -0.26591416916E-02 -0.29300168899E-02  0.36461638744E+01  0.36462208730E+01  0.20000000000E-01 0.  1.
</event>
<event>
 5   0  0.3603037E+08  0.9118800E+02  0.7818608E-02  0.1180000E+00
       11   -1    0    0    0    0  0.00000000000E+00  0.00000000000E+00  0.39999999673E+01  0.40000000000E+01  0.51109989000E-03 0.  1.
     -623   -1    0    0    0    0  0.00000000000E+00  0.00000000000E+00  0.12525980253E-10  0.17130000000E+03  0.17130000000E+03 0.  1.
       11    1    1    2    0    0  0.54075234948E-02  0.10466799370E-01  0.30780485966E+00  0.30803066089E+00  0.51109989000E-03 0.  1.
     -623    1    1    2    0    0 -0.96063834113E-02 -0.12407675150E-01  0.28355746167E-03  0.17130000072E+03  0.17130000000E+03 0.  1.
      622    1    1    2    0    0  0.41988599165E-02  0.19408757796E-02  0.36919115502E+01  0.36919686202E+01  0.20000000000E-01 0.  1.
</event>
<event>
 5   0  0.3603037E+08  0.9118800E+02  0.7818608E-02  0.1180000E+00
       11   -1    0    0    0    0  0.00000000000E+00  0.00000000000E+00  0.39999999673E+01  0.40000000000E+01  0.51109989000E-03 0.  1.
     -623   -1    0    0    0    0  0.00000000000E+00  0.00000000000E+00  0.12525980253E-10  0.17130000000E+03  0.17130000000E+03 0.  1.
       11    1    1    2    0    0  0.26767912598E-02  0.27787314638E-02  0.35162444622E+00  0.35164598528E+00  0.51109989000E-03 0.  1.
     -623    1    1    2    0    0 -0.76304676716E-03 -0.47361361853E-03  0.77558602201E-04  0.17130000000E+03  0.17130000000E+03 0.  1.
      622    1    1    2    0    0 -0.19137444926E-02 -0.23051178453E-02  0.36482979625E+01  0.36483540124E+01  0.20000000000E-01 0.  1.
</event>
<event>
 5   0  0.3603037E+08  0.9118800E+02  0.7818608E-02  0.1180000E+00
       11   -1    0    0    0    0  0.00000000000E+00  0.00000000000E+00  0.39999999673E+01  0.40000000000E+01  0.51109989000E-03 0. -1.
     -623   -1    0    0    0    0  0.00000000000E+00  0.00000000000E+00  0.12525980253E-10  0.17130000000E+03  0.17130000000E+03 0.  1.
       11    1    1    2    0    0  0.14874624196E-01  0.53616943022E-02  0.28242512144E+00  0.28286783602E+00  0.51109989000E-03 0. -1.
     -623    1    1    2    0    0 -0.17957202450E-02 -0.36922481691E-02  0.51992191343E-03  0.17130000005E+03  0.17130000000E+03 0.  1.
      622    1    1    2    0    0 -0.13078903951E-01 -0.16694461331E-02  0.37170549240E+01  0.37171321140E+01  0.20000000000E-01 0. -1.
</event>
<event>
 5   0  0.3603037E+08  0.9118800E+02  0.7818608E-02  0.1180000E+00
       11   -1    0    0    0    0  0.00000000000E+00  0.00000000000E+00  0.39999999673E+01  0.40000000000E+01  0.51109989000E-03 0. -1.
     -623   -1    0    0    0    0  0.00000000000E+00  0.00000000000E+00  0.12525980253E-10  0.17130000000E+03  0.17130000000E+03 0.  1.
       11    1    1    2    0    0 -0.11895902630E-01 -0.95422755046E-02  0.17275218182E+00  0.17342475333E+00  0.51109989000E-03 0. -1.
     -623    1    1    2    0    0  0.11905087582E-01  0.16588920197E-01  0.73251211473E-03  0.17130000122E+03  0.17130000000E+03 0.  1.
      622    1    1    2    0    0 -0.91849520329E-05 -0.70466446924E-02  0.38265152734E+01  0.38265740282E+01  0.20000000000E-01 0. -1.
</event>
<event>
 5   0  0.3603037E+08  0.9118800E+02  0.7818608E-02  0.1180000E+00
       11   -1    0    0    0    0  0.00000000000E+00  0.00000000000E+00  0.39999999673E+01  0.40000000000E+01  0.51109989000E-03 0. -1.
     -623   -1    0    0    0    0  0.00000000000E+00  0.00000000000E+00  0.12525980253E-10  0.17130000000E+03  0.17130000000E+03 0.  1.
       11    1    1    2    0    0 -0.21405736361E-03 -0.32451143762E-03  0.49068000896E-01  0.49072202545E-01  0.51109989000E-03 0. -1.
     -623    1    1    2    0    0 -0.45323360798E-04 -0.21451076118E-03  0.54835788614E-04  0.17130000000E+03  0.17130000000E+03 0.  1.
      622    1    1    2    0    0  0.25938072441E-03  0.53902219880E-03  0.39508771307E+01  0.39509277973E+01  0.20000000000E-01 0. -1.
</event>
<event>
 5   0  0.3603037E+08  0.9118800E+02  0.7818608E-02  0.1180000E+00
       11   -1    0    0    0    0  0.00000000000E+00  0.00000000000E+00  0.39999999673E+01  0.40000000000E+01  0.51109989000E-03 0. -1.
     -623   -1    0    0    0    0  0.00000000000E+00  0.00000000000E+00  0.12525980253E-10  0.17130000000E+03  0.17130000000E+03 0.  1.
       11    1    1    2    0    0 -0.70796787822E-02  0.87798236632E-02  0.88785124139E+00  0.88792302324E+00  0.51109989000E-03 0. -1.
     -623    1    1    2    0    0  0.19454960170E-02  0.14560451388E-02  0.15710183925E-03  0.17130000002E+03  0.17130000000E+03 0.  1.
      622    1    1    2    0    0  0.51341827653E-02 -0.10235868802E-01  0.31119916241E+01  0.31120769594E+01  0.20000000000E-01 0. -1.
</event>
<event>
 5   0  0.3603037E+08  0.9118800E+02  0.7818608E-02  0.1180000E+00
       11   -1    0    0    0    0  0.00000000000E+00  0.00000000000E+00  0.39999999673E+01  0.40000000000E+01  0.51109989000E-03 0. -1.
     -623   -1    0    0    0    0  0.00000000000E+00  0.00000000000E+00  0.12525980253E-10  0.17130000000E+03  0.17130000000E+03 0.  1.
       11    1    1    2    0    0 -0.11890275423E-02  0.36464995538E-03  0.70230944410E+00  0.70231073126E+00  0.51109989000E-03 0. -1.
     -623    1    1    2    0    0  0.49008821917E-04 -0.29198894381E-03  0.62101735576E-04  0.17130000000E+03  0.17130000000E+03 0.  1.
      622    1    1    2    0    0  0.11400187203E-02 -0.72661011572E-04  0.32976284215E+01  0.32976892685E+01  0.20000000000E-01 0. -1.
</event>
<event>
 5   0  0.3603037E+08  0.9118800E+02  0.7818608E-02  0.1180000E+00
       11   -1    0    0    0    0  0.00000000000E+00  0.00000000000E+00  0.39999999673E+01  0.40000000000E+01  0.51109989000E-03 0.  1.
     -623   -1    0    0    0    0  0.00000000000E+00  0.00000000000E+00  0.12525980253E-10  0.17130000000E+03  0.17130000000E+03 0. -1.
       11    1    1    2    0    0  0.60134235939E-03  0.72214334292E-05  0.34712709884E-01  0.34721680755E-01  0.51109989000E-03 0.  1.
     -623    1    1    2    0    0 -0.11009089895E-03  0.35052133481E-03  0.59423345659E-04  0.17130000000E+03  0.17130000000E+03 0. -1.
      622    1    1    2    0    0 -0.49125146044E-03 -0.35774276824E-03  0.39652278341E+01  0.39652783188E+01  0.20000000000E-01 0.  1.
</event>
<event>
 5   0  0.3603037E+08  0.9118800E+02  0.7818608E-02  0.1180000E+00
       11   -1    0    0    0    0  0.00000000000E+00  0.00000000000E+00  0.39999999673E+01  0.40000000000E+01  0.51109989000E-03 0.  1.
     -623   -1    0    0    0    0  0.00000000000E+00  0.00000000000E+00  0.12525980253E-10  0.17130000000E+03  0.17130000000E+03 0.  1.
       11    1    1    2    0    0 -0.66899030100E-02  0.59016983292E-02  0.36282039357E+00  0.36293041214E+00  0.51109989000E-03 0.  1.
     -623    1    1    2    0    0 -0.67138942822E-03 -0.54536513784E-03  0.17637177692E-03  0.17130000000E+03  0.17130000000E+03 0.  1.
      622    1    1    2    0    0  0.73612924383E-02 -0.53563331913E-02  0.36370032020E+01  0.36370695856E+01  0.20000000000E-01 0.  1.
</event>
<event>
 5   0  0.3603037E+08  0.9118800E+02  0.7818608E-02  0.1180000E+00
       11   -1    0    0    0    0  0.00000000000E+00  0.00000000000E+00  0.39999999673E+01  0.40000000000E+01  0.51109989000E-03 0.  1.
     -623   -1    0    0    0    0  0.00000000000E+00  0.00000000000E+00  0.12525980253E-10  0.17130000000E+03  0.17130000000E+03 0. -1.
       11    1    1    2    0    0 -0.12324802245E-02  0.31439175471E-02  0.89482284148E+00  0.89482935919E+00  0.51109989000E-03 0.  1.
     -623    1    1    2    0    0  0.11121594426E-03  0.23941710719E-04  0.72712883876E-04  0.17130000000E+03  0.17130000000E+03 0. -1.
      622    1    1    2    0    0  0.11212642802E-02 -0.31678592579E-02  0.31051044130E+01  0.31051706408E+01  0.20000000000E-01 0.  1.
</event>
<event>
 5   0  0.3603037E+08  0.9118800E+02  0.7818608E-02  0.1180000E+00
       11   -1    0    0    0    0  0.00000000000E+00  0.00000000000E+00  0.39999999673E+01  0.40000000000E+01  0.51109989000E-03 0.  1.
     -623   -1    0    0    0    0  0.00000000000E+00  0.00000000000E+00  0.12525980253E-10  0.17130000000E+03  0.17130000000E+03 0.  1.
       11    1    1    2    0    0  0.16463075829E-01 -0.17695376380E-02  0.20477463694E+01  0.20478133750E+01  0.51109989000E-03 0.  1.
     -623    1    1    2    0    0 -0.93790316018E-03 -0.48061676112E-03  0.23246296726E-03  0.17130000000E+03  0.17130000000E+03 0.  1.
      622    1    1    2    0    0 -0.15525172669E-01  0.22501543992E-02  0.19520211350E+01  0.19521866216E+01  0.20000000000E-01 0.  1.
</event>
<event>
 5   0  0.3603037E+08  0.9118800E+02  0.7818608E-02  0.1180000E+00
       11   -1    0    0    0    0  0.00000000000E+00  0.00000000000E+00  0.39999999673E+01  0.40000000000E+01  0.51109989000E-03 0.  1.
     -623   -1    0    0    0    0  0.00000000000E+00  0.00000000000E+00  0.12525980253E-10  0.17130000000E+03  0.17130000000E+03 0.  1.
       11    1    1    2    0    0 -0.36375264724E-01 -0.54599586090E-01  0.64300565072E+00  0.64634418290E+00  0.51109989000E-03 0.  1.
     -623    1    1    2    0    0  0.13020616802E-01  0.53621127555E-01  0.34885249210E-02  0.17130000892E+03  0.17130000000E+03 0.  1.
      622    1    1    2    0    0  0.23354647923E-01  0.97845853529E-03  0.33535057917E+01  0.33536468944E+01  0.20000000000E-01 0.  1.
</event>
<event>
 5   0  0.3603037E+08  0.9118800E+02  0.7818608E-02  0.1180000E+00
       11   -1    0    0    0    0  0.00000000000E+00  0.00000000000E+00  0.39999999673E+01  0.40000000000E+01  0.51109989000E-03 0. -1.
     -623   -1    0    0    0    0  0.00000000000E+00  0.00000000000E+00  0.12525980253E-10  0.17130000000E+03  0.17130000000E+03 0. -1.
       11    1    1    2    0    0  0.60764363821E-03  0.47328388653E-03  0.24863881944E-01  0.24881058556E-01  0.51109989000E-03 0.  1.
     -623    1    1    2    0    0 -0.32370879770E-03 -0.75964738003E-04  0.67487583554E-04  0.17130000000E+03  0.17130000000E+03 0. -1.
      622    1    1    2    0    0 -0.28393484051E-03 -0.39731914852E-03  0.39750685978E+01  0.39751189411E+01  0.20000000000E-01 0. -1.
</event>
<event>
 5   0  0.3603037E+08  0.9118800E+02  0.7818608E-02  0.1180000E+00
       11   -1    0    0    0    0  0.00000000000E+00  0.00000000000E+00  0.39999999673E+01  0.40000000000E+01  0.51109989000E-03 0. -1.
     -623   -1    0    0    0    0  0.00000000000E+00  0.00000000000E+00  0.12525980253E-10  0.17130000000E+03  0.17130000000E+03 0. -1.
       11    1    1    2    0    0  0.78669245413E-04 -0.55464715046E-03  0.15494952512E-01  0.15513497278E-01  0.51109989000E-03 0. -1.
     -623    1    1    2    0    0 -0.25240433411E-03 -0.14549663263E-03  0.68772678877E-04  0.17130000000E+03  0.17130000000E+03 0. -1.
      622    1    1    2    0    0  0.17373508869E-03  0.70014378309E-03  0.39844362422E+01  0.39844865025E+01  0.20000000000E-01 0. -1.
</event>
<event>
 5   0  0.3603037E+08  0.9118800E+02  0.7818608E-02  0.1180000E+00
       11   -1    0    0    0    0  0.00000000000E+00  0.00000000000E+00  0.39999999673E+01  0.40000000000E+01  0.51109989000E-03 0. -1.
     -623   -1    0    0    0    0  0.00000000000E+00  0.00000000000E+00  0.12525980253E-10  0.17130000000E+03  0.17130000000E+03 0. -1.
       11    1    1    2    0    0 -0.52434494208E-03 -0.11551812433E-02  0.29576988093E-01  0.29608593788E-01  0.51109989000E-03 0. -1.
     -623    1    1    2    0    0  0.19774280489E-03 -0.19319675143E-03  0.82188881024E-04  0.17130000000E+03  0.17130000000E+03 0. -1.
      622    1    1    2    0    0  0.32660213719E-03  0.13483779948E-02  0.39703407904E+01  0.39703914060E+01  0.20000000000E-01 0. -1.
</event>
<event>
 5   0  0.3603037E+08  0.9118800E+02  0.7818608E-02  0.1180000E+00
       11   -1    0    0    0    0  0.00000000000E+00  0.00000000000E+00  0.39999999673E+01  0.40000000000E+01  0.51109989000E-03 0.  1.
     -623   -1    0    0    0    0  0.00000000000E+00  0.00000000000E+00  0.12525980253E-10  0.17130000000E+03  0.17130000000E+03 0. -1.
       11    1    1    2    0    0  0.62935108576E-03  0.92949125149E-04  0.13738573282E+00  0.13738815643E+00  0.51109989000E-03 0.  1.
     -623    1    1    2    0    0 -0.27723793473E-03  0.15753602108E-03  0.54194224409E-04  0.17130000000E+03  0.17130000000E+03 0. -1.
      622    1    1    2    0    0 -0.35211315103E-03 -0.25048514623E-03  0.38625600403E+01  0.38626118433E+01  0.20000000000E-01 0.  1.
</event>
<event>
 5   0  0.3603037E+08  0.9118800E+02  0.7818608E-02  0.1180000E+00
       11   -1    0    0    0    0  0.00000000000E+00  0.00000000000E+00  0.39999999673E+01  0.40000000000E+01  0.51109989000E-03 0. -1.
     -623   -1    0    0    0    0  0.00000000000E+00  0.00000000000E+00  0.12525980253E-10  0.17130000000E+03  0.17130000000E+03 0.  1.
       11    1    1    2    0    0  0.10756679365E-01 -0.13543386813E-01  0.70565092049E+00  0.70586302658E+00  0.51109989000E-03 0. -1.
     -623    1    1    2    0    0 -0.31623530581E-02 -0.10176055759E-02  0.31375724827E-03  0.17130000003E+03  0.17130000000E+03 0.  1.
      622    1    1    2    0    0 -0.75943263065E-02  0.14560992389E-01  0.32940352896E+01  0.32941369409E+01  0.20000000000E-01 0. -1.
</event>
<event>
 5   0  0.3603037E+08  0.9118800E+02  0.7818608E-02  0.1180000E+00
       11   -1    0    0    0    0  0.00000000000E+00  0.00000000000E+00  0.39999999673E+01  0.40000000000E+01  0.51109989000E-03 0.  1.
     -623   -1    0    0    0    0  0.00000000000E+00  0.00000000000E+00  0.12525980253E-10  0.17130000000E+03  0.17130000000E+03 0. -1.
       11    1    1    2    0    0 -0.51075941101E-03 -0.21197147578E-02  0.30656190174E+00  0.30657008153E+00  0.51109989000E-03 0.  1.
     -623    1    1    2    0    0  0.60415154653E-03 -0.42879918592E-03  0.63179812406E-04  0.17130000000E+03  0.17130000000E+03 0. -1.
      622    1    1    2    0    0 -0.93392135513E-04  0.25485139437E-02  0.36933748858E+01  0.36934299169E+01  0.20000000000E-01 0.  1.
</event>
<event>
 5   0  0.3603037E+08  0.9118800E+02  0.7818608E-02  0.1180000E+00
       11   -1    0    0    0    0  0.00000000000E+00  0.00000000000E+00  0.39999999673E+01  0.40000000000E+01  0.51109989000E-03 0. -1.
     -623   -1    0    0    0    0  0.00000000000E+00  0.00000000000E+00  0.12525980253E-10  0.17130000000E+03  0.17130000000E+03 0.  1.
       11    1    1    2    0    0  0.20173032509E-02  0.26668813708E-02  0.11586773793E+00  0.11591710696E+00  0.51109989000E-03 0. -1.
     -623    1    1    2    0    0 -0.15789924144E-03 -0.96244960192E-03  0.10165079089E-03  0.17130000000E+03  0.17130000000E+03 0.  1.
      622    1    1    2    0    0 -0.18594040094E-02 -0.17044317689E-02  0.38840305786E+01  0.38840828902E+01  0.20000000000E-01 0. -1.
</event>
<event>
 5   0  0.3603037E+08  0.9118800E+02  0.7818608E-02  0.1180000E+00
       11   -1    0    0    0    0  0.00000000000E+00  0.00000000000E+00  0.39999999673E+01  0.40000000000E+01  0.51109989000E-03 0. -1.
     -623   -1    0    0    0    0  0.00000000000E+00  0.00000000000E+00  0.12525980253E-10  0.17130000000E+03  0.17130000000E+03 0.  1.
       11    1    1    2    0    0 -0.34785007669E-02 -0.14226101696E-02  0.30629777023E+00  0.30632125140E+00  0.51109989000E-03 0. -1.
     -623    1    1    2    0    0  0.48568146744E-03  0.44138249796E-03  0.78939581269E-04  0.17130000000E+03  0.17130000000E+03 0.  1.
      622    1    1    2    0    0  0.29928192994E-02  0.98122767167E-03  0.36936232575E+01  0.36936787473E+01  0.20000000000E-01 0.  0.
</event>
<event>
 5   0  0.3603037E+08  0.9118800E+02  0.7818608E-02  0.1180000E+00
       11   -1    0    0    0    0  0.00000000000E+00  0.00000000000E+00  0.39999999673E+01  0.40000000000E+01  0.51109989000E-03 0. -1.
     -623   -1    0    0    0    0  0.00000000000E+00  0.00000000000E+00  0.12525980253E-10  0.17130000000E+03  0.17130000000E+03 0. -1.
       11    1    1    2    0    0  0.78081946109E-02  0.17694832130E-01  0.52642325812E+00  0.52677868493E+00  0.51109989000E-03 0. -1.
     -623    1    1    2    0    0  0.65043217952E-02 -0.27277346270E-02  0.47486390102E-03  0.17130000015E+03  0.17130000000E+03 0. -1.
      622    1    1    2    0    0 -0.14312516406E-01 -0.14967097503E-01  0.34731018453E+01  0.34732211692E+01  0.20000000000E-01 0. -1.
</event>
<event>
 5   0  0.3603037E+08  0.9118800E+02  0.7818608E-02  0.1180000E+00
       11   -1    0    0    0    0  0.00000000000E+00  0.00000000000E+00  0.39999999673E+01  0.40000000000E+01  0.51109989000E-03 0. -1.
     -623   -1    0    0    0    0  0.00000000000E+00  0.00000000000E+00  0.12525980253E-10  0.17130000000E+03  0.17130000000E+03 0.  1.
       11    1    1    2    0    0 -0.12833579678E-01 -0.80221999121E-03  0.61021175976E+00  0.61034743982E+00  0.51109989000E-03 0. -1.
     -623    1    1    2    0    0  0.79191122695E-03 -0.48217375995E-03  0.21628634510E-03  0.17130000000E+03  0.17130000000E+03 0.  1.
      622    1    1    2    0    0  0.12041668451E-01  0.12843937512E-02  0.33895719213E+01  0.33896525575E+01  0.20000000000E-01 0. -1.
</event>
<event>
 5   0  0.3603037E+08  0.9118800E+02  0.7818608E-02  0.1180000E+00
       11   -1    0    0    0    0  0.00000000000E+00  0.00000000000E+00  0.39999999673E+01  0.40000000000E+01  0.51109989000E-03 0.  1.
     -623   -1    0    0    0    0  0.00000000000E+00  0.00000000000E+00  0.12525980253E-10  0.17130000000E+03  0.17130000000E+03 0.  1.
       11    1    1    2    0    0  0.15260254435E-01  0.25538004947E-02  0.21272320973E+01  0.21272884276E+01  0.51109989000E-03 0.  1.
     -623    1    1    2    0    0  0.72254669913E-03 -0.11758100085E-02  0.23181883345E-03  0.17130000001E+03  0.17130000000E+03 0.  1.
      622    1    1    2    0    0 -0.15982801135E-01 -0.13779904862E-02  0.18725360512E+01  0.18727115667E+01  0.20000000000E-01 0.  1.
</event>
<event>
 5   0  0.3603037E+08  0.9118800E+02  0.7818608E-02  0.1180000E+00
       11   -1    0    0    0    0  0.00000000000E+00  0.00000000000E+00  0.39999999673E+01  0.40000000000E+01  0.51109989000E-03 0.  1.
     -623   -1    0    0    0    0  0.00000000000E+00  0.00000000000E+00  0.12525980253E-10  0.17130000000E+03  0.17130000000E+03 0. -1.
       11    1    1    2    0    0 -0.23300556639E-02  0.92177585037E-03  0.20368324227E-01  0.20528241121E-01  0.51109989000E-03 0.  1.
     -623    1    1    2    0    0  0.22504896444E-03  0.81151354462E-03  0.21107892323E-03  0.17130000000E+03  0.17130000000E+03 0. -1.
      622    1    1    2    0    0  0.21050066994E-02 -0.17332893950E-02  0.39794205642E+01  0.39794717567E+01  0.20000000000E-01 0.  1.
</event>
<event>
 5   0  0.3603037E+08  0.9118800E+02  0.7818608E-02  0.1180000E+00
       11   -1    0    0    0    0  0.00000000000E+00  0.00000000000E+00  0.39999999673E+01  0.40000000000E+01  0.51109989000E-03 0.  1.
     -623   -1    0    0    0    0  0.00000000000E+00  0.00000000000E+00  0.12525980253E-10  0.17130000000E+03  0.17130000000E+03 0.  1.
       11    1    1    2    0    0  0.41477229633E-03 -0.35988709465E-03  0.11853201300E-01  0.11876916969E-01  0.51109989000E-03 0.  1.
     -623    1    1    2    0    0 -0.17329410253E-02  0.50978595067E-03  0.74062450726E-04  0.17130000001E+03  0.17130000000E+03 0.  1.
      622    1    1    2    0    0  0.13181687290E-02 -0.14989885603E-03  0.39880727036E+01  0.39881230735E+01  0.20000000000E-01 0.  1.
</event>
<event>
 5   0  0.3603037E+08  0.9118800E+02  0.7818608E-02  0.1180000E+00
       11   -1    0    0    0    0  0.00000000000E+00  0.00000000000E+00  0.39999999673E+01  0.40000000000E+01  0.51109989000E-03 0.  1.
     -623   -1    0    0    0    0  0.00000000000E+00  0.00000000000E+00  0.12525980253E-10  0.17130000000E+03  0.17130000000E+03 0.  1.
       11    1    1    2    0    0  0.26596533184E-01  0.24459634172E-01  0.10728602264E+01  0.10734686656E+01  0.51109989000E-03 0.  1.
     -623    1    1    2    0    0 -0.17309050552E-02 -0.51475855460E-02  0.84620120919E-03  0.17130000009E+03  0.17130000000E+03 0.  1.
      622    1    1    2    0    0 -0.24865628129E-01 -0.19312048626E-01  0.29262935397E+01  0.29265312463E+01  0.20000000000E-01 0.  1.
</event>
<event>
 5   0  0.3603037E+08  0.9118800E+02  0.7818608E-02  0.1180000E+00
       11   -1    0    0    0    0  0.00000000000E+00  0.00000000000E+00  0.39999999673E+01  0.40000000000E+01  0.51109989000E-03 0. -1.
     -623   -1    0    0    0    0  0.00000000000E+00  0.00000000000E+00  0.12525980253E-10  0.17130000000E+03  0.17130000000E+03 0.  1.
       11    1    1    2    0    0 -0.89878952577E-03 -0.66884456318E-03  0.11133187820E-01  0.11201083371E-01  0.51109989000E-03 0. -1.
     -623    1    1    2    0    0  0.40649808121E-03 -0.97743082898E-03  0.11837705698E-03  0.17130000000E+03  0.17130000000E+03 0.  1.
      622    1    1    2    0    0  0.49229144456E-03  0.16462753922E-02  0.39887484025E+01  0.39887989133E+01  0.20000000000E-01 0. -1.
</event>
<event>
 5   0  0.3603037E+08  0.9118800E+02  0.7818608E-02  0.1180000E+00
       11   -1    0    0    0    0  0.00000000000E+00  0.00000000000E+00  0.39999999673E+01  0.40000000000E+01  0.51109989000E-03 0.  1.
     -623   -1    0    0    0    0  0.00000000000E+00  0.00000000000E+00  0.12525980253E-10  0.17130000000E+03  0.17130000000E+03 0.  1.
       11    1    1    2    0    0 -0.47208786518E-02 -0.14620000855E-02  0.28500799405E-01  0.28930622646E-01  0.51109989000E-03 0. -1.
     -623    1    1    2    0    0 -0.13651895862E-02  0.12195377449E-03  0.48505128376E-03  0.17130000001E+03  0.17130000000E+03 0.  1.
      622    1    1    2    0    0  0.60860682380E-02  0.13400463110E-02  0.39710141167E+01  0.39710693712E+01  0.20000000000E-01 0.  1.
</event>
<event>
 5   0  0.3603037E+08  0.9118800E+02  0.7818608E-02  0.1180000E+00
       11   -1    0    0    0    0  0.00000000000E+00  0.00000000000E+00  0.39999999673E+01  0.40000000000E+01  0.51109989000E-03 0. -1.
     -623   -1    0    0    0    0  0.00000000000E+00  0.00000000000E+00  0.12525980253E-10  0.17130000000E+03  0.17130000000E+03 0.  1.
       11    1    1    2    0    0  0.20779604457E-01 -0.49391835402E-03  0.18930422055E+01  0.18931563826E+01  0.51109989000E-03 0. -1.
     -623    1    1    2    0    0 -0.61097121004E-02  0.86014962233E-02  0.27607739782E-03  0.17130000033E+03  0.17130000000E+03 0.  1.
      622    1    1    2    0    0 -0.14669892357E-01 -0.81075778693E-02  0.21066816845E+01  0.21068432923E+01  0.20000000000E-01 0.  0.
</event>
<event>
 5   0  0.3603037E+08  0.9118800E+02  0.7818608E-02  0.1180000E+00
       11   -1    0    0    0    0  0.00000000000E+00  0.00000000000E+00  0.39999999673E+01  0.40000000000E+01  0.51109989000E-03 0. -1.
     -623   -1    0    0    0    0  0.00000000000E+00  0.00000000000E+00  0.12525980253E-10  0.17130000000E+03  0.17130000000E+03 0. -1.
       11    1    1    2    0    0 -0.33386269201E-01  0.17949244390E-01  0.33635161522E+00  0.33848114959E+00  0.51109989000E-03 0. -1.
     -623    1    1    2    0    0  0.16047380494E-01  0.50664163568E-02  0.22983595554E-02  0.17130000084E+03  0.17130000000E+03 0. -1.
      622    1    1    2    0    0  0.17338888707E-01 -0.23015660747E-01  0.36613499926E+01  0.36615180084E+01  0.20000000000E-01 0. -1.
</event>
<event>
 5   0  0.3603037E+08  0.9118800E+02  0.7818608E-02  0.1180000E+00
       11   -1    0    0    0    0  0.00000000000E+00  0.00000000000E+00  0.39999999673E+01  0.40000000000E+01  0.51109989000E-03 0. -1.
     -623   -1    0    0    0    0  0.00000000000E+00  0.00000000000E+00  0.12525980253E-10  0.17130000000E+03  0.17130000000E+03 0. -1.
       11    1    1    2    0    0  0.11579157626E-02  0.13700189335E-02  0.91946922390E-01  0.91965838658E-01  0.51109989000E-03 0. -1.
     -623    1    1    2    0    0 -0.10196214742E-03 -0.40401994851E-03  0.70323161931E-04  0.17130000000E+03  0.17130000000E+03 0. -1.
      622    1    1    2    0    0 -0.10559536151E-02 -0.96599898502E-03  0.39079827218E+01  0.39080341608E+01  0.20000000000E-01 0. -1.
</event>
<event>
 5   0  0.3603037E+08  0.9118800E+02  0.7818608E-02  0.1180000E+00
       11   -1    0    0    0    0  0.00000000000E+00  0.00000000000E+00  0.39999999673E+01  0.40000000000E+01  0.51109989000E-03 0. -1.
     -623   -1    0    0    0    0  0.00000000000E+00  0.00000000000E+00  0.12525980253E-10  0.17130000000E+03  0.17130000000E+03 0. -1.
       11    1    1    2    0    0  0.18052036414E-02  0.12569879873E-02  0.29482962384E-01  0.29569326509E-01  0.51109989000E-03 0. -1.
     -623    1    1    2    0    0  0.21068283688E-02  0.75491766529E-03  0.13915586673E-03  0.17130000001E+03  0.17130000000E+03 0. -1.
      622    1    1    2    0    0 -0.39120320102E-02 -0.20119056525E-02  0.39703778491E+01  0.39704306588E+01  0.20000000000E-01 0. -1.
</event>
<event>
 5   0  0.3603037E+08  0.9118800E+02  0.7818608E-02  0.1180000E+00
       11   -1    0    0    0    0  0.00000000000E+00  0.00000000000E+00  0.39999999673E+01  0.40000000000E+01  0.51109989000E-03 0.  1.
     -623   -1    0    0    0    0  0.00000000000E+00  0.00000000000E+00  0.12525980253E-10  0.17130000000E+03  0.17130000000E+03 0. -1.
       11    1    1    2    0    0  0.10119876203E-02 -0.23680421710E-02  0.54469187958E+00  0.54469820694E+00  0.51109989000E-03 0.  1.
     -623    1    1    2    0    0  0.34184557357E-03  0.12267013643E-03  0.65172468303E-04  0.17130000000E+03  0.17130000000E+03 0. -1.
      622    1    1    2    0    0 -0.13538331939E-02  0.22453720345E-02  0.34552429153E+01  0.34553017927E+01  0.20000000000E-01 0.  1.
</event>
<event>
 5   0  0.3603037E+08  0.9118800E+02  0.7818608E-02  0.1180000E+00
       11   -1    0    0    0    0  0.00000000000E+00  0.00000000000E+00  0.39999999673E+01  0.40000000000E+01  0.51109989000E-03 0.  1.
     -623   -1    0    0    0    0  0.00000000000E+00  0.00000000000E+00  0.12525980253E-10  0.17130000000E+03  0.17130000000E+03 0. -1.
       11    1    1    2    0    0  0.49540005221E-02  0.59201526041E-02  0.25771116133E+01  0.25771232254E+01  0.51109989000E-03 0.  1.
     -623    1    1    2    0    0 -0.11264597503E-02  0.15051835846E-03  0.17025071600E-03  0.17130000000E+03  0.17130000000E+03 0. -1.
      622    1    1    2    0    0 -0.38275407718E-02 -0.60706709626E-02  0.14227181034E+01  0.14228767708E+01  0.20000000000E-01 0.  0.
</event>
<event>
 5   0  0.3603037E+08  0.9118800E+02  0.7818608E-02  0.1180000E+00
       11   -1    0    0    0    0  0.00000000000E+00  0.00000000000E+00  0.39999999673E+01  0.40000000000E+01  0.51109989000E-03 0. -1.
     -623   -1    0    0    0    0  0.00000000000E+00  0.00000000000E+00  0.12525980253E-10  0.17130000000E+03  0.17130000000E+03 0. -1.
       11    1    1    2    0    0  0.45692108197E-02 -0.13186165886E-01  0.18600633730E-02  0.14088070007E-01  0.51109989000E-03 0. -1.
     -623    1    1    2    0    0 -0.84489977544E-02  0.13187136702E-01  0.12281195515E-01  0.17130000116E+03  0.17130000000E+03 0. -1.
      622    1    1    2    0    0  0.38797869347E-02 -0.97081632725E-06  0.39858587085E+01  0.39859107738E+01  0.20000000000E-01 0. -1.
</event>
<event>
 5   0  0.3603037E+08  0.9118800E+02  0.7818608E-02  0.1180000E+00
       11   -1    0    0    0    0  0.00000000000E+00  0.00000000000E+00  0.39999999673E+01  0.40000000000E+01  0.51109989000E-03 0.  1.
     -623   -1    0    0    0    0  0.00000000000E+00  0.00000000000E+00  0.12525980253E-10  0.17130000000E+03  0.17130000000E+03 0. -1.
       11    1    1    2    0    0 -0.86257477405E-02  0.61775501332E-02  0.35632002067E+01  0.35632160389E+01  0.51109989000E-03 0.  1.
     -623    1    1    2    0    0  0.64372602189E-02 -0.11978451633E-01  0.51852506457E-03  0.17130000054E+03  0.17130000000E+03 0. -1.
      622    1    1    2    0    0  0.21884875216E-02  0.58009015001E-02  0.43628123555E+00  0.43678342051E+00  0.20000000000E-01 0.  1.
</event>
<event>
 5   0  0.3603037E+08  0.9118800E+02  0.7818608E-02  0.1180000E+00
       11   -1    0    0    0    0  0.00000000000E+00  0.00000000000E+00  0.39999999673E+01  0.40000000000E+01  0.51109989000E-03 0.  1.
     -623   -1    0    0    0    0  0.00000000000E+00  0.00000000000E+00  0.12525980253E-10  0.17130000000E+03  0.17130000000E+03 0.  1.
       11    1    1    2    0    0  0.57872870091E-02 -0.31739807029E-02  0.65257789104E+00  0.65261147090E+00  0.51109989000E-03 0.  1.
     -623    1    1    2    0    0  0.44594235172E-03  0.22278924498E-02  0.99248222917E-04  0.17130000002E+03  0.17130000000E+03 0.  1.
      622    1    1    2    0    0 -0.62332293608E-02  0.94608825317E-03  0.33473228281E+01  0.33473885140E+01  0.20000000000E-01 0.  1.
</event>
<event>
 5   0  0.3603037E+08  0.9118800E+02  0.7818608E-02  0.1180000E+00
       11   -1    0    0    0    0  0.00000000000E+00  0.00000000000E+00  0.39999999673E+01  0.40000000000E+01  0.51109989000E-03 0. -1.
     -623   -1    0    0    0    0  0.00000000000E+00  0.00000000000E+00  0.12525980253E-10  0.17130000000E+03  0.17130000000E+03 0. -1.
       11    1    1    2    0    0  0.48913393869E-02  0.49707497904E-02  0.59723636419E-01  0.60131585064E-01  0.51109989000E-03 0. -1.
     -623    1    1    2    0    0 -0.38438765337E-02  0.36583719376E-03  0.46247710950E-03  0.17130000004E+03  0.17130000000E+03 0. -1.
      622    1    1    2    0    0 -0.10474628532E-02 -0.53365869842E-02  0.39398138538E+01  0.39398683708E+01  0.20000000000E-01 0. -1.
</event>
<event>
 5   0  0.3603037E+08  0.9118800E+02  0.7818608E-02  0.1180000E+00
       11   -1    0    0    0    0  0.00000000000E+00  0.00000000000E+00  0.39999999673E+01  0.40000000000E+01  0.51109989000E-03 0. -1.
     -623   -1    0    0    0    0  0.00000000000E+00  0.00000000000E+00  0.12525980253E-10  0.17130000000E+03  0.17130000000E+03 0. -1.
       11    1    1    2    0    0 -0.89509043631E-03 -0.34556238077E-03  0.12700580127E-01  0.12747021500E-01  0.51109989000E-03 0. -1.
     -623    1    1    2    0    0  0.18124048804E-02  0.46918437631E-03  0.96686590679E-04  0.17130000001E+03  0.17130000000E+03 0. -1.
      622    1    1    2    0    0 -0.91731444406E-03 -0.12362199554E-03  0.39872027006E+01  0.39872529682E+01  0.20000000000E-01 0. -1.
</event>
<event>
 5   0  0.3603037E+08  0.9118800E+02  0.7818608E-02  0.1180000E+00
       11   -1    0    0    0    0  0.00000000000E+00  0.00000000000E+00  0.39999999673E+01  0.40000000000E+01  0.51109989000E-03 0. -1.
     -623   -1    0    0    0    0  0.00000000000E+00  0.00000000000E+00  0.12525980253E-10  0.17130000000E+03  0.17130000000E+03 0.  1.
       11    1    1    2    0    0  0.43661307374E-03 -0.45813023938E-02  0.22785397632E+00  0.22790101954E+00  0.51109989000E-03 0. -1.
     -623    1    1    2    0    0 -0.45185799081E-02 -0.84181392023E-03  0.10620065211E-03  0.17130000006E+03  0.17130000000E+03 0.  1.
      622    1    1    2    0    0  0.40819668344E-02  0.54231163140E-02  0.37720397904E+01  0.37720989188E+01  0.20000000000E-01 0. -1.
</event>
<event>
 5   0  0.3603037E+08  0.9118800E+02  0.7818608E-02  0.1180000E+00
       11   -1    0    0    0    0  0.00000000000E+00  0.00000000000E+00  0.39999999673E+01  0.40000000000E+01  0.51109989000E-03 0.  1.
     -623   -1    0    0    0    0  0.00000000000E+00  0.00000000000E+00  0.12525980253E-10  0.17130000000E+03  0.17130000000E+03 0.  1.
       11    1    1    2    0    0  0.18109378150E-03 -0.55014967669E-02  0.17456703066E+00  0.17465454095E+00  0.51109989000E-03 0.  1.
     -623    1    1    2    0    0  0.80489839189E-03 -0.17136859603E-05  0.14384845865E-03  0.17130000000E+03  0.17130000000E+03 0.  1.
      622    1    1    2    0    0 -0.98599217339E-03  0.55032104529E-02  0.38252890882E+01  0.38253454571E+01  0.20000000000E-01 0.  1.
</event>
<event>
 5   0  0.3603037E+08  0.9118800E+02  0.7818608E-02  0.1180000E+00
       11   -1    0    0    0    0  0.00000000000E+00  0.00000000000E+00  0.39999999673E+01  0.40000000000E+01  0.51109989000E-03 0.  1.
     -623   -1    0    0    0    0  0.00000000000E+00  0.00000000000E+00  0.12525980253E-10  0.17130000000E+03  0.17130000000E+03 0.  1.
       11    1    1    2    0    0  0.21435565382E-01  0.41518455767E-02  0.80419446857E-01  0.83332286291E-01  0.51109989000E-03 0.  1.
     -623    1    1    2    0    0 -0.30677612302E-02  0.50595924890E-02  0.30179020767E-02  0.17130000013E+03  0.17130000000E+03 0.  1.
      622    1    1    2    0    0 -0.18367804151E-01 -0.92114380657E-02  0.39165626184E+01  0.39166675849E+01  0.20000000000E-01 0.  1.
</event>
<event>
 5   0  0.3603037E+08  0.9118800E+02  0.7818608E-02  0.1180000E+00
       11   -1    0    0    0    0  0.00000000000E+00  0.00000000000E+00  0.39999999673E+01  0.40000000000E+01  0.51109989000E-03 0. -1.
     -623   -1    0    0    0    0  0.00000000000E+00  0.00000000000E+00  0.12525980253E-10  0.17130000000E+03  0.17130000000E+03 0.  1.
       11    1    1    2    0    0  0.11209858510E-01 -0.14641105547E-01  0.19323555991E+01  0.19324436461E+01  0.51109989000E-03 0. -1.
     -623    1    1    2    0    0 -0.52993862858E-02 -0.19841068898E-01  0.48200668631E-03  0.17130000123E+03  0.17130000000E+03 0.  1.
      622    1    1    2    0    0 -0.59104722238E-02  0.34482174445E-01  0.20671623616E+01  0.20675551222E+01  0.20000000000E-01 0. -1.
</event>
<event>
 5   0  0.3603037E+08  0.9118800E+02  0.7818608E-02  0.1180000E+00
       11   -1    0    0    0    0  0.00000000000E+00  0.00000000000E+00  0.39999999673E+01  0.40000000000E+01  0.51109989000E-03 0. -1.
     -623   -1    0    0    0    0  0.00000000000E+00  0.00000000000E+00  0.12525980253E-10  0.17130000000E+03  0.17130000000E+03 0. -1.
       11    1    1    2    0    0  0.41287811558E-03 -0.73672322712E-03  0.10167108126E+00  0.10167587331E+00  0.51109989000E-03 0. -1.
     -623    1    1    2    0    0  0.13204930935E-02  0.37442807586E-02  0.57655424564E-04  0.17130000005E+03  0.17130000000E+03 0. -1.
      622    1    1    2    0    0 -0.17333712091E-02 -0.30075575315E-02  0.38982712307E+01  0.38983240807E+01  0.20000000000E-01 0. -1.
</event>
<event>
 5   0  0.3603037E+08  0.9118800E+02  0.7818608E-02  0.1180000E+00
       11   -1    0    0    0    0  0.00000000000E+00  0.00000000000E+00  0.39999999673E+01  0.40000000000E+01  0.51109989000E-03 0.  1.
     -623   -1    0    0    0    0  0.00000000000E+00  0.00000000000E+00  0.12525980253E-10  0.17130000000E+03  0.17130000000E+03 0.  1.
       11    1    1    2    0    0  0.27324496716E-02 -0.80182784908E-05  0.85052515732E+00  0.85052970013E+00  0.51109989000E-03 0.  1.
     -623    1    1    2    0    0  0.37324848056E-02  0.21398783104E-02  0.75424580698E-04  0.17130000005E+03  0.17130000000E+03 0.  1.
      622    1    1    2    0    0 -0.64649344772E-02 -0.21318600319E-02  0.31493993855E+01  0.31494702458E+01  0.20000000000E-01 0.  1.
</event>
<event>
 5   0  0.3603037E+08  0.9118800E+02  0.7818608E-02  0.1180000E+00
       11   -1    0    0    0    0  0.00000000000E+00  0.00000000000E+00  0.39999999673E+01  0.40000000000E+01  0.51109989000E-03 0.  1.
     -623   -1    0    0    0    0  0.00000000000E+00  0.00000000000E+00  0.12525980253E-10  0.17130000000E+03  0.17130000000E+03 0. -1.
       11    1    1    2    0    0 -0.53747924819E-02  0.27886319981E-02  0.90696782928E-01  0.90900123861E-01  0.51109989000E-03 0.  1.
     -623    1    1    2    0    0  0.56180041983E-02  0.44265758925E-02  0.26128720295E-03  0.17130000015E+03  0.17130000000E+03 0. -1.
      622    1    1    2    0    0 -0.24321171637E-03 -0.72152078905E-02  0.39090418972E+01  0.39090997266E+01  0.20000000000E-01 0.  1.
</event>
<event>
 5   0  0.3603037E+08  0.9118800E+02  0.7818608E-02  0.1180000E+00
       11   -1    0    0    0    0  0.00000000000E+00  0.00000000000E+00  0.39999999673E+01  0.40000000000E+01  0.51109989000E-03 0.  1.
     -623   -1    0    0    0    0  0.00000000000E+00  0.00000000000E+00  0.12525980253E-10  0.17130000000E+03  0.17130000000E+03 0.  1.
       11    1    1    2    0    0  0.15875722655E-02  0.42262826513E-03  0.51059697220E+00  0.51059987097E+00  0.51109989000E-03 0.  1.
     -623    1    1    2    0    0  0.40556935815E-04  0.91880491690E-03  0.60823221474E-04  0.17130000000E+03  0.17130000000E+03 0.  1.
      622    1    1    2    0    0 -0.16281292013E-02 -0.13414331820E-02  0.34893421719E+01  0.34894001265E+01  0.20000000000E-01 0.  1.
</event>
<event>
 5   0  0.3603037E+08  0.9118800E+02  0.7818608E-02  0.1180000E+00
       11   -1    0    0    0    0  0.00000000000E+00  0.00000000000E+00  0.39999999673E+01  0.40000000000E+01  0.51109989000E-03 0. -1.
     -623   -1    0    0    0    0  0.00000000000E+00  0.00000000000E+00  0.12525980253E-10  0.17130000000E+03  0.17130000000E+03 0.  1.
       11    1    1    2    0    0 -0.58143113729E-02  0.23424484467E-02  0.96839961930E+00  0.96842004170E+00  0.51109989000E-03 0. -1.
     -623    1    1    2    0    0  0.53611972695E-02 -0.83067459431E-02  0.92549054065E-04  0.17130000029E+03  0.17130000000E+03 0.  1.
      622    1    1    2    0    0  0.45311410332E-03  0.59642974964E-02  0.30315077990E+01  0.30315796730E+01  0.20000000000E-01 0. -1.
</event>
<event>
 5   0  0.3603037E+08  0.9118800E+02  0.7818608E-02  0.1180000E+00
       11   -1    0    0    0    0  0.00000000000E+00  0.00000000000E+00  0.39999999673E+01  0.40000000000E+01  0.51109989000E-03 0.  1.
     -623   -1    0    0    0    0  0.00000000000E+00  0.00000000000E+00  0.12525980253E-10  0.17130000000E+03  0.17130000000E+03 0. -1.
       11    1    1    2    0    0 -0.20174078585E-02 -0.32037008931E-02  0.84419792254E-01  0.84506190182E-01  0.51109989000E-03 0.  1.
     -623    1    1    2    0    0  0.62028014929E-03 -0.29342466917E-03  0.13925719377E-03  0.17130000000E+03  0.17130000000E+03 0. -1.
      622    1    1    2    0    0  0.13971277092E-02  0.34971255623E-02  0.39154409179E+01  0.39154938084E+01  0.20000000000E-01 0.  1.
</event>
<event>
 5   0  0.3603037E+08  0.9118800E+02  0.7818608E-02  0.1180000E+00
       11   -1    0    0    0    0  0.00000000000E+00  0.00000000000E+00  0.39999999673E+01  0.40000000000E+01  0.51109989000E-03 0.  1.
     -623   -1    0    0    0    0  0.00000000000E+00  0.00000000000E+00  0.12525980253E-10  0.17130000000E+03  0.17130000000E+03 0.  1.
       11    1    1    2    0    0 -0.23667764449E-02  0.28813531276E-02  0.26194711000E-01  0.26463709730E-01  0.51109989000E-03 0.  1.
     -623    1    1    2    0    0 -0.44777855546E-03 -0.32053938733E-03  0.32112260836E-03  0.17130000000E+03  0.17130000000E+03 0.  1.
      622    1    1    2    0    0  0.28145550004E-02 -0.25608137403E-02  0.39734841338E+01  0.39735362891E+01  0.20000000000E-01 0.  1.
</event>
<event>
 5   0  0.3603037E+08  0.9118800E+02  0.7818608E-02  0.1180000E+00
       11   -1    0    0    0    0  0.00000000000E+00  0.00000000000E+00  0.39999999673E+01  0.40000000000E+01  0.51109989000E-03 0. -1.
     -623   -1    0    0    0    0  0.00000000000E+00  0.00000000000E+00  0.12525980253E-10  0.17130000000E+03  0.17130000000E+03 0. -1.
       11    1    1    2    0    0  0.80855834049E-02  0.18541427527E-01  0.22796118726E+00  0.22885743447E+00  0.51109989000E-03 0. -1.
     -623    1    1    2    0    0  0.49598116203E-02 -0.45076234034E-02  0.99806051438E-03  0.17130000013E+03  0.17130000000E+03 0. -1.
      622    1    1    2    0    0 -0.13045395025E-01 -0.14033804124E-01  0.37710407196E+01  0.37711424315E+01  0.20000000000E-01 0. -1.
</event>
<event>
 5   0  0.3603037E+08  0.9118800E+02  0.7818608E-02  0.1180000E+00
       11   -1    0    0    0    0  0.00000000000E+00  0.00000000000E+00  0.39999999673E+01  0.40000000000E+01  0.51109989000E-03 0.  1.
     -623   -1    0    0    0    0  0.00000000000E+00  0.00000000000E+00  0.12525980253E-10  0.17130000000E+03  0.17130000000E+03 0.  1.
       11    1    1    2    0    0 -0.18933849395E-03  0.60144198510E-02  0.12814567639E+01  0.12814709938E+01  0.51109989000E-03 0.  1.
     -623    1    1    2    0    0  0.34176151815E-02 -0.78577761043E-03  0.94748635425E-04  0.17130000004E+03  0.17130000000E+03 0.  1.
      622    1    1    2    0    0 -0.32282766876E-02 -0.52286422405E-02  0.27184484549E+01  0.27185289703E+01  0.20000000000E-01 0.  1.
</event>
<event>
 5   0  0.3603037E+08  0.9118800E+02  0.7818608E-02  0.1180000E+00
       11   -1    0    0    0    0  0.00000000000E+00  0.00000000000E+00  0.39999999673E+01  0.40000000000E+01  0.51109989000E-03 0. -1.
     -623   -1    0    0    0    0  0.00000000000E+00  0.00000000000E+00  0.12525980253E-10  0.17130000000E+03  0.17130000000E+03 0. -1.
       11    1    1    2    0    0  0.18093254282E-01  0.32272396619E-02  0.34464554937E+00  0.34513562095E+00  0.51109989000E-03 0. -1.
     -623    1    1    2    0    0 -0.15017571588E-01 -0.11131119750E-01  0.55562242260E-03  0.17130000102E+03  0.17130000000E+03 0. -1.
      622    1    1    2    0    0 -0.30756826941E-02  0.79038800878E-02  0.36547987956E+01  0.36548633582E+01  0.20000000000E-01 0. -1.
</event>
<event>
 5   0  0.3603037E+08  0.9118800E+02  0.7818608E-02  0.1180000E+00
       11   -1    0    0    0    0  0.00000000000E+00  0.00000000000E+00  0.39999999673E+01  0.40000000000E+01  0.51109989000E-03 0. -1.
     -623   -1    0    0    0    0  0.00000000000E+00  0.00000000000E+00  0.12525980253E-10  0.17130000000E+03  0.17130000000E+03 0.  1.
       11    1    1    2    0    0 -0.75142403792E-02  0.44483268598E-01  0.18068026408E+01  0.18073658371E+01  0.51109989000E-03 0. -1.
     -623    1    1    2    0    0 -0.35957324272E-02 -0.17583073141E-01  0.84849746768E-03  0.17130000094E+03  0.17130000000E+03 0.  1.
      622    1    1    2    0    0  0.11109972806E-01 -0.26900195457E-01  0.21923488291E+01  0.21926332207E+01  0.20000000000E-01 0.  1.
</event>
<event>
 5   0  0.3603037E+08  0.9118800E+02  0.7818608E-02  0.1180000E+00
       11   -1    0    0    0    0  0.00000000000E+00  0.00000000000E+00  0.39999999673E+01  0.40000000000E+01  0.51109989000E-03 0. -1.
     -623   -1    0    0    0    0  0.00000000000E+00  0.00000000000E+00  0.12525980253E-10  0.17130000000E+03  0.17130000000E+03 0.  1.
       11    1    1    2    0    0  0.32617673139E-02 -0.19166016567E-01  0.48510716618E+00  0.48549685809E+00  0.51109989000E-03 0. -1.
     -623    1    1    2    0    0  0.91534285027E-03 -0.69174536434E-04  0.50169158599E-03  0.17130000000E+03  0.17130000000E+03 0.  1.
      622    1    1    2    0    0 -0.41771101642E-02  0.19235191103E-01  0.35143911096E+01  0.35145031387E+01  0.20000000000E-01 0. -1.
</event>
<event>
 5   0  0.3603037E+08  0.9118800E+02  0.7818608E-02  0.1180000E+00
       11   -1    0    0    0    0  0.00000000000E+00  0.00000000000E+00  0.39999999673E+01  0.40000000000E+01  0.51109989000E-03 0.  1.
     -623   -1    0    0    0    0  0.00000000000E+00  0.00000000000E+00  0.12525980253E-10  0.17130000000E+03  0.17130000000E+03 0. -1.
       11    1    1    2    0    0 -0.65244245386E-02 -0.46680387804E-03  0.63589519815E-01  0.63927101248E-01  0.51109989000E-03 0.  1.
     -623    1    1    2    0    0 -0.15830685117E-03  0.10026929721E-02  0.39407423414E-03  0.17130000000E+03  0.17130000000E+03 0. -1.
      622    1    1    2    0    0  0.66827313898E-02 -0.53588909404E-03  0.39360163733E+01  0.39360728953E+01  0.20000000000E-01 0.  1.
</event>
<event>
 5   0  0.3603037E+08  0.9118800E+02  0.7818608E-02  0.1180000E+00
       11   -1    0    0    0    0  0.00000000000E+00  0.00000000000E+00  0.39999999673E+01  0.40000000000E+01  0.51109989000E-03 0. -1.
     -623   -1    0    0    0    0  0.00000000000E+00  0.00000000000E+00  0.12525980253E-10  0.17130000000E+03  0.17130000000E+03 0.  1.
       11    1    1    2    0    0 -0.26700538790E-02 -0.77498888041E-03  0.24577327704E-01  0.24739362422E-01  0.51109989000E-03 0. -1.
     -623    1    1    2    0    0  0.44048575557E-03  0.17983156156E-03  0.21298415539E-03  0.17130000000E+03  0.17130000000E+03 0.  1.
      622    1    1    2    0    0  0.22295681234E-02  0.59515731885E-03  0.39752096555E+01  0.39752606368E+01  0.20000000000E-01 0. -1.
</event>
<event>
 5   0  0.3603037E+08  0.9118800E+02  0.7818608E-02  0.1180000E+00
       11   -1    0    0    0    0  0.00000000000E+00  0.00000000000E+00  0.39999999673E+01  0.40000000000E+01  0.51109989000E-03 0. -1.
     -623   -1    0    0    0    0  0.00000000000E+00  0.00000000000E+00  0.12525980253E-10  0.17130000000E+03  0.17130000000E+03 0. -1.
       11    1    1    2    0    0 -0.29789377547E-01 -0.40982380977E-01  0.19760993767E+01  0.19767488385E+01  0.51109989000E-03 0. -1.
     -623    1    1    2    0    0  0.37251971897E-01  0.31137878366E-01  0.79288009358E-03  0.17130000688E+03  0.17130000000E+03 0. -1.
      622    1    1    2    0    0 -0.74625943499E-02  0.98445026104E-02  0.20231077106E+01  0.20232442792E+01  0.20000000000E-01 0. -1.
</event>
<event>
 5   0  0.3603037E+08  0.9118800E+02  0.7818608E-02  0.1180000E+00
       11   -1    0    0    0    0  0.00000000000E+00  0.00000000000E+00  0.39999999673E+01  0.40000000000E+01  0.51109989000E-03 0. -1.
     -623   -1    0    0    0    0  0.00000000000E+00  0.00000000000E+00  0.12525980253E-10  0.17130000000E+03  0.17130000000E+03 0.  1.
       11    1    1    2    0    0  0.78727240838E-02  0.77984638490E-02  0.48342798949E+00  0.48355524821E+00  0.51109989000E-03 0. -1.
     -623    1    1    2    0    0  0.22720145084E-03 -0.15063127701E-02  0.19906760971E-03  0.17130000001E+03  0.17130000000E+03 0.  1.
      622    1    1    2    0    0 -0.80999255346E-02 -0.62921510789E-02  0.35163729103E+01  0.35164447449E+01  0.20000000000E-01 0. -1.
</event>
<event>
 5   0  0.3603037E+08  0.9118800E+02  0.7818608E-02  0.1180000E+00
       11   -1    0    0    0    0  0.00000000000E+00  0.00000000000E+00  0.39999999673E+01  0.40000000000E+01  0.51109989000E-03 0.  1.
     -623   -1    0    0    0    0  0.00000000000E+00  0.00000000000E+00  0.12525980253E-10  0.17130000000E+03  0.17130000000E+03 0.  1.
       11    1    1    2    0    0  0.14227159353E-02 -0.33029476840E-02  0.19334673657E+00  0.19338085569E+00  0.51109989000E-03 0.  1.
     -623    1    1    2    0    0  0.52249863737E-03  0.14650198271E-02  0.87574708082E-04  0.17130000001E+03  0.17130000000E+03 0.  1.
      622    1    1    2    0    0 -0.19452145727E-02  0.18379278569E-02  0.38065656561E+01  0.38066191372E+01  0.20000000000E-01 0.  1.
</event>
<event>
 5   0  0.3603037E+08  0.9118800E+02  0.7818608E-02  0.1180000E+00
       11   -1    0    0    0    0  0.00000000000E+00  0.00000000000E+00  0.39999999673E+01  0.40000000000E+01  0.51109989000E-03 0.  1.
     -623   -1    0    0    0    0  0.00000000000E+00  0.00000000000E+00  0.12525980253E-10  0.17130000000E+03  0.17130000000E+03 0. -1.
       11    1    1    2    0    0 -0.10289762796E-01 -0.75357794181E-02  0.50254745171E+00  0.50270952809E+00  0.51109989000E-03 0.  1.
     -623    1    1    2    0    0  0.52212919064E-02 -0.18651252463E-02  0.23562935646E-03  0.17130000009E+03  0.17130000000E+03 0. -1.
      622    1    1    2    0    0  0.50684708894E-02  0.94009046645E-02  0.34972168863E+01  0.34972903820E+01  0.20000000000E-01 0.  1.
</event>
<event>
 5   0  0.3603037E+08  0.9118800E+02  0.7818608E-02  0.1180000E+00
       11   -1    0    0    0    0  0.00000000000E+00  0.00000000000E+00  0.39999999673E+01  0.40000000000E+01  0.51109989000E-03 0.  1.
     -623   -1    0    0    0    0  0.00000000000E+00  0.00000000000E+00  0.12525980253E-10  0.17130000000E+03  0.17130000000E+03 0. -1.
       11    1    1    2    0    0 -0.82400842150E-03  0.66726506073E-04  0.39004465190E+00  0.39004586287E+00  0.51109989000E-03 0.  1.
     -623    1    1    2    0    0 -0.24098198637E-02 -0.11826937211E-02  0.58223124301E-04  0.17130000002E+03  0.17130000000E+03 0. -1.
      622    1    1    2    0    0  0.32338282853E-02  0.11159672150E-02  0.36098970923E+01  0.36099541161E+01  0.20000000000E-01 0.  1.
</event>
<event>
 5   0  0.3603037E+08  0.9118800E+02  0.7818608E-02  0.1180000E+00
       11   -1    0    0    0    0  0.00000000000E+00  0.00000000000E+00  0.39999999673E+01  0.40000000000E+01  0.51109989000E-03 0.  1.
     -623   -1    0    0    0    0  0.00000000000E+00  0.00000000000E+00  0.12525980253E-10  0.17130000000E+03  0.17130000000E+03 0.  1.
       11    1    1    2    0    0  0.49099243998E-02  0.14229903031E-02  0.86265652762E-01  0.86418495287E-01  0.51109989000E-03 0.  1.
     -623    1    1    2    0    0 -0.23823069599E-02  0.50654254249E-02  0.21020086531E-03  0.17130000009E+03  0.17130000000E+03 0.  1.
      622    1    1    2    0    0 -0.25276174399E-02 -0.64884157280E-02  0.39135241137E+01  0.39135814131E+01  0.20000000000E-01 0.  1.
</event>
<event>
 5   0  0.3603037E+08  0.9118800E+02  0.7818608E-02  0.1180000E+00
       11   -1    0    0    0    0  0.00000000000E+00  0.00000000000E+00  0.39999999673E+01  0.40000000000E+01  0.51109989000E-03 0.  1.
     -623   -1    0    0    0    0  0.00000000000E+00  0.00000000000E+00  0.12525980253E-10  0.17130000000E+03  0.17130000000E+03 0. -1.
       11    1    1    2    0    0  0.53695821751E-03  0.15579442544E-02  0.19940011313E-01  0.20014514431E-01  0.51109989000E-03 0.  1.
     -623    1    1    2    0    0 -0.87920112718E-03 -0.52928028621E-03  0.12487300483E-03  0.17130000000E+03  0.17130000000E+03 0. -1.
      622    1    1    2    0    0  0.34224290967E-03 -0.10286639682E-02  0.39799350830E+01  0.39799854824E+01  0.20000000000E-01 0.  1.
</event>
<event>
 5   0  0.3603037E+08  0.9118800E+02  0.7818608E-02  0.1180000E+00
       11   -1    0    0    0    0  0.00000000000E+00  0.00000000000E+00  0.39999999673E+01  0.40000000000E+01  0.51109989000E-03 0.  1.
     -623   -1    0    0    0    0  0.00000000000E+00  0.00000000000E+00  0.12525980253E-10  0.17130000000E+03  0.17130000000E+03 0.  1.
       11    1    1    2    0    0 -0.10640597531E-01  0.48728021694E-02  0.95042409766E+00  0.95049628781E+00  0.51109989000E-03 0.  1.
     -623    1    1    2    0    0  0.14535195730E-04 -0.27678439093E-03  0.15972029876E-03  0.17130000000E+03  0.17130000000E+03 0.  1.
      622    1    1    2    0    0  0.10626062335E-01 -0.45960177784E-02  0.30494161494E+01  0.30495037119E+01  0.20000000000E-01 0.  1.
</event>
<event>
 5   0  0.3603037E+08  0.9118800E+02  0.7818608E-02  0.1180000E+00
       11   -1    0    0    0    0  0.00000000000E+00  0.00000000000E+00  0.39999999673E+01  0.40000000000E+01  0.51109989000E-03 0.  1.
     -623   -1    0    0    0    0  0.00000000000E+00  0.00000000000E+00  0.12525980253E-10  0.17130000000E+03  0.17130000000E+03 0. -1.
       11    1    1    2    0    0 -0.69693905549E-02 -0.79693186614E-02  0.56179388646E-01  0.57170511418E-01  0.51109989000E-03 0.  1.
     -623    1    1    2    0    0  0.81762187291E-02  0.11806570936E-01  0.10444726174E-02  0.17130000061E+03  0.17130000000E+03 0. -1.
      622    1    1    2    0    0 -0.12068281741E-02 -0.38372522746E-02  0.39427761061E+01  0.39428288834E+01  0.20000000000E-01 0.  1.
</event>
<event>
 5   0  0.3603037E+08  0.9118800E+02  0.7818608E-02  0.1180000E+00
       11   -1    0    0    0    0  0.00000000000E+00  0.00000000000E+00  0.39999999673E+01  0.40000000000E+01  0.51109989000E-03 0.  1.
     -623   -1    0    0    0    0  0.00000000000E+00  0.00000000000E+00  0.12525980253E-10  0.17130000000E+03  0.17130000000E+03 0.  1.
       11    1    1    2    0    0 -0.43495634738E-02  0.34013925874E-02  0.38484931315E+00  0.38488926099E+00  0.51109989000E-03 0.  1.
     -623    1    1    2    0    0  0.19874616623E-03  0.83686673397E-04  0.99302010741E-04  0.17130000000E+03  0.17130000000E+03 0.  1.
      622    1    1    2    0    0  0.41508173076E-02 -0.34850792608E-02  0.36150513522E+01  0.36151107388E+01  0.20000000000E-01 0.  1.
</event>
<event>
 5   0  0.3603037E+08  0.9118800E+02  0.7818608E-02  0.1180000E+00
       11   -1    0    0    0    0  0.00000000000E+00  0.00000000000E+00  0.39999999673E+01  0.40000000000E+01  0.51109989000E-03 0.  1.
     -623   -1    0    0    0    0  0.00000000000E+00  0.00000000000E+00  0.12525980253E-10  0.17130000000E+03  0.17130000000E+03 0.  1.
       11    1    1    2    0    0  0.80123290060E-03  0.43398858409E-02  0.22194810660E+00  0.22199256706E+00  0.51109989000E-03 0.  1.
     -623    1    1    2    0    0 -0.45378660564E-03  0.27494945871E-03  0.10020152338E-03  0.17130000000E+03  0.17130000000E+03 0.  1.
      622    1    1    2    0    0 -0.34744629496E-03 -0.46148352996E-02  0.37779516592E+01  0.37780074321E+01  0.20000000000E-01 0.  1.
</event>
<event>
 5   0  0.3603037E+08  0.9118800E+02  0.7818608E-02  0.1180000E+00
       11   -1    0    0    0    0  0.00000000000E+00  0.00000000000E+00  0.39999999673E+01  0.40000000000E+01  0.51109989000E-03 0.  1.
     -623   -1    0    0    0    0  0.00000000000E+00  0.00000000000E+00  0.12525980253E-10  0.17130000000E+03  0.17130000000E+03 0.  1.
       11    1    1    2    0    0  0.28620494797E-02  0.21297884554E-02  0.13523329124E+00  0.13528130546E+00  0.51109989000E-03 0.  1.
     -623    1    1    2    0    0 -0.18656599656E-02 -0.20737258758E-02  0.99883725824E-04  0.17130000002E+03  0.17130000000E+03 0.  1.
      622    1    1    2    0    0 -0.99638951409E-03 -0.56062579663E-04  0.38646667924E+01  0.38647186718E+01  0.20000000000E-01 0.  0.
</event>
<event>
 5   0  0.3603037E+08  0.9118800E+02  0.7818608E-02  0.1180000E+00
       11   -1    0    0    0    0  0.00000000000E+00  0.00000000000E+00  0.39999999673E+01  0.40000000000E+01  0.51109989000E-03 0. -1.
     -623   -1    0    0    0    0  0.00000000000E+00  0.00000000000E+00  0.12525980253E-10  0.17130000000E+03  0.17130000000E+03 0. -1.
       11    1    1    2    0    0 -0.16658342418E-02  0.44046039144E-03  0.86216274544E-02  0.88069682317E-02  0.51109989000E-03 0. -1.
     -623    1    1    2    0    0  0.10735329648E-02 -0.18703741161E-02  0.23573261756E-03  0.17130000001E+03  0.17130000000E+03 0. -1.
      622    1    1    2    0    0  0.59230127706E-03  0.14299137246E-02  0.39911426073E+01  0.39911930180E+01  0.20000000000E-01 0. -1.
</event>
<event>
 5   0  0.3603037E+08  0.9118800E+02  0.7818608E-02  0.1180000E+00
       11   -1    0    0    0    0  0.00000000000E+00  0.00000000000E+00  0.39999999673E+01  0.40000000000E+01  0.51109989000E-03 0.  1.
     -623   -1    0    0    0    0  0.00000000000E+00  0.00000000000E+00  0.12525980253E-10  0.17130000000E+03  0.17130000000E+03 0. -1.
       11    1    1    2    0    0  0.14130536416E-02  0.21436790954E-01  0.27279738213E+01  0.27280584605E+01  0.51109989000E-03 0.  1.
     -623    1    1    2    0    0  0.21570747000E-02  0.16011229984E-01  0.79908643649E-03  0.17130000076E+03  0.17130000000E+03 0. -1.
      622    1    1    2    0    0 -0.35701283417E-02 -0.37448020938E-01  0.12712270596E+01  0.12719407758E+01  0.20000000000E-01 0.  0.
</event>
<event>
 5   0  0.3603037E+08  0.9118800E+02  0.7818608E-02  0.1180000E+00
       11   -1    0    0    0    0  0.00000000000E+00  0.00000000000E+00  0.39999999673E+01  0.40000000000E+01  0.51109989000E-03 0. -1.
     -623   -1    0    0    0    0  0.00000000000E+00  0.00000000000E+00  0.12525980253E-10  0.17130000000E+03  0.17130000000E+03 0.  1.
       11    1    1    2    0    0 -0.14613798217E-02  0.58942591581E-02  0.95079647144E+00  0.95081600179E+00  0.51109989000E-03 0. -1.
     -623    1    1    2    0    0  0.96655462939E-04 -0.47885910726E-03  0.90204886172E-04  0.17130000000E+03  0.17130000000E+03 0.  1.
      622    1    1    2    0    0  0.13647243588E-02 -0.54154000509E-02  0.30491132910E+01  0.30491839975E+01  0.20000000000E-01 0.  0.
</event>
<event>
 5   0  0.3603037E+08  0.9118800E+02  0.7818608E-02  0.1180000E+00
       11   -1    0    0    0    0  0.00000000000E+00  0.00000000000E+00  0.39999999673E+01  0.40000000000E+01  0.51109989000E-03 0. -1.
     -623   -1    0    0    0    0  0.00000000000E+00  0.00000000000E+00  0.12525980253E-10  0.17130000000E+03  0.17130000000E+03 0. -1.
       11    1    1    2    0    0  0.78026449469E-02  0.20367940581E-02  0.43640434639E+00  0.43647914563E+00  0.51109989000E-03 0. -1.
     -623    1    1    2    0    0 -0.28355846343E-02  0.47610418178E-02  0.14092670809E-03  0.17130000009E+03  0.17130000000E+03 0. -1.
      622    1    1    2    0    0 -0.49670603127E-02 -0.67978358759E-02  0.35634546943E+01  0.35635207647E+01  0.20000000000E-01 0. -1.
</event>
<event>
 5   0  0.3603037E+08  0.9118800E+02  0.7818608E-02  0.1180000E+00
       11   -1    0    0    0    0  0.00000000000E+00  0.00000000000E+00  0.39999999673E+01  0.40000000000E+01  0.51109989000E-03 0.  1.
     -623   -1    0    0    0    0  0.00000000000E+00  0.00000000000E+00  0.12525980253E-10  0.17130000000E+03  0.17130000000E+03 0. -1.
       11    1    1    2    0    0 -0.53020164051E-03 -0.20462315775E-02  0.83416313215E-01  0.83444656562E-01  0.51109989000E-03 0.  1.
     -623    1    1    2    0    0 -0.97177140373E-04 -0.82822617698E-04  0.80005325677E-04  0.17130000000E+03  0.17130000000E+03 0. -1.
      622    1    1    2    0    0  0.62737878088E-03  0.21290541952E-02  0.39165036488E+01  0.39165553434E+01  0.20000000000E-01 0.  0.
</event>
<event>
 5   0  0.3603037E+08  0.9118800E+02  0.7818608E-02  0.1180000E+00
       11   -1    0    0    0    0  0.00000000000E+00  0.00000000000E+00  0.39999999673E+01  0.40000000000E+01  0.51109989000E-03 0.  1.
     -623   -1    0    0    0    0  0.00000000000E+00  0.00000000000E+00  0.12525980253E-10  0.17130000000E+03  0.17130000000E+03 0. -1.
       11    1    1    2    0    0 -0.14439506215E-02  0.12391811143E-02 -0.12155888365E-03  0.19739707367E-02  0.51109989000E-03 0.  1.
     -623    1    1    2    0    0  0.14570106539E-02 -0.58080874885E-04  0.21457161095E-02  0.17130000002E+03  0.17130000000E+03 0. -1.
      622    1    1    2    0    0 -0.13060032403E-04 -0.11811002394E-02  0.39979758101E+01  0.39980260096E+01  0.20000000000E-01 0.  1.
</event>
<event>
 5   0  0.3603037E+08  0.9118800E+02  0.7818608E-02  0.1180000E+00
       11   -1    0    0    0    0  0.00000000000E+00  0.00000000000E+00  0.39999999673E+01  0.40000000000E+01  0.51109989000E-03 0.  1.
     -623   -1    0    0    0    0  0.00000000000E+00  0.00000000000E+00  0.12525980253E-10  0.17130000000E+03  0.17130000000E+03 0.  1.
       11    1    1    2    0    0 -0.16514437372E-01  0.16250116627E-02  0.12093806965E+01  0.12094946456E+01  0.51109989000E-03 0.  1.
     -623    1    1    2    0    0  0.93845720736E-02 -0.11214527243E-01  0.21179966068E-03  0.17130000062E+03  0.17130000000E+03 0.  1.
      622    1    1    2    0    0  0.71298652980E-02  0.95895155804E-02  0.27904074712E+01  0.27905047301E+01  0.20000000000E-01 0. -1.
</event>
<event>
 5   0  0.3603037E+08  0.9118800E+02  0.7818608E-02  0.1180000E+00
       11   -1    0    0    0    0  0.00000000000E+00  0.00000000000E+00  0.39999999673E+01  0.40000000000E+01  0.51109989000E-03 0. -1.
     -623   -1    0    0    0    0  0.00000000000E+00  0.00000000000E+00  0.12525980253E-10  0.17130000000E+03  0.17130000000E+03 0. -1.
       11    1    1    2    0    0  0.21378760224E-01 -0.14975308747E-01  0.91655713549E+00  0.91692887134E+00  0.51109989000E-03 0. -1.
     -623    1    1    2    0    0 -0.14274674185E-01 -0.39914382034E-02  0.50374389987E-03  0.17130000064E+03  0.17130000000E+03 0. -1.
      622    1    1    2    0    0 -0.71040860385E-02  0.18966746950E-01  0.30829390880E+01  0.30830704867E+01  0.20000000000E-01 0. -1.
</event>
<event>
 5   0  0.3603037E+08  0.9118800E+02  0.7818608E-02  0.1180000E+00
       11   -1    0    0    0    0  0.00000000000E+00  0.00000000000E+00  0.39999999673E+01  0.40000000000E+01  0.51109989000E-03 0.  1.
     -623   -1    0    0    0    0  0.00000000000E+00  0.00000000000E+00  0.12525980253E-10  0.17130000000E+03  0.17130000000E+03 0.  1.
       11    1    1    2    0    0 -0.17518125323E-02  0.29430216047E-03  0.48656770520E+00  0.48657121619E+00  0.51109989000E-03 0.  1.
     -623    1    1    2    0    0 -0.92424969771E-03 -0.17586817431E-03  0.61427003457E-04  0.17130000000E+03  0.17130000000E+03 0.  1.
      622    1    1    2    0    0  0.26760622300E-02 -0.11843398616E-03  0.35133708352E+01  0.35134287812E+01  0.20000000000E-01 0.  1.
</event>
<event>
 5   0  0.3603037E+08  0.9118800E+02  0.7818608E-02  0.1180000E+00
       11   -1    0    0    0    0  0.00000000000E+00  0.00000000000E+00  0.39999999673E+01  0.40000000000E+01  0.51109989000E-03 0. -1.
     -623   -1    0    0    0    0  0.00000000000E+00  0.00000000000E+00  0.12525980253E-10  0.17130000000E+03  0.17130000000E+03 0. -1.
       11    1    1    2    0    0  0.20268093760E-02 -0.74687475965E-02  0.78471196966E-01  0.78853535888E-01  0.51109989000E-03 0. -1.
     -623    1    1    2    0    0  0.19209336414E-02  0.24970994830E-02  0.43848076018E-03  0.17130000003E+03  0.17130000000E+03 0. -1.
      622    1    1    2    0    0 -0.39477430174E-02  0.49716481135E-02  0.39210902896E+01  0.39211464346E+01  0.20000000000E-01 0. -1.
</event>
<event>
 5   0  0.3603037E+08  0.9118800E+02  0.7818608E-02  0.1180000E+00
       11   -1    0    0    0    0  0.00000000000E+00  0.00000000000E+00  0.39999999673E+01  0.40000000000E+01  0.51109989000E-03 0. -1.
     -623   -1    0    0    0    0  0.00000000000E+00  0.00000000000E+00  0.12525980253E-10  0.17130000000E+03  0.17130000000E+03 0. -1.
       11    1    1    2    0    0 -0.41349866164E-01  0.42891439827E-01  0.23116424725E+01  0.23124101429E+01  0.51109989000E-03 0. -1.
     -623    1    1    2    0    0  0.41686257744E-01 -0.37037047627E-01  0.90542231090E-03  0.17130000908E+03  0.17130000000E+03 0. -1.
      622    1    1    2    0    0 -0.33639158040E-03 -0.58543922001E-02  0.16874520725E+01  0.16875807786E+01  0.20000000000E-01 0.  0.
</event>
<event>
 5   0  0.3603037E+08  0.9118800E+02  0.7818608E-02  0.1180000E+00
       11   -1    0    0    0    0  0.00000000000E+00  0.00000000000E+00  0.39999999673E+01  0.40000000000E+01  0.51109989000E-03 0. -1.
     -623   -1    0    0    0    0  0.00000000000E+00  0.00000000000E+00  0.12525980253E-10  0.17130000000E+03  0.17130000000E+03 0.  1.
       11    1    1    2    0    0  0.15875420001E-01 -0.49989384668E-01  0.64045065186E-01  0.82782843240E-01  0.51109989000E-03 0. -1.
     -623    1    1    2    0    0 -0.49894572374E-01  0.26327368332E-01  0.19018342809E-01  0.17130001035E+03  0.17130000000E+03 0.  1.
      622    1    1    2    0    0  0.34019152373E-01  0.23662016337E-01  0.39169365594E+01  0.39172068115E+01  0.20000000000E-01 0. -1.
</event>
<event>
 5   0  0.3603037E+08  0.9118800E+02  0.7818608E-02  0.1180000E+00
       11   -1    0    0    0    0  0.00000000000E+00  0.00000000000E+00  0.39999999673E+01  0.40000000000E+01  0.51109989000E-03 0.  1.
     -623   -1    0    0    0    0  0.00000000000E+00  0.00000000000E+00  0.12525980253E-10  0.17130000000E+03  0.17130000000E+03 0. -1.
       11    1    1    2    0    0 -0.50088133762E-02 -0.13199725914E-01  0.33384143955E+00  0.33414022349E+00  0.51109989000E-03 0.  1.
     -623    1    1    2    0    0 -0.10147251017E-01  0.13179920869E-01  0.38544833962E-03  0.17130000081E+03  0.17130000000E+03 0. -1.
      622    1    1    2    0    0  0.15156064393E-01  0.19805044844E-04  0.36657730795E+01  0.36658589685E+01  0.20000000000E-01 0.  1.
</event>
<event>
 5   0  0.3603037E+08  0.9118800E+02  0.7818608E-02  0.1180000E+00
       11   -1    0    0    0    0  0.00000000000E+00  0.00000000000E+00  0.39999999673E+01  0.40000000000E+01  0.51109989000E-03 0.  1.
     -623   -1    0    0    0    0  0.00000000000E+00  0.00000000000E+00  0.12525980253E-10  0.17130000000E+03  0.17130000000E+03 0. -1.
       11    1    1    2    0    0  0.34267397762E-02  0.77002768291E-03  0.75236775464E-01  0.75320442723E-01  0.51109989000E-03 0.  1.
     -623    1    1    2    0    0  0.18206373870E-03  0.62866139438E-03  0.13650426327E-03  0.17130000000E+03  0.17130000000E+03 0. -1.
      622    1    1    2    0    0 -0.36088035149E-02 -0.13986890773E-02  0.39246266876E+01  0.39246795560E+01  0.20000000000E-01 0.  1.
</event>
<event>
 5   0  0.3603037E+08  0.9118800E+02  0.7818608E-02  0.1180000E+00
       11   -1    0    0    0    0  0.00000000000E+00  0.00000000000E+00  0.39999999673E+01  0.40000000000E+01  0.51109989000E-03 0.  1.
     -623   -1    0    0    0    0  0.00000000000E+00  0.00000000000E+00  0.12525980253E-10  0.17130000000E+03  0.17130000000E+03 0. -1.
       11    1    1    2    0    0  0.28074461465E-02 -0.63900546027E-02  0.13417251113E+00  0.13435489763E+00  0.51109989000E-03 0.  1.
     -623    1    1    2    0    0 -0.40841591266E-02  0.47817942235E-03  0.23887305712E-03  0.17130000005E+03  0.17130000000E+03 0. -1.
      622    1    1    2    0    0  0.12767129802E-02  0.59118751803E-02  0.38655885832E+01  0.38656450528E+01  0.20000000000E-01 0.  1.
</event>
<event>
 5   0  0.3603037E+08  0.9118800E+02  0.7818608E-02  0.1180000E+00
       11   -1    0    0    0    0  0.00000000000E+00  0.00000000000E+00  0.39999999673E+01  0.40000000000E+01  0.51109989000E-03 0. -1.
     -623   -1    0    0    0    0  0.00000000000E+00  0.00000000000E+00  0.12525980253E-10  0.17130000000E+03  0.17130000000E+03 0. -1.
       11    1    1    2    0    0 -0.25709197875E-01 -0.25105581416E-01  0.11269742119E+01  0.11275470672E+01  0.51109989000E-03 0. -1.
     -623    1    1    2    0    0  0.14901938607E-01  0.18690257174E-02  0.75743142495E-03  0.17130000066E+03  0.17130000000E+03 0. -1.
      622    1    1    2    0    0  0.10807259268E-01  0.23236555698E-01  0.28722683240E+01  0.28724522728E+01  0.20000000000E-01 0. -1.
</event>
<event>
 5   0  0.3603037E+08  0.9118800E+02  0.7818608E-02  0.1180000E+00
       11   -1    0    0    0    0  0.00000000000E+00  0.00000000000E+00  0.39999999673E+01  0.40000000000E+01  0.51109989000E-03 0.  1.
     -623   -1    0    0    0    0  0.00000000000E+00  0.00000000000E+00  0.12525980253E-10  0.17130000000E+03  0.17130000000E+03 0.  1.
       11    1    1    2    0    0  0.20359277462E-02 -0.17202241166E-02  0.14334502758E+00  0.14337071642E+00  0.51109989000E-03 0.  1.
     -623    1    1    2    0    0 -0.15614272092E-01 -0.52871245090E-02  0.10857833402E-03  0.17130000079E+03  0.17130000000E+03 0.  1.
      622    1    1    2    0    0  0.13578344345E-01  0.70073486257E-02  0.38565463614E+01  0.38566284903E+01  0.20000000000E-01 0.  1.
</event>
<event>
 5   0  0.3603037E+08  0.9118800E+02  0.7818608E-02  0.1180000E+00
       11   -1    0    0    0    0  0.00000000000E+00  0.00000000000E+00  0.39999999673E+01  0.40000000000E+01  0.51109989000E-03 0.  1.
     -623   -1    0    0    0    0  0.00000000000E+00  0.00000000000E+00  0.12525980253E-10  0.17130000000E+03  0.17130000000E+03 0.  1.
       11    1    1    2    0    0 -0.16222282432E-01  0.23913749763E-02  0.45583312910E+00  0.45612825381E+00  0.51109989000E-03 0.  1.
     -623    1    1    2    0    0  0.26717182916E-01 -0.43131535451E-03  0.36969470916E-03  0.17130000208E+03  0.17130000000E+03 0.  1.
      622    1    1    2    0    0 -0.10494900483E-01 -0.19600596218E-02  0.35437971436E+01  0.35438696617E+01  0.20000000000E-01 0.  1.
</event>
<event>
 5   0  0.3603037E+08  0.9118800E+02  0.7818608E-02  0.1180000E+00
       11   -1    0    0    0    0  0.00000000000E+00  0.00000000000E+00  0.39999999673E+01  0.40000000000E+01  0.51109989000E-03 0.  1.
     -623   -1    0    0    0    0  0.00000000000E+00  0.00000000000E+00  0.12525980253E-10  0.17130000000E+03  0.17130000000E+03 0. -1.
       11    1    1    2    0    0 -0.55644775814E-02 -0.17966608541E-02  0.13225997588E+01  0.13226127833E+01  0.51109989000E-03 0.  1.
     -623    1    1    2    0    0  0.47115193475E-03  0.49024629335E-03  0.92857507660E-04  0.17130000000E+03  0.17130000000E+03 0. -1.
      622    1    1    2    0    0  0.50933256467E-02  0.13064145607E-02  0.26773073511E+01  0.26773872153E+01  0.20000000000E-01 0.  1.
</event>
<event>
 5   0  0.3603037E+08  0.9118800E+02  0.7818608E-02  0.1180000E+00
       11   -1    0    0    0    0  0.00000000000E+00  0.00000000000E+00  0.39999999673E+01  0.40000000000E+01  0.51109989000E-03 0.  1.
     -623   -1    0    0    0    0  0.00000000000E+00  0.00000000000E+00  0.12525980253E-10  0.17130000000E+03  0.17130000000E+03 0. -1.
       11    1    1    2    0    0  0.36636848953E-02  0.14680322631E-01  0.38895037513E-01  0.41737508606E-01  0.51109989000E-03 0.  1.
     -623    1    1    2    0    0  0.51569939488E-02 -0.53170393021E-02  0.29140537879E-02  0.17130000018E+03  0.17130000000E+03 0. -1.
      622    1    1    2    0    0 -0.88206788441E-02 -0.93632833291E-02  0.39581908761E+01  0.39582623065E+01  0.20000000000E-01 0.  1.
</event>
<event>
 5   0  0.3603037E+08  0.9118800E+02  0.7818608E-02  0.1180000E+00
       11   -1    0    0    0    0  0.00000000000E+00  0.00000000000E+00  0.39999999673E+01  0.40000000000E+01  0.51109989000E-03 0. -1.
     -623   -1    0    0    0    0  0.00000000000E+00  0.00000000000E+00  0.12525980253E-10  0.17130000000E+03  0.17130000000E+03 0.  1.
       11    1    1    2    0    0  0.35269378645E-02 -0.46911785321E-03  0.17474041659E+00  0.17477738348E+00  0.51109989000E-03 0. -1.
     -623    1    1    2    0    0 -0.22214063662E-02  0.29453653136E-02  0.90283189228E-04  0.17130000004E+03  0.17130000000E+03 0.  1.
      622    1    1    2    0    0 -0.13055314983E-02 -0.24762474604E-02  0.38251692676E+01  0.38252225768E+01  0.20000000000E-01 0. -1.
</event>
<event>
 5   0  0.3603037E+08  0.9118800E+02  0.7818608E-02  0.1180000E+00
       11   -1    0    0    0    0  0.00000000000E+00  0.00000000000E+00  0.39999999673E+01  0.40000000000E+01  0.51109989000E-03 0. -1.
     -623   -1    0    0    0    0  0.00000000000E+00  0.00000000000E+00  0.12525980253E-10  0.17130000000E+03  0.17130000000E+03 0.  1.
       11    1    1    2    0    0  0.51362398233E-02  0.11478567376E-01  0.11240539960E+01  0.11241244529E+01  0.51109989000E-03 0. -1.
     -623    1    1    2    0    0  0.23401169108E-03  0.11850280972E-03  0.16836710717E-03  0.17130000000E+03  0.17130000000E+03 0.  1.
      622    1    1    2    0    0 -0.53702515143E-02 -0.11597070186E-01  0.28757776043E+01  0.28758755468E+01  0.20000000000E-01 0. -1.
</event>
<event>
 5   0  0.3603037E+08  0.9118800E+02  0.7818608E-02  0.1180000E+00
       11   -1    0    0    0    0  0.00000000000E+00  0.00000000000E+00  0.39999999673E+01  0.40000000000E+01  0.51109989000E-03 0.  1.
     -623   -1    0    0    0    0  0.00000000000E+00  0.00000000000E+00  0.12525980253E-10  0.17130000000E+03  0.17130000000E+03 0.  1.
       11    1    1    2    0    0  0.50724730451E-03  0.51278748167E-03  0.32157167811E+00  0.32157289319E+00  0.51109989000E-03 0.  1.
     -623    1    1    2    0    0  0.40566727991E-03  0.10941498602E-02  0.56022180898E-04  0.17130000000E+03  0.17130000000E+03 0.  1.
      622    1    1    2    0    0 -0.91291458442E-03 -0.16069373419E-02  0.36783722671E+01  0.36784271028E+01  0.20000000000E-01 0.  1.
</event>
<event>
 5   0  0.3603037E+08  0.9118800E+02  0.7818608E-02  0.1180000E+00
       11   -1    0    0    0    0  0.00000000000E+00  0.00000000000E+00  0.39999999673E+01  0.40000000000E+01  0.51109989000E-03 0. -1.
     -623   -1    0    0    0    0  0.00000000000E+00  0.00000000000E+00  0.12525980253E-10  0.17130000000E+03  0.17130000000E+03 0. -1.
       11    1    1    2    0    0 -0.15484708078E-01  0.62648810494E-02  0.24234920421E+00  0.24292472686E+00  0.51109989000E-03 0. -1.
     -623    1    1    2    0    0 -0.87913585267E-03  0.25051232611E-02  0.67461801961E-03  0.17130000002E+03  0.17130000000E+03 0. -1.
      622    1    1    2    0    0  0.16363843931E-01 -0.87700043105E-02  0.37569761451E+01  0.37570752512E+01  0.20000000000E-01 0. -1.
</event>
<event>
 5   0  0.3603037E+08  0.9118800E+02  0.7818608E-02  0.1180000E+00
       11   -1    0    0    0    0  0.00000000000E+00  0.00000000000E+00  0.39999999673E+01  0.40000000000E+01  0.51109989000E-03 0.  1.
     -623   -1    0    0    0    0  0.00000000000E+00  0.00000000000E+00  0.12525980253E-10  0.17130000000E+03  0.17130000000E+03 0. -1.
       11    1    1    2    0    0 -0.35008644801E-01  0.12538787063E-01  0.20742025500E+01  0.20745359255E+01  0.51109989000E-03 0.  1.
     -623    1    1    2    0    0  0.13740847115E-01  0.89115938035E-02  0.67496821750E-03  0.17130000078E+03  0.17130000000E+03 0. -1.
      622    1    1    2    0    0  0.21267797686E-01 -0.21450380866E-01  0.19251224491E+01  0.19254632903E+01  0.20000000000E-01 0.  1.
</event>
<event>
 5   0  0.3603037E+08  0.9118800E+02  0.7818608E-02  0.1180000E+00
       11   -1    0    0    0    0  0.00000000000E+00  0.00000000000E+00  0.39999999673E+01  0.40000000000E+01  0.51109989000E-03 0.  1.
     -623   -1    0    0    0    0  0.00000000000E+00  0.00000000000E+00  0.12525980253E-10  0.17130000000E+03  0.17130000000E+03 0. -1.
       11    1    1    2    0    0 -0.16128479550E-01 -0.88187623378E-03  0.53748570651E+00  0.53772860393E+00  0.51109989000E-03 0.  1.
     -623    1    1    2    0    0  0.18890882130E-01 -0.15670593679E-01  0.34305966161E-03  0.17130000176E+03  0.17130000000E+03 0. -1.
      622    1    1    2    0    0 -0.27624025804E-02  0.16552469913E-01  0.34621712012E+01  0.34622696373E+01  0.20000000000E-01 0.  1.
</event>
<event>
 5   0  0.3603037E+08  0.9118800E+02  0.7818608E-02  0.1180000E+00
       11   -1    0    0    0    0  0.00000000000E+00  0.00000000000E+00  0.39999999673E+01  0.40000000000E+01  0.51109989000E-03 0. -1.
     -623   -1    0    0    0    0  0.00000000000E+00  0.00000000000E+00  0.12525980253E-10  0.17130000000E+03  0.17130000000E+03 0. -1.
       11    1    1    2    0    0  0.58657732977E-02 -0.94322856474E-03  0.24240860783E+00  0.24248194025E+00  0.51109989000E-03 0. -1.
     -623    1    1    2    0    0 -0.13244798764E-03 -0.95406560531E-04  0.13104455716E-03  0.17130000000E+03  0.17130000000E+03 0. -1.
      622    1    1    2    0    0 -0.57333253101E-02  0.10386351253E-02  0.37574603150E+01  0.37575180596E+01  0.20000000000E-01 0. -1.
</event>
<event>
 5   0  0.3603037E+08  0.9118800E+02  0.7818608E-02  0.1180000E+00
       11   -1    0    0    0    0  0.00000000000E+00  0.00000000000E+00  0.39999999673E+01  0.40000000000E+01  0.51109989000E-03 0.  1.
     -623   -1    0    0    0    0  0.00000000000E+00  0.00000000000E+00  0.12525980253E-10  0.17130000000E+03  0.17130000000E+03 0.  1.
       11    1    1    2    0    0  0.12049049847E-02 -0.60909620447E-02  0.18975957046E+00  0.18986181138E+00  0.51109989000E-03 0.  1.
     -623    1    1    2    0    0 -0.11663508102E-02  0.37621544052E-03  0.15899059815E-03  0.17130000000E+03  0.17130000000E+03 0.  1.
      622    1    1    2    0    0 -0.38554174579E-04  0.57147466042E-02  0.38100814063E+01  0.38101381842E+01  0.20000000000E-01 0.  1.
</event>
<event>
 5   0  0.3603037E+08  0.9118800E+02  0.7818608E-02  0.1180000E+00
       11   -1    0    0    0    0  0.00000000000E+00  0.00000000000E+00  0.39999999673E+01  0.40000000000E+01  0.51109989000E-03 0. -1.
     -623   -1    0    0    0    0  0.00000000000E+00  0.00000000000E+00  0.12525980253E-10  0.17130000000E+03  0.17130000000E+03 0. -1.
       11    1    1    2    0    0 -0.28355008500E-02  0.30833573240E-02  0.19121813108E+00  0.19126469102E+00  0.51109989000E-03 0. -1.
     -623    1    1    2    0    0 -0.96043812057E-03 -0.45118730086E-04  0.10214470543E-03  0.17130000000E+03  0.17130000000E+03 0. -1.
      622    1    1    2    0    0  0.37959389706E-02 -0.30382385939E-02  0.38086796916E+01  0.38087353063E+01  0.20000000000E-01 0. -1.
</event>
<event>
 5   0  0.3603037E+08  0.9118800E+02  0.7818608E-02  0.1180000E+00
       11   -1    0    0    0    0  0.00000000000E+00  0.00000000000E+00  0.39999999673E+01  0.40000000000E+01  0.51109989000E-03 0. -1.
     -623   -1    0    0    0    0  0.00000000000E+00  0.00000000000E+00  0.12525980253E-10  0.17130000000E+03  0.17130000000E+03 0.  1.
       11    1    1    2    0    0  0.86809416107E-02  0.17199159515E-01  0.53765956245E+00  0.53800486629E+00  0.51109989000E-03 0. -1.
     -623    1    1    2    0    0 -0.42941921444E-02 -0.26277148643E-02  0.43656176305E-03  0.17130000007E+03  0.17130000000E+03 0.  1.
      622    1    1    2    0    0 -0.43867494663E-02 -0.14571444651E-01  0.34619038431E+01  0.34619950592E+01  0.20000000000E-01 0. -1.
</event>
<event>
 5   0  0.3603037E+08  0.9118800E+02  0.7818608E-02  0.1180000E+00
       11   -1    0    0    0    0  0.00000000000E+00  0.00000000000E+00  0.39999999673E+01  0.40000000000E+01  0.51109989000E-03 0. -1.
     -623   -1    0    0    0    0  0.00000000000E+00  0.00000000000E+00  0.12525980253E-10  0.17130000000E+03  0.17130000000E+03 0. -1.
       11    1    1    2    0    0 -0.89017524596E-02  0.68554626504E-02  0.31057995053E+00  0.31078353472E+00  0.51109989000E-03 0. -1.
     -623    1    1    2    0    0  0.11228580356E-03 -0.24462599085E-03  0.27415815547E-03  0.17130000000E+03  0.17130000000E+03 0. -1.
      622    1    1    2    0    0  0.87894666561E-02 -0.66108366595E-02  0.36891458587E+01  0.36892164648E+01  0.20000000000E-01 0. -1.
</event>
<event>
 5   0  0.3603037E+08  0.9118800E+02  0.7818608E-02  0.1180000E+00
       11   -1    0    0    0    0  0.00000000000E+00  0.00000000000E+00  0.39999999673E+01  0.40000000000E+01  0.51109989000E-03 0. -1.
     -623   -1    0    0    0    0  0.00000000000E+00  0.00000000000E+00  0.12525980253E-10  0.17130000000E+03  0.17130000000E+03 0. -1.
       11    1    1    2    0    0 -0.23933093266E-02 -0.38710639936E-02  0.69794731857E+00  0.69796234410E+00  0.51109989000E-03 0. -1.
     -623    1    1    2    0    0  0.72710638390E-04 -0.13634831342E-03  0.78809425090E-04  0.17130000000E+03  0.17130000000E+03 0. -1.
      622    1    1    2    0    0  0.23205986882E-02  0.40074123071E-02  0.33019738394E+01  0.33020376558E+01  0.20000000000E-01 0. -1.
</event>
<event>
 5   0  0.3603037E+08  0.9118800E+02  0.7818608E-02  0.1180000E+00
       11   -1    0    0    0    0  0.00000000000E+00  0.00000000000E+00  0.39999999673E+01  0.40000000000E+01  0.51109989000E-03 0.  1.
     -623   -1    0    0    0    0  0.00000000000E+00  0.00000000000E+00  0.12525980253E-10  0.17130000000E+03  0.17130000000E+03 0.  1.
       11    1    1    2    0    0 -0.50922790526E-02 -0.83309532991E-02  0.15638804165E+00  0.15669338492E+00  0.51109989000E-03 0.  1.
     -623    1    1    2    0    0 -0.19417011969E-03  0.13465029449E-03  0.36972579489E-03  0.17130000000E+03  0.17130000000E+03 0.  1.
      622    1    1    2    0    0  0.52864491723E-02  0.81963030046E-02  0.38432421999E+01  0.38433066145E+01  0.20000000000E-01 0.  1.
</event>
<event>
 5   0  0.3603037E+08  0.9118800E+02  0.7818608E-02  0.1180000E+00
       11   -1    0    0    0    0  0.00000000000E+00  0.00000000000E+00  0.39999999673E+01  0.40000000000E+01  0.51109989000E-03 0.  1.
     -623   -1    0    0    0    0  0.00000000000E+00  0.00000000000E+00  0.12525980253E-10  0.17130000000E+03  0.17130000000E+03 0. -1.
       11    1    1    2    0    0 -0.99929845226E-02  0.21465036620E-01  0.22153123075E+01  0.22154388929E+01  0.51109989000E-03 0.  1.
     -623    1    1    2    0    0 -0.16600882859E-02  0.68183123625E-03  0.41412940139E-03  0.17130000001E+03  0.17130000000E+03 0. -1.
      622    1    1    2    0    0  0.11653072808E-01 -0.22146867856E-01  0.17842735305E+01  0.17845610972E+01  0.20000000000E-01 0.  0.
</event>
<event>
 5   0  0.3603037E+08  0.9118800E+02  0.7818608E-02  0.1180000E+00
       11   -1    0    0    0    0  0.00000000000E+00  0.00000000000E+00  0.39999999673E+01  0.40000000000E+01  0.51109989000E-03 0.  1.
     -623   -1    0    0    0    0  0.00000000000E+00  0.00000000000E+00  0.12525980253E-10  0.17130000000E+03  0.17130000000E+03 0.  1.
       11    1    1    2    0    0  0.59601637429E-03  0.10434954377E-02  0.69005363503E-02  0.70230152081E-02  0.51109989000E-03 0.  1.
     -623    1    1    2    0    0 -0.11755688955E-02 -0.28889900775E-03  0.17265220082E-03  0.17130000000E+03  0.17130000000E+03 0.  1.
      622    1    1    2    0    0  0.57955252123E-03 -0.75459642998E-03  0.39929267788E+01  0.39929769804E+01  0.20000000000E-01 0.  1.
</event>
<event>
 5   0  0.3603037E+08  0.9118800E+02  0.7818608E-02  0.1180000E+00
       11   -1    0    0    0    0  0.00000000000E+00  0.00000000000E+00  0.39999999673E+01  0.40000000000E+01  0.51109989000E-03 0. -1.
     -623   -1    0    0    0    0  0.00000000000E+00  0.00000000000E+00  0.12525980253E-10  0.17130000000E+03  0.17130000000E+03 0. -1.
       11    1    1    2    0    0 -0.67223384021E-03 -0.73893233620E-02  0.17009622085E+01  0.17009784684E+01  0.51109989000E-03 0. -1.
     -623    1    1    2    0    0 -0.16724180794E-02 -0.10285409622E-03  0.11663477272E-03  0.17130000001E+03  0.17130000000E+03 0. -1.
      622    1    1    2    0    0  0.23446519196E-02  0.74921774582E-02  0.22989211241E+01  0.22990215234E+01  0.20000000000E-01 0.  0.
</event>
<event>
 5   0  0.3603037E+08  0.9118800E+02  0.7818608E-02  0.1180000E+00
       11   -1    0    0    0    0  0.00000000000E+00  0.00000000000E+00  0.39999999673E+01  0.40000000000E+01  0.51109989000E-03 0. -1.
     -623   -1    0    0    0    0  0.00000000000E+00  0.00000000000E+00  0.12525980253E-10  0.17130000000E+03  0.17130000000E+03 0.  1.
       11    1    1    2    0    0 -0.96525489387E-02 -0.94697757484E-03  0.25759032617E+01  0.25759215717E+01  0.51109989000E-03 0. -1.
     -623    1    1    2    0    0 -0.33288381173E-03 -0.30321633390E-02  0.19932524288E-03  0.17130000003E+03  0.17130000000E+03 0.  1.
      622    1    1    2    0    0  0.99854327504E-02  0.39791409138E-02  0.14238973804E+01  0.14240784011E+01  0.20000000000E-01 0. -1.
</event>
<event>
 5   0  0.3603037E+08  0.9118800E+02  0.7818608E-02  0.1180000E+00
       11   -1    0    0    0    0  0.00000000000E+00  0.00000000000E+00  0.39999999673E+01  0.40000000000E+01  0.51109989000E-03 0.  1.
     -623   -1    0    0    0    0  0.00000000000E+00  0.00000000000E+00  0.12525980253E-10  0.17130000000E+03  0.17130000000E+03 0.  1.
       11    1    1    2    0    0  0.37405470147E-02 -0.42528744203E-02  0.39455621173E-01  0.39863340238E-01  0.51109989000E-03 0.  1.
     -623    1    1    2    0    0  0.12567513948E-02  0.45046116625E-02  0.46141560388E-03  0.17130000006E+03  0.17130000000E+03 0.  1.
      622    1    1    2    0    0 -0.49972984095E-02 -0.25173724221E-03  0.39600829306E+01  0.39601365953E+01  0.20000000000E-01 0.  1.
</event>
<event>
 5   0  0.3603037E+08  0.9118800E+02  0.7818608E-02  0.1180000E+00
       11   -1    0    0    0    0  0.00000000000E+00  0.00000000000E+00  0.39999999673E+01  0.40000000000E+01  0.51109989000E-03 0.  1.
     -623   -1    0    0    0    0  0.00000000000E+00  0.00000000000E+00  0.12525980253E-10  0.17130000000E+03  0.17130000000E+03 0. -1.
       11    1    1    2    0    0 -0.59106578997E-03 -0.10141144186E-01  0.15803617638E+00  0.15836314732E+00  0.51109989000E-03 0.  1.
     -623    1    1    2    0    0 -0.34863352604E-02  0.28246666265E-02  0.38819015193E-03  0.17130000006E+03  0.17130000000E+03 0. -1.
      622    1    1    2    0    0  0.40774010504E-02  0.73164775597E-02  0.38415756008E+01  0.38416367935E+01  0.20000000000E-01 0.  1.
</event>
<event>
 5   0  0.3603037E+08  0.9118800E+02  0.7818608E-02  0.1180000E+00
       11   -1    0    0    0    0  0.00000000000E+00  0.00000000000E+00  0.39999999673E+01  0.40000000000E+01  0.51109989000E-03 0.  1.
     -623   -1    0    0    0    0  0.00000000000E+00  0.00000000000E+00  0.12525980253E-10  0.17130000000E+03  0.17130000000E+03 0.  1.
       11    1    1    2    0    0 -0.10383294268E-01 -0.55180137104E-02  0.65369123064E+00  0.65379717613E+00  0.51109989000E-03 0.  1.
     -623    1    1    2    0    0 -0.21114142071E-02  0.27677520402E-02  0.19017645000E-03  0.17130000004E+03  0.17130000000E+03 0.  1.
      622    1    1    2    0    0  0.12494708475E-01  0.27502616702E-02  0.33461185603E+01  0.33462027884E+01  0.20000000000E-01 0.  1.
</event>
<event>
 5   0  0.3603037E+08  0.9118800E+02  0.7818608E-02  0.1180000E+00
       11   -1    0    0    0    0  0.00000000000E+00  0.00000000000E+00  0.39999999673E+01  0.40000000000E+01  0.51109989000E-03 0.  1.
     -623   -1    0    0    0    0  0.00000000000E+00  0.00000000000E+00  0.12525980253E-10  0.17130000000E+03  0.17130000000E+03 0. -1.
       11    1    1    2    0    0  0.16230993782E-02 -0.65559003287E-02  0.11981878119E+01  0.11982069554E+01  0.51109989000E-03 0.  1.
     -623    1    1    2    0    0 -0.47841794580E-02  0.12233774784E-01  0.98534950684E-04  0.17130000050E+03  0.17130000000E+03 0. -1.
      622    1    1    2    0    0  0.31610800798E-02 -0.56778744553E-02  0.28017136205E+01  0.28017925409E+01  0.20000000000E-01 0.  1.
</event>
<event>
 5   0  0.3603037E+08  0.9118800E+02  0.7818608E-02  0.1180000E+00
       11   -1    0    0    0    0  0.00000000000E+00  0.00000000000E+00  0.39999999673E+01  0.40000000000E+01  0.51109989000E-03 0. -1.
     -623   -1    0    0    0    0  0.00000000000E+00  0.00000000000E+00  0.12525980253E-10  0.17130000000E+03  0.17130000000E+03 0.  1.
       11    1    1    2    0    0 -0.16011476148E-02 -0.11073179071E-02  0.20975375893E-01  0.21071721387E-01  0.51109989000E-03 0. -1.
     -623    1    1    2    0    0 -0.19631038286E-03 -0.41751646226E-03  0.14727683127E-03  0.17130000000E+03  0.17130000000E+03 0.  1.
      622    1    1    2    0    0  0.17974579977E-02  0.15248343694E-02  0.39788773146E+01  0.39789282779E+01  0.20000000000E-01 0. -1.
</event>
<event>
 5   0  0.3603037E+08  0.9118800E+02  0.7818608E-02  0.1180000E+00
       11   -1    0    0    0    0  0.00000000000E+00  0.00000000000E+00  0.39999999673E+01  0.40000000000E+01  0.51109989000E-03 0.  1.
     -623   -1    0    0    0    0  0.00000000000E+00  0.00000000000E+00  0.12525980253E-10  0.17130000000E+03  0.17130000000E+03 0.  1.
       11    1    1    2    0    0 -0.17190245902E-03 -0.19547563937E-02  0.62432139961E-01  0.62465061788E-01  0.51109989000E-03 0.  1.
     -623    1    1    2    0    0 -0.61389233632E-03  0.29223599193E-03  0.84113476135E-04  0.17130000000E+03  0.17130000000E+03 0.  1.
      622    1    1    2    0    0  0.78579479534E-03  0.16625204018E-02  0.39374837139E+01  0.39375349368E+01  0.20000000000E-01 0.  1.
</event>
<event>
 5   0  0.3603037E+08  0.9118800E+02  0.7818608E-02  0.1180000E+00
       11   -1    0    0    0    0  0.00000000000E+00  0.00000000000E+00  0.39999999673E+01  0.40000000000E+01  0.51109989000E-03 0. -1.
     -623   -1    0    0    0    0  0.00000000000E+00  0.00000000000E+00  0.12525980253E-10  0.17130000000E+03  0.17130000000E+03 0. -1.
       11    1    1    2    0    0  0.96673584412E-03  0.28410822400E-02  0.93970077865E+00  0.93970570975E+00  0.51109989000E-03 0. -1.
     -623    1    1    2    0    0  0.64533572362E-04  0.15624107811E-03  0.71894072278E-04  0.17130000000E+03  0.17130000000E+03 0. -1.
      622    1    1    2    0    0 -0.10312694165E-02 -0.29973233181E-02  0.30602272946E+01  0.30602942901E+01  0.20000000000E-01 0. -1.
</event>
<event>
 5   0  0.3603037E+08  0.9118800E+02  0.7818608E-02  0.1180000E+00
       11   -1    0    0    0    0  0.00000000000E+00  0.00000000000E+00  0.39999999673E+01  0.40000000000E+01  0.51109989000E-03 0. -1.
     -623   -1    0    0    0    0  0.00000000000E+00  0.00000000000E+00  0.12525980253E-10  0.17130000000E+03  0.17130000000E+03 0. -1.
       11    1    1    2    0    0 -0.60182320109E-02  0.32721887607E-03  0.10192873114E+00  0.10210804885E+00  0.51109989000E-03 0. -1.
     -623    1    1    2    0    0 -0.20732018435E-04 -0.20983087231E-03  0.23527537787E-03  0.17130000000E+03  0.17130000000E+03 0. -1.
      622    1    1    2    0    0  0.60389640294E-02 -0.11738800376E-03  0.38978359608E+01  0.38978919509E+01  0.20000000000E-01 0. -1.
</event>
<event>
 5   0  0.3603037E+08  0.9118800E+02  0.7818608E-02  0.1180000E+00
       11   -1    0    0    0    0  0.00000000000E+00  0.00000000000E+00  0.39999999673E+01  0.40000000000E+01  0.51109989000E-03 0. -1.
     -623   -1    0    0    0    0  0.00000000000E+00  0.00000000000E+00  0.12525980253E-10  0.17130000000E+03  0.17130000000E+03 0. -1.
       11    1    1    2    0    0 -0.16938598151E-02 -0.12939174048E-02  0.23964452690E-02  0.32476998848E-02  0.51109989000E-03 0. -1.
     -623    1    1    2    0    0  0.24412604240E-02  0.32724401349E-02  0.90187355267E-03  0.17130000005E+03  0.17130000000E+03 0. -1.
      622    1    1    2    0    0 -0.74740060888E-03 -0.19785227301E-02  0.39967016485E+01  0.39967522491E+01  0.20000000000E-01 0. -1.
</event>
<event>
 5   0  0.3603037E+08  0.9118800E+02  0.7818608E-02  0.1180000E+00
       11   -1    0    0    0    0  0.00000000000E+00  0.00000000000E+00  0.39999999673E+01  0.40000000000E+01  0.51109989000E-03 0. -1.
     -623   -1    0    0    0    0  0.00000000000E+00  0.00000000000E+00  0.12525980253E-10  0.17130000000E+03  0.17130000000E+03 0. -1.
       11    1    1    2    0    0 -0.60270608503E-02 -0.17872027248E-02  0.78933334356E+00  0.78935854213E+00  0.51109989000E-03 0. -1.
     -623    1    1    2    0    0  0.13491272553E-02 -0.29769886693E-04  0.91386828434E-04  0.17130000001E+03  0.17130000000E+03 0. -1.
      622    1    1    2    0    0  0.46779335949E-02  0.18169726115E-02  0.32105752370E+01  0.32106414525E+01  0.20000000000E-01 0. -1.
</event>
<event>
 5   0  0.3603037E+08  0.9118800E+02  0.7818608E-02  0.1180000E+00
       11   -1    0    0    0    0  0.00000000000E+00  0.00000000000E+00  0.39999999673E+01  0.40000000000E+01  0.51109989000E-03 0. -1.
     -623   -1    0    0    0    0  0.00000000000E+00  0.00000000000E+00  0.12525980253E-10  0.17130000000E+03  0.17130000000E+03 0.  1.
       11    1    1    2    0    0  0.27102627412E-03  0.25063169009E-02  0.15069965594E+00  0.15072160629E+00  0.51109989000E-03 0. -1.
     -623    1    1    2    0    0  0.46359098720E-04 -0.24905029869E-03  0.74550987237E-04  0.17130000000E+03  0.17130000000E+03 0.  1.
      622    1    1    2    0    0 -0.31738537284E-03 -0.22572666022E-02  0.38492257604E+01  0.38492783935E+01  0.20000000000E-01 0.  0.
</event>
<event>
 5   0  0.3603037E+08  0.9118800E+02  0.7818608E-02  0.1180000E+00
       11   -1    0    0    0    0  0.00000000000E+00  0.00000000000E+00  0.39999999673E+01  0.40000000000E+01  0.51109989000E-03 0. -1.
     -623   -1    0    0    0    0  0.00000000000E+00  0.00000000000E+00  0.12525980253E-10  0.17130000000E+03  0.17130000000E+03 0.  1.
       11    1    1    2    0    0 -0.97708867540E-02  0.11484649594E-02  0.16762615759E+01  0.16762905241E+01  0.51109989000E-03 0. -1.
     -623    1    1    2    0    0  0.74275885515E-02  0.42217226189E-02  0.12258673392E-03  0.17130000021E+03  0.17130000000E+03 0.  1.
      622    1    1    2    0    0  0.23432982026E-02 -0.53701875783E-02  0.23236158047E+01  0.23237092628E+01  0.20000000000E-01 0. -1.
</event>
<event>
 5   0  0.3603037E+08  0.9118800E+02  0.7818608E-02  0.1180000E+00
       11   -1    0    0    0    0  0.00000000000E+00  0.00000000000E+00  0.39999999673E+01  0.40000000000E+01  0.51109989000E-03 0. -1.
     -623   -1    0    0    0    0  0.00000000000E+00  0.00000000000E+00  0.12525980253E-10  0.17130000000E+03  0.17130000000E+03 0.  1.
       11    1    1    2    0    0  0.91516645147E-02  0.13133627828E-01  0.21091009545E+01  0.21091617630E+01  0.51109989000E-03 0. -1.
     -623    1    1    2    0    0 -0.20515757068E-02 -0.11393697431E-02  0.21794414983E-03  0.17130000002E+03  0.17130000000E+03 0.  1.
      622    1    1    2    0    0 -0.71000888080E-02 -0.11994258085E-01  0.18906810687E+01  0.18908382208E+01  0.20000000000E-01 0.  0.
</event>
<event>
 5   0  0.3603037E+08  0.9118800E+02  0.7818608E-02  0.1180000E+00
       11   -1    0    0    0    0  0.00000000000E+00  0.00000000000E+00  0.39999999673E+01  0.40000000000E+01  0.51109989000E-03 0.  1.
     -623   -1    0    0    0    0  0.00000000000E+00  0.00000000000E+00  0.12525980253E-10  0.17130000000E+03  0.17130000000E+03 0.  1.
       11    1    1    2    0    0  0.80889198318E-02 -0.52029027164E-02  0.18361269697E+01  0.18361522298E+01  0.51109989000E-03 0.  1.
     -623    1    1    2    0    0 -0.19162720451E-02 -0.68168030923E-03  0.13447595012E-03  0.17130000001E+03  0.17130000000E+03 0.  1.
      622    1    1    2    0    0 -0.61726477867E-02  0.58845830256E-02  0.21637385217E+01  0.21638477581E+01  0.20000000000E-01 0. -1.
</event>
<event>
 5   0  0.3603037E+08  0.9118800E+02  0.7818608E-02  0.1180000E+00
       11   -1    0    0    0    0  0.00000000000E+00  0.00000000000E+00  0.39999999673E+01  0.40000000000E+01  0.51109989000E-03 0.  1.
     -623   -1    0    0    0    0  0.00000000000E+00  0.00000000000E+00  0.12525980253E-10  0.17130000000E+03  0.17130000000E+03 0. -1.
       11    1    1    2    0    0 -0.44770760606E-03 -0.65457484159E-03  0.20337398131E-01  0.20359270506E-01  0.51109989000E-03 0.  1.
     -623    1    1    2    0    0 -0.69472003313E-04  0.12531534901E-03  0.72164720296E-04  0.17130000000E+03  0.17130000000E+03 0. -1.
      622    1    1    2    0    0  0.51717960938E-03  0.52925949257E-03  0.39795904045E+01  0.39796407294E+01  0.20000000000E-01 0.  1.
</event>
<event>
 5   0  0.3603037E+08  0.9118800E+02  0.7818608E-02  0.1180000E+00
       11   -1    0    0    0    0  0.00000000000E+00  0.00000000000E+00  0.39999999673E+01  0.40000000000E+01  0.51109989000E-03 0.  1.
     -623   -1    0    0    0    0  0.00000000000E+00  0.00000000000E+00  0.12525980253E-10  0.17130000000E+03  0.17130000000E+03 0. -1.
       11    1    1    2    0    0  0.52886115647E-03 -0.84020787951E-04  0.18338197682E+00  0.18338347089E+00  0.51109989000E-03 0.  1.
     -623    1    1    2    0    0  0.18926392286E-03 -0.71309183715E-04  0.53935079835E-04  0.17130000000E+03  0.17130000000E+03 0. -1.
      622    1    1    2    0    0 -0.71812507933E-03  0.15532997167E-03  0.38165640555E+01  0.38166165290E+01  0.20000000000E-01 0.  1.
</event>
<event>
 5   0  0.3603037E+08  0.9118800E+02  0.7818608E-02  0.1180000E+00
       11   -1    0    0    0    0  0.00000000000E+00  0.00000000000E+00  0.39999999673E+01  0.40000000000E+01  0.51109989000E-03 0.  1.
     -623   -1    0    0    0    0  0.00000000000E+00  0.00000000000E+00  0.12525980253E-10  0.17130000000E+03  0.17130000000E+03 0. -1.
       11    1    1    2    0    0 -0.10445931636E-02  0.49994565508E-03  0.63069490015E+00  0.63069617044E+00  0.51109989000E-03 0.  1.
     -623    1    1    2    0    0  0.68781732144E-02  0.88232231660E-02  0.78912462287E-04  0.17130000037E+03  0.17130000000E+03 0. -1.
      622    1    1    2    0    0 -0.58335800508E-02 -0.93231688211E-02  0.33692261548E+01  0.33693034642E+01  0.20000000000E-01 0.  0.
</event>
<event>
 5   0  0.3603037E+08  0.9118800E+02  0.7818608E-02  0.1180000E+00
       11   -1    0    0    0    0  0.00000000000E+00  0.00000000000E+00  0.39999999673E+01  0.40000000000E+01  0.51109989000E-03 0.  1.
     -623   -1    0    0    0    0  0.00000000000E+00  0.00000000000E+00  0.12525980253E-10  0.17130000000E+03  0.17130000000E+03 0.  1.
       11    1    1    2    0    0 -0.63822020231E-03 -0.30237618130E-02  0.39773895173E+00  0.39775128586E+00  0.51109989000E-03 0.  1.
     -623    1    1    2    0    0  0.15648344532E-03 -0.30179800856E-03  0.69390445743E-04  0.17130000000E+03  0.17130000000E+03 0.  1.
      622    1    1    2    0    0  0.48173675699E-03  0.33255598215E-02  0.36021916252E+01  0.36022487138E+01  0.20000000000E-01 0.  1.
</event>
<event>
 5   0  0.3603037E+08  0.9118800E+02  0.7818608E-02  0.1180000E+00
       11   -1    0    0    0    0  0.00000000000E+00  0.00000000000E+00  0.39999999673E+01  0.40000000000E+01  0.51109989000E-03 0.  1.
     -623   -1    0    0    0    0  0.00000000000E+00  0.00000000000E+00  0.12525980253E-10  0.17130000000E+03  0.17130000000E+03 0.  1.
       11    1    1    2    0    0  0.61036304359E-03 -0.72238481050E-03  0.10286032505E-01  0.10342053490E-01  0.51109989000E-03 0.  1.
     -623    1    1    2    0    0  0.20691424911E-03  0.37566804568E-03  0.10621761688E-03  0.17130000000E+03  0.17130000000E+03 0.  1.
      622    1    1    2    0    0 -0.81727729270E-03  0.34671676483E-03  0.39896077172E+01  0.39896579459E+01  0.20000000000E-01 0.  1.
</event>
<event>
 5   0  0.3603037E+08  0.9118800E+02  0.7818608E-02  0.1180000E+00
       11   -1    0    0    0    0  0.00000000000E+00  0.00000000000E+00  0.39999999673E+01  0.40000000000E+01  0.51109989000E-03 0.  1.
     -623   -1    0    0    0    0  0.00000000000E+00  0.00000000000E+00  0.12525980253E-10  0.17130000000E+03  0.17130000000E+03 0. -1.
       11    1    1    2    0    0  0.63299054948E-03 -0.28610505350E-03  0.94000271721E+00  0.94000311282E+00  0.51109989000E-03 0.  1.
     -623    1    1    2    0    0  0.84165541098E-03 -0.23194400359E-02  0.67205646916E-04  0.17130000002E+03  0.17130000000E+03 0. -1.
      622    1    1    2    0    0 -0.14746459605E-02  0.26055450894E-02  0.30599300445E+01  0.30599968694E+01  0.20000000000E-01 0.  1.
</event>
<event>
 5   0  0.3603037E+08  0.9118800E+02  0.7818608E-02  0.1180000E+00
       11   -1    0    0    0    0  0.00000000000E+00  0.00000000000E+00  0.39999999673E+01  0.40000000000E+01  0.51109989000E-03 0.  1.
     -623   -1    0    0    0    0  0.00000000000E+00  0.00000000000E+00  0.12525980253E-10  0.17130000000E+03  0.17130000000E+03 0. -1.
       11    1    1    2    0    0 -0.98822315078E-03  0.10016801621E-03  0.19245251335E-02  0.22252272657E-02  0.51109989000E-03 0.  1.
     -623    1    1    2    0    0  0.19790795694E-02 -0.13640393262E-02  0.35103743875E-03  0.17130000002E+03  0.17130000000E+03 0. -1.
      622    1    1    2    0    0 -0.99085641867E-03  0.12638713100E-02  0.39977244048E+01  0.39977747555E+01  0.20000000000E-01 0.  1.
</event>
<event>
 5   0  0.3603037E+08  0.9118800E+02  0.7818608E-02  0.1180000E+00
       11   -1    0    0    0    0  0.00000000000E+00  0.00000000000E+00  0.39999999673E+01  0.40000000000E+01  0.51109989000E-03 0. -1.
     -623   -1    0    0    0    0  0.00000000000E+00  0.00000000000E+00  0.12525980253E-10  0.17130000000E+03  0.17130000000E+03 0.  1.
       11    1    1    2    0    0 -0.84240921427E-03 -0.23207594520E-02  0.15257903953E+00  0.15259986928E+00  0.51109989000E-03 0. -1.
     -623    1    1    2    0    0  0.55320900104E-03 -0.10672219471E-03  0.73558233403E-04  0.17130000000E+03  0.17130000000E+03 0.  1.
      622    1    1    2    0    0  0.28920021323E-03  0.24274816467E-02  0.38473473696E+01  0.38474001298E+01  0.20000000000E-01 0. -1.
</event>
<event>
 5   0  0.3603037E+08  0.9118800E+02  0.7818608E-02  0.1180000E+00
       11   -1    0    0    0    0  0.00000000000E+00  0.00000000000E+00  0.39999999673E+01  0.40000000000E+01  0.51109989000E-03 0. -1.
     -623   -1    0    0    0    0  0.00000000000E+00  0.00000000000E+00  0.12525980253E-10  0.17130000000E+03  0.17130000000E+03 0.  1.
       11    1    1    2    0    0  0.15813148406E-02  0.31935351066E-02  0.68588799812E-01  0.68683214133E-01  0.51109989000E-03 0. -1.
     -623    1    1    2    0    0 -0.52461939229E-02 -0.70612157529E-02  0.14909232364E-03  0.17130000023E+03  0.17130000000E+03 0.  1.
      622    1    1    2    0    0  0.36648790824E-02  0.38676806463E-02  0.39312620752E+01  0.39313165599E+01  0.20000000000E-01 0. -1.
</event>
<event>
 5   0  0.3603037E+08  0.9118800E+02  0.7818608E-02  0.1180000E+00
       11   -1    0    0    0    0  0.00000000000E+00  0.00000000000E+00  0.39999999673E+01  0.40000000000E+01  0.51109989000E-03 0.  1.
     -623   -1    0    0    0    0  0.00000000000E+00  0.00000000000E+00  0.12525980253E-10  0.17130000000E+03  0.17130000000E+03 0. -1.
       11    1    1    2    0    0 -0.12030453085E-02  0.15553588284E-02  0.18992497193E+00  0.18993583823E+00  0.51109989000E-03 0.  1.
     -623    1    1    2    0    0  0.41046360500E-02 -0.37340741354E-02  0.65144285123E-04  0.17130000009E+03  0.17130000000E+03 0. -1.
      622    1    1    2    0    0 -0.29015907414E-02  0.21787153070E-02  0.38100098511E+01  0.38100640719E+01  0.20000000000E-01 0.  1.
</event>
<event>
 5   0  0.3603037E+08  0.9118800E+02  0.7818608E-02  0.1180000E+00
       11   -1    0    0    0    0  0.00000000000E+00  0.00000000000E+00  0.39999999673E+01  0.40000000000E+01  0.51109989000E-03 0.  1.
     -623   -1    0    0    0    0  0.00000000000E+00  0.00000000000E+00  0.12525980253E-10  0.17130000000E+03  0.17130000000E+03 0. -1.
       11    1    1    2    0    0  0.29756906259E-02 -0.31626129966E-02  0.51583776736E+00  0.51585629812E+00  0.51109989000E-03 0.  1.
     -623    1    1    2    0    0 -0.33932483573E-03  0.28349105007E-02  0.76938185785E-04  0.17130000002E+03  0.17130000000E+03 0. -1.
      622    1    1    2    0    0 -0.26363657901E-02  0.32770249589E-03  0.34840852618E+01  0.34841436781E+01  0.20000000000E-01 0.  1.
</event>
<event>
 5   0  0.3603037E+08  0.9118800E+02  0.7818608E-02  0.1180000E+00
       11   -1    0    0    0    0  0.00000000000E+00  0.00000000000E+00  0.39999999673E+01  0.40000000000E+01  0.51109989000E-03 0.  1.
     -623   -1    0    0    0    0  0.00000000000E+00  0.00000000000E+00  0.12525980253E-10  0.17130000000E+03  0.17130000000E+03 0.  1.
       11    1    1    2    0    0  0.27380740877E-01  0.25309612858E-02  0.20212441568E+01  0.20214312537E+01  0.51109989000E-03 0.  1.
     -623    1    1    2    0    0  0.77843057109E-04  0.50708195787E-03  0.48103827494E-03  0.17130000000E+03  0.17130000000E+03 0.  1.
      622    1    1    2    0    0 -0.27458583934E-01 -0.30380432436E-02  0.19782747723E+01  0.19785687448E+01  0.20000000000E-01 0.  1.
</event>
<event>
 5   0  0.3603037E+08  0.9118800E+02  0.7818608E-02  0.1180000E+00
       11   -1    0    0    0    0  0.00000000000E+00  0.00000000000E+00  0.39999999673E+01  0.40000000000E+01  0.51109989000E-03 0.  1.
     -623   -1    0    0    0    0  0.00000000000E+00  0.00000000000E+00  0.12525980253E-10  0.17130000000E+03  0.17130000000E+03 0.  1.
       11    1    1    2    0    0  0.71051297021E-03  0.41121561962E-04  0.30236946317E-01  0.30249639084E-01  0.51109989000E-03 0.  1.
     -623    1    1    2    0    0 -0.42323701274E-04  0.16361633428E-03  0.63103058644E-04  0.17130000000E+03  0.17130000000E+03 0.  1.
      622    1    1    2    0    0 -0.66818926894E-03 -0.20473789625E-03  0.39696999180E+01  0.39697503608E+01  0.20000000000E-01 0.  1.
</event>
<event>
 5   0  0.3603037E+08  0.9118800E+02  0.7818608E-02  0.1180000E+00
       11   -1    0    0    0    0  0.00000000000E+00  0.00000000000E+00  0.39999999673E+01  0.40000000000E+01  0.51109989000E-03 0. -1.
     -623   -1    0    0    0    0  0.00000000000E+00  0.00000000000E+00  0.12525980253E-10  0.17130000000E+03  0.17130000000E+03 0.  1.
       11    1    1    2    0    0 -0.49214182731E-03  0.71969294336E-03  0.10582327098E+01  0.10582331924E+01  0.51109989000E-03 0. -1.
     -623    1    1    2    0    0  0.98048988857E-03  0.34801130098E-02  0.71513789203E-04  0.17130000004E+03  0.17130000000E+03 0.  1.
      622    1    1    2    0    0 -0.48834806125E-03 -0.41998059531E-02  0.29416957437E+01  0.29417667694E+01  0.20000000000E-01 0. -1.
</event>
<event>
 5   0  0.3603037E+08  0.9118800E+02  0.7818608E-02  0.1180000E+00
       11   -1    0    0    0    0  0.00000000000E+00  0.00000000000E+00  0.39999999673E+01  0.40000000000E+01  0.51109989000E-03 0. -1.
     -623   -1    0    0    0    0  0.00000000000E+00  0.00000000000E+00  0.12525980253E-10  0.17130000000E+03  0.17130000000E+03 0.  1.
       11    1    1    2    0    0 -0.93992466131E-03 -0.13063813891E-02  0.12634439524E-01  0.12746778961E-01  0.51109989000E-03 0. -1.
     -623    1    1    2    0    0 -0.42731493622E-02  0.45645306865E-02  0.16732027666E-03  0.17130000011E+03  0.17130000000E+03 0.  1.
      622    1    1    2    0    0  0.52130740235E-02 -0.32581492974E-02  0.39871982076E+01  0.39872531068E+01  0.20000000000E-01 0. -1.
</event>
<event>
 5   0  0.3603037E+08  0.9118800E+02  0.7818608E-02  0.1180000E+00
       11   -1    0    0    0    0  0.00000000000E+00  0.00000000000E+00  0.39999999673E+01  0.40000000000E+01  0.51109989000E-03 0. -1.
     -623   -1    0    0    0    0  0.00000000000E+00  0.00000000000E+00  0.12525980253E-10  0.17130000000E+03  0.17130000000E+03 0.  1.
       11    1    1    2    0    0 -0.11176976179E-01  0.10391892805E-01  0.14965053054E+01  0.14965832107E+01  0.51109989000E-03 0. -1.
     -623    1    1    2    0    0  0.32343669088E-02 -0.72618496444E-02  0.17250635254E-03  0.17130000018E+03  0.17130000000E+03 0.  1.
      622    1    1    2    0    0  0.79426092701E-02 -0.31300431603E-02  0.25033221556E+01  0.25034166048E+01  0.20000000000E-01 0.  0.
</event>
<event>
 5   0  0.3603037E+08  0.9118800E+02  0.7818608E-02  0.1180000E+00
       11   -1    0    0    0    0  0.00000000000E+00  0.00000000000E+00  0.39999999673E+01  0.40000000000E+01  0.51109989000E-03 0. -1.
     -623   -1    0    0    0    0  0.00000000000E+00  0.00000000000E+00  0.12525980253E-10  0.17130000000E+03  0.17130000000E+03 0.  1.
       11    1    1    2    0    0 -0.68207032198E-03  0.25338666525E-02  0.22853654096E+00  0.22855217671E+00  0.51109989000E-03 0. -1.
     -623    1    1    2    0    0 -0.22639657333E-03 -0.88062554754E-04  0.69536182961E-04  0.17130000000E+03  0.17130000000E+03 0.  1.
      622    1    1    2    0    0  0.90846689531E-03 -0.24458040977E-02  0.37713938902E+01  0.37714478231E+01  0.20000000000E-01 0. -1.
</event>
<event>
 5   0  0.3603037E+08  0.9118800E+02  0.7818608E-02  0.1180000E+00
       11   -1    0    0    0    0  0.00000000000E+00  0.00000000000E+00  0.39999999673E+01  0.40000000000E+01  0.51109989000E-03 0.  1.
     -623   -1    0    0    0    0  0.00000000000E+00  0.00000000000E+00  0.12525980253E-10  0.17130000000E+03  0.17130000000E+03 0.  1.
       11    1    1    2    0    0  0.14288648659E-01  0.14308725181E-02  0.10959210764E+00  0.11053010520E+00  0.51109989000E-03 0.  1.
     -623    1    1    2    0    0 -0.10560689556E-01  0.73795224868E-03  0.99210744254E-03  0.17130000033E+03  0.17130000000E+03 0.  1.
      622    1    1    2    0    0 -0.37279591034E-02 -0.21688247668E-02  0.38894157523E+01  0.38894695648E+01  0.20000000000E-01 0.  1.
</event>
<event>
 5   0  0.3603037E+08  0.9118800E+02  0.7818608E-02  0.1180000E+00
       11   -1    0    0    0    0  0.00000000000E+00  0.00000000000E+00  0.39999999673E+01  0.40000000000E+01  0.51109989000E-03 0. -1.
     -623   -1    0    0    0    0  0.00000000000E+00  0.00000000000E+00  0.12525980253E-10  0.17130000000E+03  0.17130000000E+03 0.  1.
       11    1    1    2    0    0  0.87784448163E-03  0.12628960538E-02  0.65463557964E-01  0.65483617493E-01  0.51109989000E-03 0. -1.
     -623    1    1    2    0    0 -0.47746254527E-03 -0.35265176649E-02  0.71567905497E-04  0.17130000004E+03  0.17130000000E+03 0.  1.
      622    1    1    2    0    0 -0.40038193636E-03  0.22636216111E-02  0.39344648415E+01  0.39345163455E+01  0.20000000000E-01 0. -1.
</event>
<event>
 5   0  0.3603037E+08  0.9118800E+02  0.7818608E-02  0.1180000E+00
       11   -1    0    0    0    0  0.00000000000E+00  0.00000000000E+00  0.39999999673E+01  0.40000000000E+01  0.51109989000E-03 0. -1.
     -623   -1    0    0    0    0  0.00000000000E+00  0.00000000000E+00  0.12525980253E-10  0.17130000000E+03  0.17130000000E+03 0. -1.
       11    1    1    2    0    0  0.47703370657E-02  0.44674319396E-02  0.60146662049E+00  0.60150234484E+00  0.51109989000E-03 0. -1.
     -623    1    1    2    0    0  0.40858333009E-03  0.87031551642E-04  0.10154027132E-03  0.17130000000E+03  0.17130000000E+03 0. -1.
      622    1    1    2    0    0 -0.51789203958E-02 -0.45544634912E-02  0.33984318066E+01  0.33984976546E+01  0.20000000000E-01 0. -1.
</event>
<event>
 5   0  0.3603037E+08  0.9118800E+02  0.7818608E-02  0.1180000E+00
       11   -1    0    0    0    0  0.00000000000E+00  0.00000000000E+00  0.39999999673E+01  0.40000000000E+01  0.51109989000E-03 0. -1.
     -623   -1    0    0    0    0  0.00000000000E+00  0.00000000000E+00  0.12525980253E-10  0.17130000000E+03  0.17130000000E+03 0. -1.
       11    1    1    2    0    0 -0.10102939963E-01  0.94480862426E-03  0.15998333187E+01  0.15998655791E+01  0.51109989000E-03 0. -1.
     -623    1    1    2    0    0 -0.37325143453E-04 -0.42157967776E-03  0.13703690582E-03  0.17130000000E+03  0.17130000000E+03 0. -1.
      622    1    1    2    0    0  0.10140265107E-01 -0.52322894650E-03  0.24000296117E+01  0.24001344204E+01  0.20000000000E-01 0.  1.
</event>
<event>
 5   0  0.3603037E+08  0.9118800E+02  0.7818608E-02  0.1180000E+00
       11   -1    0    0    0    0  0.00000000000E+00  0.00000000000E+00  0.39999999673E+01  0.40000000000E+01  0.51109989000E-03 0. -1.
     -623   -1    0    0    0    0  0.00000000000E+00  0.00000000000E+00  0.12525980253E-10  0.17130000000E+03  0.17130000000E+03 0. -1.
       11    1    1    2    0    0  0.40257859893E-02  0.71363288568E-02  0.64371782429E+00  0.64377017069E+00  0.51109989000E-03 0. -1.
     -623    1    1    2    0    0 -0.35760151268E-03 -0.40222537192E-02  0.11540192878E-03  0.17130000005E+03  0.17130000000E+03 0. -1.
      622    1    1    2    0    0 -0.36681844766E-02 -0.31140751376E-02  0.33561667411E+01  0.33562297817E+01  0.20000000000E-01 0.  0.
</event>
<event>
 5   0  0.3603037E+08  0.9118800E+02  0.7818608E-02  0.1180000E+00
       11   -1    0    0    0    0  0.00000000000E+00  0.00000000000E+00  0.39999999673E+01  0.40000000000E+01  0.51109989000E-03 0. -1.
     -623   -1    0    0    0    0  0.00000000000E+00  0.00000000000E+00  0.12525980253E-10  0.17130000000E+03  0.17130000000E+03 0. -1.
       11    1    1    2    0    0  0.73692675278E-03 -0.96964977331E-04  0.12874557219E-01  0.12906118995E-01  0.51109989000E-03 0. -1.
     -623    1    1    2    0    0 -0.60389627235E-03 -0.31029815623E-03  0.81715684988E-04  0.17130000000E+03  0.17130000000E+03 0. -1.
      622    1    1    2    0    0 -0.13303048043E-03  0.40726313356E-03  0.39870436945E+01  0.39870938796E+01  0.20000000000E-01 0. -1.
</event>
<event>
 5   0  0.3603037E+08  0.9118800E+02  0.7818608E-02  0.1180000E+00
       11   -1    0    0    0    0  0.00000000000E+00  0.00000000000E+00  0.39999999673E+01  0.40000000000E+01  0.51109989000E-03 0. -1.
     -623   -1    0    0    0    0  0.00000000000E+00  0.00000000000E+00  0.12525980253E-10  0.17130000000E+03  0.17130000000E+03 0. -1.
       11    1    1    2    0    0 -0.13720341277E-02 -0.17015572689E-02  0.30167225391E-02  0.37602673500E-02  0.51109989000E-03 0. -1.
     -623    1    1    2    0    0  0.22233293954E-03 -0.48666748983E-03  0.79432670485E-03  0.17130000000E+03  0.17130000000E+03 0. -1.
      622    1    1    2    0    0  0.11497011882E-02  0.21882247587E-02  0.39961889181E+01  0.39962397300E+01  0.20000000000E-01 0. -1.
</event>
<event>
 5   0  0.3603037E+08  0.9118800E+02  0.7818608E-02  0.1180000E+00
       11   -1    0    0    0    0  0.00000000000E+00  0.00000000000E+00  0.39999999673E+01  0.40000000000E+01  0.51109989000E-03 0. -1.
     -623   -1    0    0    0    0  0.00000000000E+00  0.00000000000E+00  0.12525980253E-10  0.17130000000E+03  0.17130000000E+03 0.  1.
       11    1    1    2    0    0  0.35841920105E-01  0.70692862250E-02  0.29768143570E+01  0.29770385613E+01  0.51109989000E-03 0. -1.
     -623    1    1    2    0    0 -0.29932640585E-01 -0.66905833023E-02  0.43958949969E-03  0.17130000275E+03  0.17130000000E+03 0.  1.
      622    1    1    2    0    0 -0.59092795197E-02 -0.37870292272E-03  0.10227460208E+01  0.10229586923E+01  0.20000000000E-01 0.  0.
</event>
<event>
 5   0  0.3603037E+08  0.9118800E+02  0.7818608E-02  0.1180000E+00
       11   -1    0    0    0    0  0.00000000000E+00  0.00000000000E+00  0.39999999673E+01  0.40000000000E+01  0.51109989000E-03 0. -1.
     -623   -1    0    0    0    0  0.00000000000E+00  0.00000000000E+00  0.12525980253E-10  0.17130000000E+03  0.17130000000E+03 0.  1.
       11    1    1    2    0    0 -0.14450156970E-01  0.17843268796E-02  0.80710525164E+00  0.80723673065E+00  0.51109989000E-03 0. -1.
     -623    1    1    2    0    0  0.13289605496E-01 -0.97667931343E-02  0.20507264828E-03  0.17130000079E+03  0.17130000000E+03 0.  1.
      622    1    1    2    0    0  0.11605514744E-02  0.79824662546E-02  0.31926896431E+01  0.31927624753E+01  0.20000000000E-01 0. -1.
</event>
<event>
 5   0  0.3603037E+08  0.9118800E+02  0.7818608E-02  0.1180000E+00
       11   -1    0    0    0    0  0.00000000000E+00  0.00000000000E+00  0.39999999673E+01  0.40000000000E+01  0.51109989000E-03 0. -1.
     -623   -1    0    0    0    0  0.00000000000E+00  0.00000000000E+00  0.12525980253E-10  0.17130000000E+03  0.17130000000E+03 0.  1.
       11    1    1    2    0    0 -0.50382418272E-02  0.44488444217E-02  0.33029487761E+00  0.33036365341E+00  0.51109989000E-03 0. -1.
     -623    1    1    2    0    0 -0.76505423899E-03  0.50236545601E-03  0.13117644791E-03  0.17130000000E+03  0.17130000000E+03 0.  1.
      622    1    1    2    0    0  0.58032960661E-02 -0.49512098777E-02  0.36695739133E+01  0.36696363441E+01  0.20000000000E-01 0.  0.
</event>
<event>
 5   0  0.3603037E+08  0.9118800E+02  0.7818608E-02  0.1180000E+00
       11   -1    0    0    0    0  0.00000000000E+00  0.00000000000E+00  0.39999999673E+01  0.40000000000E+01  0.51109989000E-03 0.  1.
     -623   -1    0    0    0    0  0.00000000000E+00  0.00000000000E+00  0.12525980253E-10  0.17130000000E+03  0.17130000000E+03 0.  1.
       11    1    1    2    0    0  0.12251585146E-01 -0.16084762169E-01  0.20809405662E+00  0.20907467216E+00  0.51109989000E-03 0.  1.
     -623    1    1    2    0    0 -0.62054546600E-02  0.17206352045E-01  0.10393080107E-02  0.17130000098E+03  0.17130000000E+03 0.  1.
      622    1    1    2    0    0 -0.60461304860E-02 -0.11215898759E-02  0.37908666027E+01  0.37909243481E+01  0.20000000000E-01 0.  1.
</event>
<event>
 5   0  0.3603037E+08  0.9118800E+02  0.7818608E-02  0.1180000E+00
       11   -1    0    0    0    0  0.00000000000E+00  0.00000000000E+00  0.39999999673E+01  0.40000000000E+01  0.51109989000E-03 0.  1.
     -623   -1    0    0    0    0  0.00000000000E+00  0.00000000000E+00  0.12525980253E-10  0.17130000000E+03  0.17130000000E+03 0.  1.
       11    1    1    2    0    0 -0.36595546268E-02  0.34187695782E-02  0.13708457353E-01  0.14603538939E-01  0.51109989000E-03 0.  1.
     -623    1    1    2    0    0 -0.77452669658E-04  0.98945132377E-03  0.94942803832E-03  0.17130000001E+03  0.17130000000E+03 0.  1.
      622    1    1    2    0    0  0.37370072964E-02 -0.44082209019E-02  0.39853420820E+01  0.39853964556E+01  0.20000000000E-01 0.  1.
</event>
<event>
 5   0  0.3603037E+08  0.9118800E+02  0.7818608E-02  0.1180000E+00
       11   -1    0    0    0    0  0.00000000000E+00  0.00000000000E+00  0.39999999673E+01  0.40000000000E+01  0.51109989000E-03 0.  1.
     -623   -1    0    0    0    0  0.00000000000E+00  0.00000000000E+00  0.12525980253E-10  0.17130000000E+03  0.17130000000E+03 0. -1.
       11    1    1    2    0    0 -0.75595361807E-03 -0.18550202345E-03  0.12889750291E-01  0.12923341685E-01  0.51109989000E-03 0.  1.
     -623    1    1    2    0    0  0.18561905735E-02 -0.19475442308E-03  0.83901263538E-04  0.17130000001E+03  0.17130000000E+03 0. -1.
      622    1    1    2    0    0 -0.11002369554E-02  0.38025644653E-03  0.39870263158E+01  0.39870766481E+01  0.20000000000E-01 0.  1.
</event>
<event>
 5   0  0.3603037E+08  0.9118800E+02  0.7818608E-02  0.1180000E+00
       11   -1    0    0    0    0  0.00000000000E+00  0.00000000000E+00  0.39999999673E+01  0.40000000000E+01  0.51109989000E-03 0. -1.
     -623   -1    0    0    0    0  0.00000000000E+00  0.00000000000E+00  0.12525980253E-10  0.17130000000E+03  0.17130000000E+03 0. -1.
       11    1    1    2    0    0  0.77891254070E-03 -0.35465713651E-02  0.16763710382E+01  0.16763750487E+01  0.51109989000E-03 0. -1.
     -623    1    1    2    0    0  0.11632003319E-03 -0.11131541870E-03  0.93103659319E-04  0.17130000000E+03  0.17130000000E+03 0. -1.
      622    1    1    2    0    0 -0.89523257389E-03  0.36578867838E-02  0.23235358255E+01  0.23236249512E+01  0.20000000000E-01 0. -1.
</event>
<event>
 5   0  0.3603037E+08  0.9118800E+02  0.7818608E-02  0.1180000E+00
       11   -1    0    0    0    0  0.00000000000E+00  0.00000000000E+00  0.39999999673E+01  0.40000000000E+01  0.51109989000E-03 0.  1.
     -623   -1    0    0    0    0  0.00000000000E+00  0.00000000000E+00  0.12525980253E-10  0.17130000000E+03  0.17130000000E+03 0. -1.
       11    1    1    2    0    0 -0.56579134346E-02  0.57902012071E-02  0.53544426465E+00  0.53550570508E+00  0.51109989000E-03 0.  1.
     -623    1    1    2    0    0  0.15853498914E-02  0.10868218205E-02  0.12836688573E-03  0.17130000001E+03  0.17130000000E+03 0. -1.
      622    1    1    2    0    0  0.40725635432E-02 -0.68770230276E-02  0.34644273358E+01  0.34644942841E+01  0.20000000000E-01 0.  1.
</event>
<event>
 5   0  0.3603037E+08  0.9118800E+02  0.7818608E-02  0.1180000E+00
       11   -1    0    0    0    0  0.00000000000E+00  0.00000000000E+00  0.39999999673E+01  0.40000000000E+01  0.51109989000E-03 0. -1.
     -623   -1    0    0    0    0  0.00000000000E+00  0.00000000000E+00  0.12525980253E-10  0.17130000000E+03  0.17130000000E+03 0. -1.
       11    1    1    2    0    0  0.33743113295E-02 -0.30447385793E-02  0.11570207844E+00  0.11579243752E+00  0.51109989000E-03 0. -1.
     -623    1    1    2    0    0  0.88524669059E-03  0.16981474498E-02  0.14439714973E-03  0.17130000001E+03  0.17130000000E+03 0. -1.
      622    1    1    2    0    0 -0.42595580201E-02  0.13465911295E-02  0.38841534918E+01  0.38842075517E+01  0.20000000000E-01 0. -1.
</event>
<event>
 5   0  0.3603037E+08  0.9118800E+02  0.7818608E-02  0.1180000E+00
       11   -1    0    0    0    0  0.00000000000E+00  0.00000000000E+00  0.39999999673E+01  0.40000000000E+01  0.51109989000E-03 0.  1.
     -623   -1    0    0    0    0  0.00000000000E+00  0.00000000000E+00  0.12525980253E-10  0.17130000000E+03  0.17130000000E+03 0. -1.
       11    1    1    2    0    0  0.22180331570E-02 -0.97953685823E-02  0.21594815214E+01  0.21595049366E+01  0.51109989000E-03 0.  1.
     -623    1    1    2    0    0 -0.59458615330E-02  0.14366558970E-01  0.14221049188E-03  0.17130000071E+03  0.17130000000E+03 0. -1.
      622    1    1    2    0    0  0.37278283760E-02 -0.45711903880E-02  0.18403762355E+01  0.18404943577E+01  0.20000000000E-01 0.  1.
</event>
<event>
 5   0  0.3603037E+08  0.9118800E+02  0.7818608E-02  0.1180000E+00
       11   -1    0    0    0    0  0.00000000000E+00  0.00000000000E+00  0.39999999673E+01  0.40000000000E+01  0.51109989000E-03 0. -1.
     -623   -1    0    0    0    0  0.00000000000E+00  0.00000000000E+00  0.12525980253E-10  0.17130000000E+03  0.17130000000E+03 0. -1.
       11    1    1    2    0    0  0.66665753994E-04  0.81586120851E-02  0.24657998579E+00  0.24671545961E+00  0.51109989000E-03 0. -1.
     -623    1    1    2    0    0 -0.60068827236E-02 -0.68572068635E-02  0.19389730130E-03  0.17130000024E+03  0.17130000000E+03 0. -1.
      622    1    1    2    0    0  0.59402169697E-02 -0.13014052216E-02  0.37532260843E+01  0.37532842977E+01  0.20000000000E-01 0. -1.
</event>
<event>
 5   0  0.3603037E+08  0.9118800E+02  0.7818608E-02  0.1180000E+00
       11   -1    0    0    0    0  0.00000000000E+00  0.00000000000E+00  0.39999999673E+01  0.40000000000E+01  0.51109989000E-03 0. -1.
     -623   -1    0    0    0    0  0.00000000000E+00  0.00000000000E+00  0.12525980253E-10  0.17130000000E+03  0.17130000000E+03 0.  1.
       11    1    1    2    0    0 -0.13795427819E-03 -0.17498213484E-03  0.12411552457E-01  0.12424069594E-01  0.51109989000E-03 0. -1.
     -623    1    1    2    0    0  0.66935411770E-03  0.42254121629E-05  0.62680981054E-04  0.17130000000E+03  0.17130000000E+03 0.  1.
      622    1    1    2    0    0 -0.53139983951E-03  0.17075672267E-03  0.39875257339E+01  0.39875759291E+01  0.20000000000E-01 0. -1.
</event>
<event>
 5   0  0.3603037E+08  0.9118800E+02  0.7818608E-02  0.1180000E+00
       11   -1    0    0    0    0  0.00000000000E+00  0.00000000000E+00  0.39999999673E+01  0.40000000000E+01  0.51109989000E-03 0.  1.
     -623   -1    0    0    0    0  0.00000000000E+00  0.00000000000E+00  0.12525980253E-10  0.17130000000E+03  0.17130000000E+03 0.  1.
       11    1    1    2    0    0 -0.23994526865E-02 -0.17689699026E-01  0.22568974603E+01  0.22569681191E+01  0.51109989000E-03 0.  1.
     -623    1    1    2    0    0  0.91942588448E-02 -0.35760016579E-03  0.29230473862E-03  0.17130000025E+03  0.17130000000E+03 0.  1.
      622    1    1    2    0    0 -0.67948061583E-02  0.18047299192E-01  0.17428102023E+01  0.17430316336E+01  0.20000000000E-01 0. -1.
</event>
<event>
 5   0  0.3603037E+08  0.9118800E+02  0.7818608E-02  0.1180000E+00
       11   -1    0    0    0    0  0.00000000000E+00  0.00000000000E+00  0.39999999673E+01  0.40000000000E+01  0.51109989000E-03 0. -1.
     -623   -1    0    0    0    0  0.00000000000E+00  0.00000000000E+00  0.12525980253E-10  0.17130000000E+03  0.17130000000E+03 0.  1.
       11    1    1    2    0    0 -0.91663213304E-02  0.19320949694E-01  0.30691035434E+01  0.30691780890E+01  0.51109989000E-03 0. -1.
     -623    1    1    2    0    0 -0.43853320104E-02 -0.37155999566E-02  0.51904095743E-03  0.17130000010E+03  0.17130000000E+03 0.  1.
      622    1    1    2    0    0  0.13551653341E-01 -0.15605349737E-01  0.93037738299E+00  0.93082181379E+00  0.20000000000E-01 0.  1.
</event>
<event>
 5   0  0.3603037E+08  0.9118800E+02  0.7818608E-02  0.1180000E+00
       11   -1    0    0    0    0  0.00000000000E+00  0.00000000000E+00  0.39999999673E+01  0.40000000000E+01  0.51109989000E-03 0. -1.
     -623   -1    0    0    0    0  0.00000000000E+00  0.00000000000E+00  0.12525980253E-10  0.17130000000E+03  0.17130000000E+03 0.  1.
       11    1    1    2    0    0 -0.10656674245E-01 -0.35725312228E-02  0.24864627492E+01  0.24864882047E+01  0.51109989000E-03 0. -1.
     -623    1    1    2    0    0 -0.79454496655E-02  0.80342527958E-03  0.27462249878E-03  0.17130000019E+03  0.17130000000E+03 0.  1.
      622    1    1    2    0    0  0.18602123910E-01  0.27691059432E-02  0.15132625957E+01  0.15135116090E+01  0.20000000000E-01 0.  0.
</event>
<event>
 5   0  0.3603037E+08  0.9118800E+02  0.7818608E-02  0.1180000E+00
       11   -1    0    0    0    0  0.00000000000E+00  0.00000000000E+00  0.39999999673E+01  0.40000000000E+01  0.51109989000E-03 0. -1.
     -623   -1    0    0    0    0  0.00000000000E+00  0.00000000000E+00  0.12525980253E-10  0.17130000000E+03  0.17130000000E+03 0. -1.
       11    1    1    2    0    0  0.41302693272E-03 -0.32768735978E-02  0.15436246768E+00  0.15439864359E+00  0.51109989000E-03 0. -1.
     -623    1    1    2    0    0  0.69313502151E-03  0.41523253908E-04  0.89672598779E-04  0.17130000000E+03  0.17130000000E+03 0. -1.
      622    1    1    2    0    0 -0.11061619542E-02  0.32353503439E-02  0.38455478271E+01  0.38456013550E+01  0.20000000000E-01 0. -1.
</event>
<event>
 5   0  0.3603037E+08  0.9118800E+02  0.7818608E-02  0.1180000E+00
       11   -1    0    0    0    0  0.00000000000E+00  0.00000000000E+00  0.39999999673E+01  0.40000000000E+01  0.51109989000E-03 0. -1.
     -623   -1    0    0    0    0  0.00000000000E+00  0.00000000000E+00  0.12525980253E-10  0.17130000000E+03  0.17130000000E+03 0. -1.
       11    1    1    2    0    0  0.38728313921E-02  0.67177487232E-03  0.13408643616E+01  0.13408702202E+01  0.51109989000E-03 0. -1.
     -623    1    1    2    0    0  0.12253461945E-03 -0.92115415204E-04  0.84104535698E-04  0.17130000000E+03  0.17130000000E+03 0. -1.
      622    1    1    2    0    0 -0.39953660116E-02 -0.57965945712E-03  0.26590515012E+01  0.26591297797E+01  0.20000000000E-01 0. -1.
</event>
<event>
 5   0  0.3603037E+08  0.9118800E+02  0.7818608E-02  0.1180000E+00
       11   -1    0    0    0    0  0.00000000000E+00  0.00000000000E+00  0.39999999673E+01  0.40000000000E+01  0.51109989000E-03 0. -1.
     -623   -1    0    0    0    0  0.00000000000E+00  0.00000000000E+00  0.12525980253E-10  0.17130000000E+03  0.17130000000E+03 0. -1.
       11    1    1    2    0    0 -0.12722976965E-01  0.10972074617E-01  0.38869600672E-01  0.42348171644E-01  0.51109989000E-03 0. -1.
     -623    1    1    2    0    0  0.67577899714E-02 -0.73241987709E-02  0.35355768223E-02  0.17130000033E+03  0.17130000000E+03 0. -1.
      622    1    1    2    0    0  0.59651869932E-02 -0.36478758457E-02  0.39575947899E+01  0.39576515020E+01  0.20000000000E-01 0. -1.
</event>
<event>
 5   0  0.3603037E+08  0.9118800E+02  0.7818608E-02  0.1180000E+00
       11   -1    0    0    0    0  0.00000000000E+00  0.00000000000E+00  0.39999999673E+01  0.40000000000E+01  0.51109989000E-03 0. -1.
     -623   -1    0    0    0    0  0.00000000000E+00  0.00000000000E+00  0.12525980253E-10  0.17130000000E+03  0.17130000000E+03 0. -1.
       11    1    1    2    0    0 -0.63590220579E-03 -0.10160577231E-02  0.10327060043E+00  0.10327882105E+00  0.51109989000E-03 0. -1.
     -623    1    1    2    0    0 -0.95294610346E-04  0.32675673353E-03  0.59643447047E-04  0.17130000000E+03  0.17130000000E+03 0. -1.
      622    1    1    2    0    0  0.73119681613E-03  0.68930098956E-03  0.38966697235E+01  0.38967211786E+01  0.20000000000E-01 0. -1.
</event>
<event>
 5   0  0.3603037E+08  0.9118800E+02  0.7818608E-02  0.1180000E+00
       11   -1    0    0    0    0  0.00000000000E+00  0.00000000000E+00  0.39999999673E+01  0.40000000000E+01  0.51109989000E-03 0.  1.
     -623   -1    0    0    0    0  0.00000000000E+00  0.00000000000E+00  0.12525980253E-10  0.17130000000E+03  0.17130000000E+03 0.  1.
       11    1    1    2    0    0 -0.21383398268E-02 -0.67199881100E-03  0.45204704903E-01  0.45263126778E-01  0.51109989000E-03 0.  1.
     -623    1    1    2    0    0 -0.90851854317E-04  0.33824024882E-03  0.10960457904E-03  0.17130000000E+03  0.17130000000E+03 0.  1.
      622    1    1    2    0    0  0.22291916811E-02  0.33375856218E-03  0.39546856579E+01  0.39547368728E+01  0.20000000000E-01 0.  1.
</event>
<event>
 5   0  0.3603037E+08  0.9118800E+02  0.7818608E-02  0.1180000E+00
       11   -1    0    0    0    0  0.00000000000E+00  0.00000000000E+00  0.39999999673E+01  0.40000000000E+01  0.51109989000E-03 0.  1.
     -623   -1    0    0    0    0  0.00000000000E+00  0.00000000000E+00  0.12525980253E-10  0.17130000000E+03  0.17130000000E+03 0.  1.
       11    1    1    2    0    0  0.10945199225E-02  0.37886589717E-02  0.26570920846E+00  0.26573896325E+00  0.51109989000E-03 0.  1.
     -623    1    1    2    0    0 -0.62859225727E-02  0.14640828661E-03  0.89078067103E-04  0.17130000012E+03  0.17130000000E+03 0.  1.
      622    1    1    2    0    0  0.51914026502E-02 -0.39350672583E-02  0.37342016808E+01  0.37342609213E+01  0.20000000000E-01 0.  1.
</event>
<event>
 5   0  0.3603037E+08  0.9118800E+02  0.7818608E-02  0.1180000E+00
       11   -1    0    0    0    0  0.00000000000E+00  0.00000000000E+00  0.39999999673E+01  0.40000000000E+01  0.51109989000E-03 0.  1.
     -623   -1    0    0    0    0  0.00000000000E+00  0.00000000000E+00  0.12525980253E-10  0.17130000000E+03  0.17130000000E+03 0.  1.
       11    1    1    2    0    0  0.74914176448E-03 -0.46433326634E-02  0.14418927233E-01  0.15175257360E-01  0.51109989000E-03 0.  1.
     -623    1    1    2    0    0 -0.15516171607E-02  0.54167791536E-02  0.80673865435E-03  0.17130000009E+03  0.17130000000E+03 0.  1.
      622    1    1    2    0    0  0.80247539619E-03 -0.77344649024E-03  0.39847743015E+01  0.39848246481E+01  0.20000000000E-01 0.  1.
</event>
<event>
 5   0  0.3603037E+08  0.9118800E+02  0.7818608E-02  0.1180000E+00
       11   -1    0    0    0    0  0.00000000000E+00  0.00000000000E+00  0.39999999673E+01  0.40000000000E+01  0.51109989000E-03 0. -1.
     -623   -1    0    0    0    0  0.00000000000E+00  0.00000000000E+00  0.12525980253E-10  0.17130000000E+03  0.17130000000E+03 0.  1.
       11    1    1    2    0    0  0.13766544550E-02 -0.14591413065E-03  0.17235896050E-01  0.17298953804E-01  0.51109989000E-03 0.  1.
     -623    1    1    2    0    0  0.16674655786E-03  0.15959166407E-03  0.11354188151E-03  0.17130000000E+03  0.17130000000E+03 0.  1.
      622    1    1    2    0    0 -0.15434010128E-02 -0.13677533413E-04  0.39826505294E+01  0.39827010460E+01  0.20000000000E-01 0. -1.
</event>
<event>
 5   0  0.3603037E+08  0.9118800E+02  0.7818608E-02  0.1180000E+00
       11   -1    0    0    0    0  0.00000000000E+00  0.00000000000E+00  0.39999999673E+01  0.40000000000E+01  0.51109989000E-03 0.  1.
     -623   -1    0    0    0    0  0.00000000000E+00  0.00000000000E+00  0.12525980253E-10  0.17130000000E+03  0.17130000000E+03 0.  1.
       11    1    1    2    0    0 -0.16474735174E-02  0.17052916789E-02  0.53544661974E-01  0.53599573086E-01  0.51109989000E-03 0.  1.
     -623    1    1    2    0    0  0.26895236807E-02 -0.40968881252E-02  0.10649029743E-03  0.17130000007E+03  0.17130000000E+03 0.  1.
      622    1    1    2    0    0 -0.10420501633E-02  0.23915964463E-02  0.39463488151E+01  0.39464003568E+01  0.20000000000E-01 0.  1.
</event>
<event>
 5   0  0.3603037E+08  0.9118800E+02  0.7818608E-02  0.1180000E+00
       11   -1    0    0    0    0  0.00000000000E+00  0.00000000000E+00  0.39999999673E+01  0.40000000000E+01  0.51109989000E-03 0. -1.
     -623   -1    0    0    0    0  0.00000000000E+00  0.00000000000E+00  0.12525980253E-10  0.17130000000E+03  0.17130000000E+03 0.  1.
       11    1    1    2    0    0 -0.11861028582E-01  0.31722715965E-02  0.11345082756E+01  0.11345748261E+01  0.51109989000E-03 0. -1.
     -623    1    1    2    0    0  0.35738677229E-02  0.15553262915E-02  0.15224490262E-03  0.17130000004E+03  0.17130000000E+03 0.  1.
      622    1    1    2    0    0  0.82871608589E-02 -0.47275978880E-02  0.28653394468E+01  0.28654251295E+01  0.20000000000E-01 0.  0.
</event>
<event>
 5   0  0.3603037E+08  0.9118800E+02  0.7818608E-02  0.1180000E+00
       11   -1    0    0    0    0  0.00000000000E+00  0.00000000000E+00  0.39999999673E+01  0.40000000000E+01  0.51109989000E-03 0. -1.
     -623   -1    0    0    0    0  0.00000000000E+00  0.00000000000E+00  0.12525980253E-10  0.17130000000E+03  0.17130000000E+03 0.  1.
       11    1    1    2    0    0 -0.22029679816E-02 -0.34656165258E-02  0.75829903422E+00  0.75831032572E+00  0.51109989000E-03 0. -1.
     -623    1    1    2    0    0  0.71014694170E-02  0.35673419024E-02  0.76842747681E-04  0.17130000018E+03  0.17130000000E+03 0.  1.
      622    1    1    2    0    0 -0.48985014354E-02 -0.10172537666E-03  0.32416240904E+01  0.32416894899E+01  0.20000000000E-01 0. -1.
</event>
<event>
 5   0  0.3603037E+08  0.9118800E+02  0.7818608E-02  0.1180000E+00
       11   -1    0    0    0    0  0.00000000000E+00  0.00000000000E+00  0.39999999673E+01  0.40000000000E+01  0.51109989000E-03 0. -1.
     -623   -1    0    0    0    0  0.00000000000E+00  0.00000000000E+00  0.12525980253E-10  0.17130000000E+03  0.17130000000E+03 0. -1.
       11    1    1    2    0    0  0.35475262468E-01 -0.58976409331E-04  0.15118251485E+00  0.15528976703E+00  0.51109989000E-03 0. -1.
     -623    1    1    2    0    0 -0.14616857040E-01  0.75931302952E-02  0.42240475863E-02  0.17130000084E+03  0.17130000000E+03 0. -1.
      622    1    1    2    0    0 -0.20858405428E-01 -0.75341538858E-02  0.38445934049E+01  0.38447093890E+01  0.20000000000E-01 0. -1.
</event>
<event>
 5   0  0.3603037E+08  0.9118800E+02  0.7818608E-02  0.1180000E+00
       11   -1    0    0    0    0  0.00000000000E+00  0.00000000000E+00  0.39999999673E+01  0.40000000000E+01  0.51109989000E-03 0.  1.
     -623   -1    0    0    0    0  0.00000000000E+00  0.00000000000E+00  0.12525980253E-10  0.17130000000E+03  0.17130000000E+03 0.  1.
       11    1    1    2    0    0 -0.23687804821E-03 -0.32501651872E-03  0.10407980747E-01  0.10428280352E-01  0.51109989000E-03 0.  1.
     -623    1    1    2    0    0  0.75532682502E-03  0.50495936004E-03  0.70438143351E-04  0.17130000000E+03  0.17130000000E+03 0.  1.
      622    1    1    2    0    0 -0.51844877680E-03 -0.17994284132E-03  0.39895215485E+01  0.39895717172E+01  0.20000000000E-01 0.  1.
</event>
<event>
 5   0  0.3603037E+08  0.9118800E+02  0.7818608E-02  0.1180000E+00
       11   -1    0    0    0    0  0.00000000000E+00  0.00000000000E+00  0.39999999673E+01  0.40000000000E+01  0.51109989000E-03 0.  1.
     -623   -1    0    0    0    0  0.00000000000E+00  0.00000000000E+00  0.12525980253E-10  0.17130000000E+03  0.17130000000E+03 0.  1.
       11    1    1    2    0    0  0.53876460273E-03  0.69161955109E-02  0.40367069132E+00  0.40373061846E+00  0.51109989000E-03 0.  1.
     -623    1    1    2    0    0 -0.20579762960E-01  0.90094197107E-03  0.18108580302E-03  0.17130000124E+03  0.17130000000E+03 0.  1.
      622    1    1    2    0    0  0.20040998357E-01 -0.78171374820E-02  0.35961481902E+01  0.35962681429E+01  0.20000000000E-01 0.  0.
</event>
<event>
 5   0  0.3603037E+08  0.9118800E+02  0.7818608E-02  0.1180000E+00
       11   -1    0    0    0    0  0.00000000000E+00  0.00000000000E+00  0.39999999673E+01  0.40000000000E+01  0.51109989000E-03 0.  1.
     -623   -1    0    0    0    0  0.00000000000E+00  0.00000000000E+00  0.12525980253E-10  0.17130000000E+03  0.17130000000E+03 0. -1.
       11    1    1    2    0    0 -0.99149282864E-03 -0.12546745601E-02  0.18309667891E+00  0.18310437547E+00  0.51109989000E-03 0.  1.
     -623    1    1    2    0    0  0.18338622733E-02 -0.84413036728E-04  0.60400581144E-04  0.17130000001E+03  0.17130000000E+03 0. -1.
      622    1    1    2    0    0 -0.84236944469E-03  0.13390875968E-02  0.38168428879E+01  0.38168956147E+01  0.20000000000E-01 0.  1.
</event>
<event>
 5   0  0.3603037E+08  0.9118800E+02  0.7818608E-02  0.1180000E+00
       11   -1    0    0    0    0  0.00000000000E+00  0.00000000000E+00  0.39999999673E+01  0.40000000000E+01  0.51109989000E-03 0.  1.
     -623   -1    0    0    0    0  0.00000000000E+00  0.00000000000E+00  0.12525980253E-10  0.17130000000E+03  0.17130000000E+03 0. -1.
       11    1    1    2    0    0 -0.10977839419E-02  0.10653602007E-02  0.10999858512E+00  0.11001040893E+00  0.51109989000E-03 0.  1.
     -623    1    1    2    0    0  0.10669818107E-03  0.15281973762E-03  0.63522639094E-04  0.17130000000E+03  0.17130000000E+03 0. -1.
      622    1    1    2    0    0  0.99108576082E-03 -0.12181799383E-02  0.38899378596E+01  0.38899895910E+01  0.20000000000E-01 0.  1.
</event>
<event>
 5   0  0.3603037E+08  0.9118800E+02  0.7818608E-02  0.1180000E+00
       11   -1    0    0    0    0  0.00000000000E+00  0.00000000000E+00  0.39999999673E+01  0.40000000000E+01  0.51109989000E-03 0.  1.
     -623   -1    0    0    0    0  0.00000000000E+00  0.00000000000E+00  0.12525980253E-10  0.17130000000E+03  0.17130000000E+03 0.  1.
       11    1    1    2    0    0  0.49945209689E-02 -0.11724191240E-01  0.15019726690E+00  0.15073779256E+00  0.51109989000E-03 0.  1.
     -623    1    1    2    0    0 -0.88332120092E-03  0.15393128976E-01  0.59709038937E-03  0.17130000069E+03  0.17130000000E+03 0.  1.
      622    1    1    2    0    0 -0.41111997680E-02 -0.36689377362E-02  0.38492056101E+01  0.38492615125E+01  0.20000000000E-01 0.  1.
</event>
<event>
 5   0  0.3603037E+08  0.9118800E+02  0.7818608E-02  0.1180000E+00
       11   -1    0    0    0    0  0.00000000000E+00  0.00000000000E+00  0.39999999673E+01  0.40000000000E+01  0.51109989000E-03 0.  1.
     -623   -1    0    0    0    0  0.00000000000E+00  0.00000000000E+00  0.12525980253E-10  0.17130000000E+03  0.17130000000E+03 0.  1.
       11    1    1    2    0    0 -0.26100951053E-02  0.41085118450E-02  0.83257209039E-02  0.96577075908E-02  0.51109989000E-03 0.  1.
     -623    1    1    2    0    0  0.56006290318E-03 -0.37231614560E-02  0.13826675465E-02  0.17130000005E+03  0.17130000000E+03 0.  1.
      622    1    1    2    0    0  0.20500322021E-02 -0.38535038901E-03  0.39902915789E+01  0.39903422455E+01  0.20000000000E-01 0.  1.
</event>
<event>
 5   0  0.3603037E+08  0.9118800E+02  0.7818608E-02  0.1180000E+00
       11   -1    0    0    0    0  0.00000000000E+00  0.00000000000E+00  0.39999999673E+01  0.40000000000E+01  0.51109989000E-03 0.  1.
     -623   -1    0    0    0    0  0.00000000000E+00  0.00000000000E+00  0.12525980253E-10  0.17130000000E+03  0.17130000000E+03 0. -1.
       11    1    1    2    0    0  0.46959513833E-02 -0.40269434984E-02  0.38128538626E+00  0.38133590866E+00  0.51109989000E-03 0.  1.
     -623    1    1    2    0    0  0.30639685930E-03  0.14027945166E-02  0.11017435159E-03  0.17130000001E+03  0.17130000000E+03 0. -1.
      622    1    1    2    0    0 -0.50023482426E-02  0.26241489817E-02  0.36186044067E+01  0.36186640853E+01  0.20000000000E-01 0.  1.
</event>
<event>
 5   0  0.3603037E+08  0.9118800E+02  0.7818608E-02  0.1180000E+00
       11   -1    0    0    0    0  0.00000000000E+00  0.00000000000E+00  0.39999999673E+01  0.40000000000E+01  0.51109989000E-03 0. -1.
     -623   -1    0    0    0    0  0.00000000000E+00  0.00000000000E+00  0.12525980253E-10  0.17130000000E+03  0.17130000000E+03 0.  1.
       11    1    1    2    0    0  0.38367019983E-02 -0.41171421736E-02  0.12806220377E-01  0.13997558468E-01  0.51109989000E-03 0. -1.
     -623    1    1    2    0    0 -0.62354372371E-02  0.47888273223E-02  0.12424446533E-02  0.17130000018E+03  0.17130000000E+03 0.  1.
      622    1    1    2    0    0  0.23987352388E-02 -0.67168514864E-03  0.39859513023E+01  0.39860022566E+01  0.20000000000E-01 0. -1.
</event>
<event>
 5   0  0.3603037E+08  0.9118800E+02  0.7818608E-02  0.1180000E+00
       11   -1    0    0    0    0  0.00000000000E+00  0.00000000000E+00  0.39999999673E+01  0.40000000000E+01  0.51109989000E-03 0. -1.
     -623   -1    0    0    0    0  0.00000000000E+00  0.00000000000E+00  0.12525980253E-10  0.17130000000E+03  0.17130000000E+03 0. -1.
       11    1    1    2    0    0 -0.11535897259E-01  0.54523690296E-02  0.44978423504E+00  0.44996547042E+00  0.51109989000E-03 0. -1.
     -623    1    1    2    0    0  0.77821757621E-02  0.26012466261E-02  0.24885733559E-03  0.17130000020E+03  0.17130000000E+03 0. -1.
      622    1    1    2    0    0  0.37537214973E-02 -0.80536156556E-02  0.35499668750E+01  0.35500343329E+01  0.20000000000E-01 0. -1.
</event>
<event>
 5   0  0.3603037E+08  0.9118800E+02  0.7818608E-02  0.1180000E+00
       11   -1    0    0    0    0  0.00000000000E+00  0.00000000000E+00  0.39999999673E+01  0.40000000000E+01  0.51109989000E-03 0.  1.
     -623   -1    0    0    0    0  0.00000000000E+00  0.00000000000E+00  0.12525980253E-10  0.17130000000E+03  0.17130000000E+03 0. -1.
       11    1    1    2    0    0  0.31897921205E-02 -0.33478696777E-02  0.14555814841E+01  0.14555889190E+01  0.51109989000E-03 0.  1.
     -623    1    1    2    0    0 -0.64961059952E-02  0.10775088212E-01  0.99457980170E-04  0.17130000046E+03  0.17130000000E+03 0. -1.
      622    1    1    2    0    0  0.33063138747E-02 -0.74272185342E-02  0.25443190252E+01  0.25444106189E+01  0.20000000000E-01 0.  1.
</event>
<event>
 5   0  0.3603037E+08  0.9118800E+02  0.7818608E-02  0.1180000E+00
       11   -1    0    0    0    0  0.00000000000E+00  0.00000000000E+00  0.39999999673E+01  0.40000000000E+01  0.51109989000E-03 0. -1.
     -623   -1    0    0    0    0  0.00000000000E+00  0.00000000000E+00  0.12525980253E-10  0.17130000000E+03  0.17130000000E+03 0.  1.
       11    1    1    2    0    0  0.21713905927E-02 -0.76346269163E-03  0.11569611349E+00  0.11572013528E+00  0.51109989000E-03 0. -1.
     -623    1    1    2    0    0 -0.46095027104E-03  0.88840652981E-03  0.75860643578E-04  0.17130000000E+03  0.17130000000E+03 0.  1.
      622    1    1    2    0    0 -0.17104403216E-02 -0.12494383818E-03  0.38842279932E+01  0.38842798618E+01  0.20000000000E-01 0. -1.
</event>
<event>
 5   0  0.3603037E+08  0.9118800E+02  0.7818608E-02  0.1180000E+00
       11   -1    0    0    0    0  0.00000000000E+00  0.00000000000E+00  0.39999999673E+01  0.40000000000E+01  0.51109989000E-03 0. -1.
     -623   -1    0    0    0    0  0.00000000000E+00  0.00000000000E+00  0.12525980253E-10  0.17130000000E+03  0.17130000000E+03 0.  1.
       11    1    1    2    0    0  0.65649602130E-03  0.44842637880E-03  0.12276142662E+00  0.12276506490E+00  0.51109989000E-03 0. -1.
     -623    1    1    2    0    0  0.33167518344E-05 -0.24780157816E-04  0.55268434785E-04  0.17130000000E+03  0.17130000000E+03 0.  1.
      622    1    1    2    0    0 -0.65981277313E-03 -0.42364622099E-03  0.38771832723E+01  0.38772349351E+01  0.20000000000E-01 0. -1.
</event>
<event>
 5   0  0.3603037E+08  0.9118800E+02  0.7818608E-02  0.1180000E+00
       11   -1    0    0    0    0  0.00000000000E+00  0.00000000000E+00  0.39999999673E+01  0.40000000000E+01  0.51109989000E-03 0. -1.
     -623   -1    0    0    0    0  0.00000000000E+00  0.00000000000E+00  0.12525980253E-10  0.17130000000E+03  0.17130000000E+03 0.  1.
       11    1    1    2    0    0 -0.39161142708E-02 -0.35127987709E-01  0.23094156287E+01  0.23096861516E+01  0.51109989000E-03 0. -1.
     -623    1    1    2    0    0 -0.67758068036E-02 -0.30139385076E-02  0.85322614192E-03  0.17130000016E+03  0.17130000000E+03 0.  1.
      622    1    1    2    0    0  0.10691921074E-01  0.38141926216E-01  0.16897311125E+01  0.16903136858E+01  0.20000000000E-01 0. -1.
</event>
<event>
 5   0  0.3603037E+08  0.9118800E+02  0.7818608E-02  0.1180000E+00
       11   -1    0    0    0    0  0.00000000000E+00  0.00000000000E+00  0.39999999673E+01  0.40000000000E+01  0.51109989000E-03 0.  1.
     -623   -1    0    0    0    0  0.00000000000E+00  0.00000000000E+00  0.12525980253E-10  0.17130000000E+03  0.17130000000E+03 0.  1.
       11    1    1    2    0    0  0.33476003386E-02 -0.49660980601E-02  0.41661017058E-01  0.42092399825E-01  0.51109989000E-03 0.  1.
     -623    1    1    2    0    0 -0.29520312806E-02  0.16724325979E-02  0.48330671869E-03  0.17130000003E+03  0.17130000000E+03 0.  1.
      622    1    1    2    0    0 -0.39556905805E-03  0.32936654622E-02  0.39578556436E+01  0.39579075659E+01  0.20000000000E-01 0.  1.
</event>
<event>
 5   0  0.3603037E+08  0.9118800E+02  0.7818608E-02  0.1180000E+00
       11   -1    0    0    0    0  0.00000000000E+00  0.00000000000E+00  0.39999999673E+01  0.40000000000E+01  0.51109989000E-03 0. -1.
     -623   -1    0    0    0    0  0.00000000000E+00  0.00000000000E+00  0.12525980253E-10  0.17130000000E+03  0.17130000000E+03 0. -1.
       11    1    1    2    0    0  0.52483385338E-02  0.83761403487E-02  0.20081015278E+01  0.20081259204E+01  0.51109989000E-03 0. -1.
     -623    1    1    2    0    0 -0.47769662217E-02 -0.21751098088E-01  0.17118149599E-03  0.17130000145E+03  0.17130000000E+03 0. -1.
      622    1    1    2    0    0 -0.47137231204E-03  0.13374957739E-01  0.19917272580E+01  0.19918726320E+01  0.20000000000E-01 0. -1.
</event>
<event>
 5   0  0.3603037E+08  0.9118800E+02  0.7818608E-02  0.1180000E+00
       11   -1    0    0    0    0  0.00000000000E+00  0.00000000000E+00  0.39999999673E+01  0.40000000000E+01  0.51109989000E-03 0.  1.
     -623   -1    0    0    0    0  0.00000000000E+00  0.00000000000E+00  0.12525980253E-10  0.17130000000E+03  0.17130000000E+03 0.  1.
       11    1    1    2    0    0  0.67996929630E-03  0.29634267673E-02  0.47759455344E-01  0.47858865980E-01  0.51109989000E-03 0.  1.
     -623    1    1    2    0    0 -0.93275040093E-02  0.81096516266E-03  0.16150290248E-03  0.17130000026E+03  0.17130000000E+03 0.  1.
      622    1    1    2    0    0  0.86475347130E-02 -0.37743919300E-02  0.39520790091E+01  0.39521408781E+01  0.20000000000E-01 0.  1.
</event>
<event>
 5   0  0.3603037E+08  0.9118800E+02  0.7818608E-02  0.1180000E+00
       11   -1    0    0    0    0  0.00000000000E+00  0.00000000000E+00  0.39999999673E+01  0.40000000000E+01  0.51109989000E-03 0. -1.
     -623   -1    0    0    0    0  0.00000000000E+00  0.00000000000E+00  0.12525980253E-10  0.17130000000E+03  0.17130000000E+03 0.  1.
       11    1    1    2    0    0  0.32595909100E-03  0.56400211517E-03  0.73933458619E-01  0.73938094868E-01  0.51109989000E-03 0. -1.
     -623    1    1    2    0    0 -0.44764425462E-03 -0.96227164321E-04  0.55575945144E-04  0.17130000000E+03  0.17130000000E+03 0.  1.
      622    1    1    2    0    0  0.12168516361E-03 -0.46777495085E-03  0.39260109328E+01  0.39260619045E+01  0.20000000000E-01 0. -1.
</event>
<event>
 5   0  0.3603037E+08  0.9118800E+02  0.7818608E-02  0.1180000E+00
       11   -1    0    0    0    0  0.00000000000E+00  0.00000000000E+00  0.39999999673E+01  0.40000000000E+01  0.51109989000E-03 0. -1.
     -623   -1    0    0    0    0  0.00000000000E+00  0.00000000000E+00  0.12525980253E-10  0.17130000000E+03  0.17130000000E+03 0. -1.
       11    1    1    2    0    0 -0.64471456935E-02  0.11368920328E-01  0.73181431341E-02  0.14987810998E-01  0.51109989000E-03 0. -1.
     -623    1    1    2    0    0  0.12600446248E-01 -0.14918793860E-01  0.77274428851E-02  0.17130000129E+03  0.17130000000E+03 0. -1.
      622    1    1    2    0    0 -0.61533005545E-02  0.35498735319E-02  0.39849543813E+01  0.39850109016E+01  0.20000000000E-01 0. -1.
</event>
<event>
 5   0  0.3603037E+08  0.9118800E+02  0.7818608E-02  0.1180000E+00
       11   -1    0    0    0    0  0.00000000000E+00  0.00000000000E+00  0.39999999673E+01  0.40000000000E+01  0.51109989000E-03 0.  1.
     -623   -1    0    0    0    0  0.00000000000E+00  0.00000000000E+00  0.12525980253E-10  0.17130000000E+03  0.17130000000E+03 0.  1.
       11    1    1    2    0    0 -0.19300750251E-02 -0.39755497105E-02  0.16762601028E+00  0.16768503430E+00  0.51109989000E-03 0.  1.
     -623    1    1    2    0    0 -0.23622871423E-02  0.14000208755E-03  0.11551917079E-03  0.17130000002E+03  0.17130000000E+03 0.  1.
      622    1    1    2    0    0  0.42923621674E-02  0.38355476230E-02  0.38322584379E+01  0.38323149493E+01  0.20000000000E-01 0.  1.
</event>
<event>
 5   0  0.3603037E+08  0.9118800E+02  0.7818608E-02  0.1180000E+00
       11   -1    0    0    0    0  0.00000000000E+00  0.00000000000E+00  0.39999999673E+01  0.40000000000E+01  0.51109989000E-03 0.  1.
     -623   -1    0    0    0    0  0.00000000000E+00  0.00000000000E+00  0.12525980253E-10  0.17130000000E+03  0.17130000000E+03 0.  1.
       11    1    1    2    0    0 -0.93210907217E-04 -0.62201560553E-03  0.15476105123E-01  0.15497310815E-01  0.51109989000E-03 0.  1.
     -623    1    1    2    0    0  0.78410702928E-04  0.17560456813E-03  0.71392996389E-04  0.17130000000E+03  0.17130000000E+03 0.  1.
      622    1    1    2    0    0  0.14800204289E-04  0.44641103741E-03  0.39844524692E+01  0.39845026891E+01  0.20000000000E-01 0.  1.
</event>
<event>
 5   0  0.3603037E+08  0.9118800E+02  0.7818608E-02  0.1180000E+00
       11   -1    0    0    0    0  0.00000000000E+00  0.00000000000E+00  0.39999999673E+01  0.40000000000E+01  0.51109989000E-03 0.  1.
     -623   -1    0    0    0    0  0.00000000000E+00  0.00000000000E+00  0.12525980253E-10  0.17130000000E+03  0.17130000000E+03 0. -1.
       11    1    1    2    0    0 -0.59670182991E-02  0.51339263466E-02  0.70363364996E+00  0.70367786457E+00  0.51109989000E-03 0.  1.
     -623    1    1    2    0    0  0.10410247050E-02  0.73472018840E-04  0.11265347868E-03  0.17130000000E+03  0.17130000000E+03 0. -1.
      622    1    1    2    0    0  0.49259935941E-02 -0.52073983654E-02  0.32962536639E+01  0.32963221322E+01  0.20000000000E-01 0.  1.
</event>
<event>
 5   0  0.3603037E+08  0.9118800E+02  0.7818608E-02  0.1180000E+00
       11   -1    0    0    0    0  0.00000000000E+00  0.00000000000E+00  0.39999999673E+01  0.40000000000E+01  0.51109989000E-03 0.  1.
     -623   -1    0    0    0    0  0.00000000000E+00  0.00000000000E+00  0.12525980253E-10  0.17130000000E+03  0.17130000000E+03 0. -1.
       11    1    1    2    0    0 -0.77560506536E-02  0.97685937527E-02  0.31693700790E+01  0.31693946647E+01  0.51109989000E-03 0.  1.
     -623    1    1    2    0    0  0.16988100697E-02 -0.93719225762E-03  0.33444671384E-03  0.17130000001E+03  0.17130000000E+03 0. -1.
      622    1    1    2    0    0  0.60572405839E-02 -0.88314014951E-02  0.83029544167E+00  0.83060532401E+00  0.20000000000E-01 0.  0.
</event>
<event>
 5   0  0.3603037E+08  0.9118800E+02  0.7818608E-02  0.1180000E+00
       11   -1    0    0    0    0  0.00000000000E+00  0.00000000000E+00  0.39999999673E+01  0.40000000000E+01  0.51109989000E-03 0. -1.
     -623   -1    0    0    0    0  0.00000000000E+00  0.00000000000E+00  0.12525980253E-10  0.17130000000E+03  0.17130000000E+03 0. -1.
       11    1    1    2    0    0  0.16802168623E-01 -0.20598328192E-03  0.62237232383E+00  0.62259933023E+00  0.51109989000E-03 0. -1.
     -623    1    1    2    0    0 -0.87346831870E-02 -0.43975792806E-02  0.29924377130E-03  0.17130000028E+03  0.17130000000E+03 0. -1.
      622    1    1    2    0    0 -0.80674854363E-02  0.46035625625E-02  0.33773283998E+01  0.33774003904E+01  0.20000000000E-01 0. -1.
</event>
<event>
 5   0  0.3603037E+08  0.9118800E+02  0.7818608E-02  0.1180000E+00
       11   -1    0    0    0    0  0.00000000000E+00  0.00000000000E+00  0.39999999673E+01  0.40000000000E+01  0.51109989000E-03 0.  1.
     -623   -1    0    0    0    0  0.00000000000E+00  0.00000000000E+00  0.12525980253E-10  0.17130000000E+03  0.17130000000E+03 0.  1.
       11    1    1    2    0    0  0.11795212337E-01  0.13588738325E-01  0.59111930029E+00  0.59139332871E+00  0.51109989000E-03 0.  1.
     -623    1    1    2    0    0  0.34378586030E-02 -0.20046469396E-02  0.38644177939E-03  0.17130000005E+03  0.17130000000E+03 0.  1.
      622    1    1    2    0    0 -0.15233070940E-01 -0.11584091386E-01  0.34084942253E+01  0.34086066246E+01  0.20000000000E-01 0.  1.
</event>
<event>
 5   0  0.3603037E+08  0.9118800E+02  0.7818608E-02  0.1180000E+00
       11   -1    0    0    0    0  0.00000000000E+00  0.00000000000E+00  0.39999999673E+01  0.40000000000E+01  0.51109989000E-03 0.  1.
     -623   -1    0    0    0    0  0.00000000000E+00  0.00000000000E+00  0.12525980253E-10  0.17130000000E+03  0.17130000000E+03 0. -1.
       11    1    1    2    0    0  0.62491055778E-01  0.25428831479E-01  0.45352467524E+00  0.45851570289E+00  0.51109989000E-03 0.  1.
     -623    1    1    2    0    0 -0.29243904003E-02 -0.27083491658E-01  0.55511016752E-02  0.17130000226E+03  0.17130000000E+03 0. -1.
      622    1    1    2    0    0 -0.59566665378E-01  0.16546601783E-02  0.35409241904E+01  0.35414820412E+01  0.20000000000E-01 0.  1.
</event>
<event>
 5   0  0.3603037E+08  0.9118800E+02  0.7818608E-02  0.1180000E+00
       11   -1    0    0    0    0  0.00000000000E+00  0.00000000000E+00  0.39999999673E+01  0.40000000000E+01  0.51109989000E-03 0. -1.
     -623   -1    0    0    0    0  0.00000000000E+00  0.00000000000E+00  0.12525980253E-10  0.17130000000E+03  0.17130000000E+03 0.  1.
       11    1    1    2    0    0  0.25010337913E-02  0.44227608572E-03  0.14632194585E+00  0.14634487978E+00  0.51109989000E-03 0. -1.
     -623    1    1    2    0    0  0.36332601961E-03 -0.10069526931E-02  0.75909682166E-04  0.17130000000E+03  0.17130000000E+03 0.  1.
      622    1    1    2    0    0 -0.28643598109E-02  0.56467660737E-03  0.38536021118E+01  0.38536551169E+01  0.20000000000E-01 0. -1.
</event>
<event>
 5   0  0.3603037E+08  0.9118800E+02  0.7818608E-02  0.1180000E+00
       11   -1    0    0    0    0  0.00000000000E+00  0.00000000000E+00  0.39999999673E+01  0.40000000000E+01  0.51109989000E-03 0.  1.
     -623   -1    0    0    0    0  0.00000000000E+00  0.00000000000E+00  0.12525980253E-10  0.17130000000E+03  0.17130000000E+03 0. -1.
       11    1    1    2    0    0  0.55675985830E-02  0.30229748009E-02  0.12306911151E+01  0.12307075276E+01  0.51109989000E-03 0.  1.
     -623    1    1    2    0    0 -0.14428852895E-02 -0.25650534497E-03  0.93061442283E-04  0.17130000001E+03  0.17130000000E+03 0. -1.
      622    1    1    2    0    0 -0.41247132935E-02 -0.27664694559E-02  0.27692157908E+01  0.27692924661E+01  0.20000000000E-01 0.  1.
</event>
<event>
 5   0  0.3603037E+08  0.9118800E+02  0.7818608E-02  0.1180000E+00
       11   -1    0    0    0    0  0.00000000000E+00  0.00000000000E+00  0.39999999673E+01  0.40000000000E+01  0.51109989000E-03 0.  1.
     -623   -1    0    0    0    0  0.00000000000E+00  0.00000000000E+00  0.12525980253E-10  0.17130000000E+03  0.17130000000E+03 0. -1.
       11    1    1    2    0    0 -0.66562313697E-04  0.12104870572E-02  0.12260869600E-01  0.12331255177E-01  0.51109989000E-03 0.  1.
     -623    1    1    2    0    0  0.25050169481E-02 -0.21686550405E-02  0.12140063930E-03  0.17130000003E+03  0.17130000000E+03 0. -1.
      622    1    1    2    0    0 -0.24384546344E-02  0.95816798334E-03  0.39876176971E+01  0.39876687127E+01  0.20000000000E-01 0.  1.
</event>
<event>
 5   0  0.3603037E+08  0.9118800E+02  0.7818608E-02  0.1180000E+00
       11   -1    0    0    0    0  0.00000000000E+00  0.00000000000E+00  0.39999999673E+01  0.40000000000E+01  0.51109989000E-03 0.  1.
     -623   -1    0    0    0    0  0.00000000000E+00  0.00000000000E+00  0.12525980253E-10  0.17130000000E+03  0.17130000000E+03 0.  1.
       11    1    1    2    0    0  0.66990562639E-03  0.97996525638E-04  0.14485693071E-01  0.14510510051E-01  0.51109989000E-03 0.  1.
     -623    1    1    2    0    0 -0.27958003908E-03 -0.10116496956E-02  0.75093769246E-04  0.17130000000E+03  0.17130000000E+03 0.  1.
      622    1    1    2    0    0 -0.39032558730E-03  0.91365316993E-03  0.39854391805E+01  0.39854894867E+01  0.20000000000E-01 0.  1.
</event>
<event>
 5   0  0.3603037E+08  0.9118800E+02  0.7818608E-02  0.1180000E+00
       11   -1    0    0    0    0  0.00000000000E+00  0.00000000000E+00  0.39999999673E+01  0.40000000000E+01  0.51109989000E-03 0.  1.
     -623   -1    0    0    0    0  0.00000000000E+00  0.00000000000E+00  0.12525980253E-10  0.17130000000E+03  0.17130000000E+03 0. -1.
       11    1    1    2    0    0 -0.22535352031E-02 -0.41770303743E-02  0.11688536603E+00  0.11698280223E+00  0.51109989000E-03 0.  1.
     -623    1    1    2    0    0  0.36500905206E-03  0.43876739557E-03  0.15116998419E-03  0.17130000000E+03  0.17130000000E+03 0. -1.
      622    1    1    2    0    0  0.18885261510E-02  0.37382629787E-02  0.38829634313E+01  0.38830171968E+01  0.20000000000E-01 0.  1.
</event>
<event>
 5   0  0.3603037E+08  0.9118800E+02  0.7818608E-02  0.1180000E+00
       11   -1    0    0    0    0  0.00000000000E+00  0.00000000000E+00  0.39999999673E+01  0.40000000000E+01  0.51109989000E-03 0. -1.
     -623   -1    0    0    0    0  0.00000000000E+00  0.00000000000E+00  0.12525980253E-10  0.17130000000E+03  0.17130000000E+03 0.  1.
       11    1    1    2    0    0 -0.63165818759E-03 -0.29862596710E-03  0.11163346739E-01  0.11196861175E-01  0.51109989000E-03 0. -1.
     -623    1    1    2    0    0  0.17459642956E-03  0.19307996390E-03  0.83650265829E-04  0.17130000000E+03  0.17130000000E+03 0.  1.
      622    1    1    2    0    0  0.45706175803E-03  0.10554600320E-03  0.39887529704E+01  0.39888031386E+01  0.20000000000E-01 0. -1.
</event>
<event>
 5   0  0.3603037E+08  0.9118800E+02  0.7818608E-02  0.1180000E+00
       11   -1    0    0    0    0  0.00000000000E+00  0.00000000000E+00  0.39999999673E+01  0.40000000000E+01  0.51109989000E-03 0. -1.
     -623   -1    0    0    0    0  0.00000000000E+00  0.00000000000E+00  0.12525980253E-10  0.17130000000E+03  0.17130000000E+03 0. -1.
       11    1    1    2    0    0 -0.66591764253E-02  0.93715017430E-02  0.21492523773E+00  0.21523310319E+00  0.51109989000E-03 0. -1.
     -623    1    1    2    0    0 -0.17043833956E-03 -0.38857825962E-03  0.37750006311E-03  0.17130000000E+03  0.17130000000E+03 0. -1.
      622    1    1    2    0    0  0.68296147648E-02 -0.89829234834E-02  0.37846972296E+01  0.37847668959E+01  0.20000000000E-01 0. -1.
</event>
<event>
 5   0  0.3603037E+08  0.9118800E+02  0.7818608E-02  0.1180000E+00
       11   -1    0    0    0    0  0.00000000000E+00  0.00000000000E+00  0.39999999673E+01  0.40000000000E+01  0.51109989000E-03 0. -1.
     -623   -1    0    0    0    0  0.00000000000E+00  0.00000000000E+00  0.12525980253E-10  0.17130000000E+03  0.17130000000E+03 0. -1.
       11    1    1    2    0    0  0.26015269411E-02  0.59162075911E-02  0.17180401215E-01  0.18362920803E-01  0.51109989000E-03 0. -1.
     -623    1    1    2    0    0  0.36980395870E-02 -0.79992071484E-02  0.12384774082E-02  0.17130000023E+03  0.17130000000E+03 0. -1.
      622    1    1    2    0    0 -0.62995665280E-02  0.20829995572E-02  0.39815810887E+01  0.39816368480E+01  0.20000000000E-01 0. -1.
</event>
<event>
 5   0  0.3603037E+08  0.9118800E+02  0.7818608E-02  0.1180000E+00
       11   -1    0    0    0    0  0.00000000000E+00  0.00000000000E+00  0.39999999673E+01  0.40000000000E+01  0.51109989000E-03 0. -1.
     -623   -1    0    0    0    0  0.00000000000E+00  0.00000000000E+00  0.12525980253E-10  0.17130000000E+03  0.17130000000E+03 0.  1.
       11    1    1    2    0    0 -0.28095730149E-02 -0.34561659585E-02  0.32967083182E-01  0.33270536203E-01  0.51109989000E-03 0. -1.
     -623    1    1    2    0    0  0.57257462146E-02  0.24335578694E-02  0.35515717092E-03  0.17130000011E+03  0.17130000000E+03 0.  1.
      622    1    1    2    0    0 -0.29161731997E-02  0.10226080891E-02  0.39666777270E+01  0.39667293505E+01  0.20000000000E-01 0. -1.
</event>
<event>
 5   0  0.3603037E+08  0.9118800E+02  0.7818608E-02  0.1180000E+00
       11   -1    0    0    0    0  0.00000000000E+00  0.00000000000E+00  0.39999999673E+01  0.40000000000E+01  0.51109989000E-03 0. -1.
     -623   -1    0    0    0    0  0.00000000000E+00  0.00000000000E+00  0.12525980253E-10  0.17130000000E+03  0.17130000000E+03 0.  1.
       11    1    1    2    0    0  0.29645327470E-02 -0.98648172936E-02  0.11493138056E+01  0.11493600777E+01  0.51109989000E-03 0. -1.
     -623    1    1    2    0    0  0.19702283180E-03  0.57852601453E-03  0.13328032065E-03  0.17130000000E+03  0.17130000000E+03 0.  1.
      622    1    1    2    0    0 -0.31615555788E-02  0.92862912791E-02  0.28505528814E+01  0.28506399212E+01  0.20000000000E-01 0.  0.
</event>
<event>
 5   0  0.3603037E+08  0.9118800E+02  0.7818608E-02  0.1180000E+00
       11   -1    0    0    0    0  0.00000000000E+00  0.00000000000E+00  0.39999999673E+01  0.40000000000E+01  0.51109989000E-03 0.  1.
     -623   -1    0    0    0    0  0.00000000000E+00  0.00000000000E+00  0.12525980253E-10  0.17130000000E+03  0.17130000000E+03 0. -1.
       11    1    1    2    0    0  0.28531482976E-03 -0.22569811646E-03  0.13580993329E-02  0.14959941568E-02  0.51109989000E-03 0.  1.
     -623    1    1    2    0    0 -0.21042620782E-03 -0.31467519902E-02  0.18933326934E-03  0.17130000003E+03  0.17130000000E+03 0. -1.
      622    1    1    2    0    0 -0.74888621948E-04  0.33724501066E-02  0.39984525348E+01  0.39985039767E+01  0.20000000000E-01 0.  1.
</event>
<event>
 5   0  0.3603037E+08  0.9118800E+02  0.7818608E-02  0.1180000E+00
       11   -1    0    0    0    0  0.00000000000E+00  0.00000000000E+00  0.39999999673E+01  0.40000000000E+01  0.51109989000E-03 0. -1.
     -623   -1    0    0    0    0  0.00000000000E+00  0.00000000000E+00  0.12525980253E-10  0.17130000000E+03  0.17130000000E+03 0.  1.
       11    1    1    2    0    0  0.17668827445E-02 -0.69401452924E-02  0.15285229020E+00  0.15302081993E+00  0.51109989000E-03 0. -1.
     -623    1    1    2    0    0 -0.40722604621E-03  0.84079672758E-04  0.22683672481E-03  0.17130000000E+03  0.17130000000E+03 0.  1.
      622    1    1    2    0    0 -0.13596566983E-02  0.68560656197E-02  0.38469208404E+01  0.38469791794E+01  0.20000000000E-01 0. -1.
</event>
<event>
 5   0  0.3603037E+08  0.9118800E+02  0.7818608E-02  0.1180000E+00
       11   -1    0    0    0    0  0.00000000000E+00  0.00000000000E+00  0.39999999673E+01  0.40000000000E+01  0.51109989000E-03 0. -1.
     -623   -1    0    0    0    0  0.00000000000E+00  0.00000000000E+00  0.12525980253E-10  0.17130000000E+03  0.17130000000E+03 0. -1.
       11    1    1    2    0    0 -0.35478182913E-03 -0.85310287509E-02  0.73869682619E+00  0.73874634792E+00  0.51109989000E-03 0. -1.
     -623    1    1    2    0    0 -0.39824026266E-03  0.69062907781E-03  0.12032937937E-03  0.17130000000E+03  0.17130000000E+03 0. -1.
      622    1    1    2    0    0  0.75302209178E-03  0.78403996731E-02  0.32611828118E+01  0.32612536502E+01  0.20000000000E-01 0.  0.
</event>
<event>
 5   0  0.3603037E+08  0.9118800E+02  0.7818608E-02  0.1180000E+00
       11   -1    0    0    0    0  0.00000000000E+00  0.00000000000E+00  0.39999999673E+01  0.40000000000E+01  0.51109989000E-03 0. -1.
     -623   -1    0    0    0    0  0.00000000000E+00  0.00000000000E+00  0.12525980253E-10  0.17130000000E+03  0.17130000000E+03 0. -1.
       11    1    1    2    0    0 -0.63276269501E-02 -0.18013777239E-01  0.15644483629E+01  0.15645649479E+01  0.51109989000E-03 0. -1.
     -623    1    1    2    0    0 -0.28521678197E-02  0.35995787926E-02  0.25869516608E-03  0.17130000006E+03  0.17130000000E+03 0. -1.
      622    1    1    2    0    0  0.91797947699E-02  0.14414198447E-01  0.24352929093E+01  0.24354349903E+01  0.20000000000E-01 0. -1.
</event>
<event>
 5   0  0.3603037E+08  0.9118800E+02  0.7818608E-02  0.1180000E+00
       11   -1    0    0    0    0  0.00000000000E+00  0.00000000000E+00  0.39999999673E+01  0.40000000000E+01  0.51109989000E-03 0.  1.
     -623   -1    0    0    0    0  0.00000000000E+00  0.00000000000E+00  0.12525980253E-10  0.17130000000E+03  0.17130000000E+03 0. -1.
       11    1    1    2    0    0 -0.11725046230E-02 -0.28049991636E-02  0.28661046437E+00  0.28662704390E+00  0.51109989000E-03 0.  1.
     -623    1    1    2    0    0 -0.11235956897E-02  0.17054120558E-02  0.71291552526E-04  0.17130000001E+03  0.17130000000E+03 0. -1.
      622    1    1    2    0    0  0.22961003127E-02  0.10995871078E-02  0.37133182114E+01  0.37133729439E+01  0.20000000000E-01 0.  1.
</event>
<event>
 5   0  0.3603037E+08  0.9118800E+02  0.7818608E-02  0.1180000E+00
       11   -1    0    0    0    0  0.00000000000E+00  0.00000000000E+00  0.39999999673E+01  0.40000000000E+01  0.51109989000E-03 0.  1.
     -623   -1    0    0    0    0  0.00000000000E+00  0.00000000000E+00  0.12525980253E-10  0.17130000000E+03  0.17130000000E+03 0. -1.
       11    1    1    2    0    0  0.12568855856E-01 -0.70216757761E-02  0.11725227846E+01  0.11726112833E+01  0.51109989000E-03 0.  1.
     -623    1    1    2    0    0 -0.52954112442E-03  0.72878868457E-02  0.18500515174E-03  0.17130000016E+03  0.17130000000E+03 0. -1.
      622    1    1    2    0    0 -0.12039314731E-01 -0.26621106961E-03  0.28272921776E+01  0.28273885608E+01  0.20000000000E-01 0. -1.
</event>
<event>
 5   0  0.3603037E+08  0.9118800E+02  0.7818608E-02  0.1180000E+00
       11   -1    0    0    0    0  0.00000000000E+00  0.00000000000E+00  0.39999999673E+01  0.40000000000E+01  0.51109989000E-03 0. -1.
     -623   -1    0    0    0    0  0.00000000000E+00  0.00000000000E+00  0.12525980253E-10  0.17130000000E+03  0.17130000000E+03 0.  1.
       11    1    1    2    0    0  0.50717689315E-03  0.70117814671E-02  0.60495491321E+00  0.60499597564E+00  0.51109989000E-03 0. -1.
     -623    1    1    2    0    0 -0.50646616279E-02 -0.12120727980E-02  0.10803258662E-03  0.17130000008E+03  0.17130000000E+03 0.  1.
      622    1    1    2    0    0  0.45574847348E-02 -0.57997086691E-02  0.33949370216E+01  0.33950039452E+01  0.20000000000E-01 0. -1.
</event>
<event>
 5   0  0.3603037E+08  0.9118800E+02  0.7818608E-02  0.1180000E+00
       11   -1    0    0    0    0  0.00000000000E+00  0.00000000000E+00  0.39999999673E+01  0.40000000000E+01  0.51109989000E-03 0.  1.
     -623   -1    0    0    0    0  0.00000000000E+00  0.00000000000E+00  0.12525980253E-10  0.17130000000E+03  0.17130000000E+03 0. -1.
       11    1    1    2    0    0 -0.23927177232E-03  0.10057094903E-02  0.32384162872E+00  0.32384368207E+00  0.51109989000E-03 0.  1.
     -623    1    1    2    0    0  0.16770801405E-03  0.27279284316E-04  0.56571689314E-04  0.17130000000E+03  0.17130000000E+03 0. -1.
      622    1    1    2    0    0  0.71563758278E-04 -0.10329887746E-02  0.36761017670E+01  0.36761563178E+01  0.20000000000E-01 0.  1.
</event>
<event>
 5   0  0.3603037E+08  0.9118800E+02  0.7818608E-02  0.1180000E+00
       11   -1    0    0    0    0  0.00000000000E+00  0.00000000000E+00  0.39999999673E+01  0.40000000000E+01  0.51109989000E-03 0.  1.
     -623   -1    0    0    0    0  0.00000000000E+00  0.00000000000E+00  0.12525980253E-10  0.17130000000E+03  0.17130000000E+03 0.  1.
       11    1    1    2    0    0  0.62473085845E-03 -0.30772134185E-02  0.47989321047E+00  0.47990375515E+00  0.51109989000E-03 0.  1.
     -623    1    1    2    0    0  0.17279978654E-03  0.22016956892E-03  0.68579179486E-04  0.17130000000E+03  0.17130000000E+03 0.  1.
      622    1    1    2    0    0 -0.79753064499E-03  0.28570438496E-02  0.35200381777E+01  0.35200962446E+01  0.20000000000E-01 0.  1.
</event>
<event>
 5   0  0.3603037E+08  0.9118800E+02  0.7818608E-02  0.1180000E+00
       11   -1    0    0    0    0  0.00000000000E+00  0.00000000000E+00  0.39999999673E+01  0.40000000000E+01  0.51109989000E-03 0. -1.
     -623   -1    0    0    0    0  0.00000000000E+00  0.00000000000E+00  0.12525980253E-10  0.17130000000E+03  0.17130000000E+03 0. -1.
       11    1    1    2    0    0 -0.18481529503E-03  0.95010442220E-02  0.26506663555E+00  0.26523741535E+00  0.51109989000E-03 0. -1.
     -623    1    1    2    0    0 -0.62037657735E-02 -0.10401334557E-01  0.23029941277E-03  0.17130000043E+03  0.17130000000E+03 0. -1.
      622    1    1    2    0    0  0.63885810685E-02  0.90029033538E-03  0.37347030324E+01  0.37347621564E+01  0.20000000000E-01 0. -1.
</event>
<event>
 5   0  0.3603037E+08  0.9118800E+02  0.7818608E-02  0.1180000E+00
       11   -1    0    0    0    0  0.00000000000E+00  0.00000000000E+00  0.39999999673E+01  0.40000000000E+01  0.51109989000E-03 0. -1.
     -623   -1    0    0    0    0  0.00000000000E+00  0.00000000000E+00  0.12525980253E-10  0.17130000000E+03  0.17130000000E+03 0. -1.
       11    1    1    2    0    0 -0.71136225119E-03 -0.54532432405E-03  0.92557670455E-02  0.93131014716E-02  0.51109989000E-03 0. -1.
     -623    1    1    2    0    0  0.24344158889E-03 -0.26273293745E-03  0.10752843830E-03  0.17130000000E+03  0.17130000000E+03 0. -1.
      622    1    1    2    0    0  0.46792066230E-03  0.80805726150E-03  0.39906366719E+01  0.39906868981E+01  0.20000000000E-01 0. -1.
</event>
<event>
 5   0  0.3603037E+08  0.9118800E+02  0.7818608E-02  0.1180000E+00
       11   -1    0    0    0    0  0.00000000000E+00  0.00000000000E+00  0.39999999673E+01  0.40000000000E+01  0.51109989000E-03 0.  1.
     -623   -1    0    0    0    0  0.00000000000E+00  0.00000000000E+00  0.12525980253E-10  0.17130000000E+03  0.17130000000E+03 0.  1.
       11    1    1    2    0    0  0.13350136874E-02  0.38872880823E-03  0.30214018966E-02  0.33650353262E-02  0.51109989000E-03 0.  1.
     -623    1    1    2    0    0  0.23598734692E-03 -0.10845325492E-02  0.39401658900E-03  0.17130000000E+03  0.17130000000E+03 0.  1.
      622    1    1    2    0    0 -0.15710010343E-02  0.69580374096E-03  0.39965845489E+01  0.39966349606E+01  0.20000000000E-01 0.  1.
</event>
<event>
 5   0  0.3603037E+08  0.9118800E+02  0.7818608E-02  0.1180000E+00
       11   -1    0    0    0    0  0.00000000000E+00  0.00000000000E+00  0.39999999673E+01  0.40000000000E+01  0.51109989000E-03 0. -1.
     -623   -1    0    0    0    0  0.00000000000E+00  0.00000000000E+00  0.12525980253E-10  0.17130000000E+03  0.17130000000E+03 0.  1.
       11    1    1    2    0    0  0.23987093006E-02  0.15378725162E-02  0.11335513693E+00  0.11339209474E+00  0.51109989000E-03 0. -1.
     -623    1    1    2    0    0 -0.22167294114E-02  0.15754259098E-02  0.89657075215E-04  0.17130000002E+03  0.17130000000E+03 0.  1.
      622    1    1    2    0    0 -0.18197988914E-03 -0.31132984260E-02  0.38865551734E+01  0.38866078837E+01  0.20000000000E-01 0. -1.
</event>
<event>
 5   0  0.3603037E+08  0.9118800E+02  0.7818608E-02  0.1180000E+00
       11   -1    0    0    0    0  0.00000000000E+00  0.00000000000E+00  0.39999999673E+01  0.40000000000E+01  0.51109989000E-03 0.  1.
     -623   -1    0    0    0    0  0.00000000000E+00  0.00000000000E+00  0.12525980253E-10  0.17130000000E+03  0.17130000000E+03 0.  1.
       11    1    1    2    0    0 -0.18429839006E-01 -0.80649033392E-03  0.69090738703E+00  0.69115380927E+00  0.51109989000E-03 0.  1.
     -623    1    1    2    0    0 -0.11338480751E-02 -0.14179092026E-02  0.36542901236E-03  0.17130000001E+03  0.17130000000E+03 0.  1.
      622    1    1    2    0    0  0.19563687081E-01  0.22243995365E-02  0.33087271513E+01  0.33088461807E+01  0.20000000000E-01 0.  1.
</event>
<event>
 5   0  0.3603037E+08  0.9118800E+02  0.7818608E-02  0.1180000E+00
       11   -1    0    0    0    0  0.00000000000E+00  0.00000000000E+00  0.39999999673E+01  0.40000000000E+01  0.51109989000E-03 0.  1.
     -623   -1    0    0    0    0  0.00000000000E+00  0.00000000000E+00  0.12525980253E-10  0.17130000000E+03  0.17130000000E+03 0.  1.
       11    1    1    2    0    0  0.17070740122E-02  0.68199572140E-03  0.12820113907E+00  0.12821533644E+00  0.51109989000E-03 0.  1.
     -623    1    1    2    0    0 -0.10417308407E-02 -0.45646120847E-03  0.65888367931E-04  0.17130000000E+03  0.17130000000E+03 0.  1.
      622    1    1    2    0    0 -0.66534317145E-03 -0.22553451293E-03  0.38717329399E+01  0.38717846598E+01  0.20000000000E-01 0.  1.
</event>
<event>
 5   0  0.3603037E+08  0.9118800E+02  0.7818608E-02  0.1180000E+00
       11   -1    0    0    0    0  0.00000000000E+00  0.00000000000E+00  0.39999999673E+01  0.40000000000E+01  0.51109989000E-03 0.  1.
     -623   -1    0    0    0    0  0.00000000000E+00  0.00000000000E+00  0.12525980253E-10  0.17130000000E+03  0.17130000000E+03 0. -1.
       11    1    1    2    0    0  0.23338290335E-02  0.24577640428E-03  0.10890520027E-01  0.11152211042E-01  0.51109989000E-03 0.  1.
     -623    1    1    2    0    0 -0.25694983015E-03  0.60568980892E-03  0.31243160218E-03  0.17130000000E+03  0.17130000000E+03 0. -1.
      622    1    1    2    0    0 -0.20768792033E-02 -0.85146621320E-03  0.39887970157E+01  0.39888477874E+01  0.20000000000E-01 0.  1.
</event>
<event>
 5   0  0.3603037E+08  0.9118800E+02  0.7818608E-02  0.1180000E+00
       11   -1    0    0    0    0  0.00000000000E+00  0.00000000000E+00  0.39999999673E+01  0.40000000000E+01  0.51109989000E-03 0. -1.
     -623   -1    0    0    0    0  0.00000000000E+00  0.00000000000E+00  0.12525980253E-10  0.17130000000E+03  0.17130000000E+03 0.  1.
       11    1    1    2    0    0 -0.75796893178E-04 -0.76165046683E-03  0.81088204790E-01  0.81093427815E-01  0.51109989000E-03 0. -1.
     -623    1    1    2    0    0 -0.16137891934E-03  0.86611882002E-04  0.56290785014E-04  0.17130000000E+03  0.17130000000E+03 0.  1.
      622    1    1    2    0    0  0.23717581252E-03  0.67503858482E-03  0.39188554718E+01  0.39189065721E+01  0.20000000000E-01 0. -1.
</event>
<event>
 5   0  0.3603037E+08  0.9118800E+02  0.7818608E-02  0.1180000E+00
       11   -1    0    0    0    0  0.00000000000E+00  0.00000000000E+00  0.39999999673E+01  0.40000000000E+01  0.51109989000E-03 0.  1.
     -623   -1    0    0    0    0  0.00000000000E+00  0.00000000000E+00  0.12525980253E-10  0.17130000000E+03  0.17130000000E+03 0. -1.
       11    1    1    2    0    0 -0.64213976852E-02 -0.96371626075E-02  0.51928064828E-01  0.53206149919E-01  0.51109989000E-03 0.  1.
     -623    1    1    2    0    0 -0.64470961565E-02 -0.48323515783E-02  0.13764252091E-02  0.17130000020E+03  0.17130000000E+03 0. -1.
      622    1    1    2    0    0  0.12868493842E-01  0.14469514186E-01  0.39466954773E+01  0.39467936551E+01  0.20000000000E-01 0.  1.
</event>
<event>
 5   0  0.3603037E+08  0.9118800E+02  0.7818608E-02  0.1180000E+00
       11   -1    0    0    0    0  0.00000000000E+00  0.00000000000E+00  0.39999999673E+01  0.40000000000E+01  0.51109989000E-03 0.  1.
     -623   -1    0    0    0    0  0.00000000000E+00  0.00000000000E+00  0.12525980253E-10  0.17130000000E+03  0.17130000000E+03 0. -1.
       11    1    1    2    0    0 -0.37959512908E-03 -0.49695320238E-02  0.18840783116E+01  0.18840849731E+01  0.51109989000E-03 0.  1.
     -623    1    1    2    0    0 -0.66260247646E-02  0.73572417905E-02  0.11438424916E-03  0.17130000029E+03  0.17130000000E+03 0. -1.
      622    1    1    2    0    0  0.70056198936E-02 -0.23877097667E-02  0.21158072715E+01  0.21159147408E+01  0.20000000000E-01 0.  1.
</event>
<event>
 5   0  0.3603037E+08  0.9118800E+02  0.7818608E-02  0.1180000E+00
       11   -1    0    0    0    0  0.00000000000E+00  0.00000000000E+00  0.39999999673E+01  0.40000000000E+01  0.51109989000E-03 0.  1.
     -623   -1    0    0    0    0  0.00000000000E+00  0.00000000000E+00  0.12525980253E-10  0.17130000000E+03  0.17130000000E+03 0. -1.
       11    1    1    2    0    0 -0.16559748820E-02  0.72210855142E-02  0.18329696474E+00  0.18344733531E+00  0.51109989000E-03 0.  1.
     -623    1    1    2    0    0  0.69942108503E-02 -0.90082443817E-02  0.20727318732E-03  0.17130000038E+03  0.17130000000E+03 0. -1.
      622    1    1    2    0    0 -0.53382359683E-02  0.17871588675E-02  0.38164957294E+01  0.38165522849E+01  0.20000000000E-01 0.  1.
</event>
<event>
 5   0  0.3603037E+08  0.9118800E+02  0.7818608E-02  0.1180000E+00
       11   -1    0    0    0    0  0.00000000000E+00  0.00000000000E+00  0.39999999673E+01  0.40000000000E+01  0.51109989000E-03 0.  1.
     -623   -1    0    0    0    0  0.00000000000E+00  0.00000000000E+00  0.12525980253E-10  0.17130000000E+03  0.17130000000E+03 0.  1.
       11    1    1    2    0    0 -0.33999692768E-02 -0.19288402209E-03  0.22461113684E+00  0.22463753250E+00  0.51109989000E-03 0.  1.
     -623    1    1    2    0    0  0.66474635901E-03  0.24461577906E-02  0.81020480947E-04  0.17130000002E+03  0.17130000000E+03 0.  1.
      622    1    1    2    0    0  0.27352229178E-02 -0.22532737685E-02  0.37753078100E+01  0.37753624487E+01  0.20000000000E-01 0.  1.
</event>
<event>
 5   0  0.3603037E+08  0.9118800E+02  0.7818608E-02  0.1180000E+00
       11   -1    0    0    0    0  0.00000000000E+00  0.00000000000E+00  0.39999999673E+01  0.40000000000E+01  0.51109989000E-03 0. -1.
     -623   -1    0    0    0    0  0.00000000000E+00  0.00000000000E+00  0.12525980253E-10  0.17130000000E+03  0.17130000000E+03 0. -1.
       11    1    1    2    0    0 -0.41283407376E-02 -0.24792372946E-02  0.29165329710E+00  0.29169349795E+00  0.51109989000E-03 0. -1.
     -623    1    1    2    0    0  0.57263659319E-02  0.19016933495E-02  0.94597169256E-04  0.17130000011E+03  0.17130000000E+03 0. -1.
      622    1    1    2    0    0 -0.15980251943E-02  0.57754394512E-03  0.37082520731E+01  0.37083063958E+01  0.20000000000E-01 0. -1.
</event>
<event>
 5   0  0.3603037E+08  0.9118800E+02  0.7818608E-02  0.1180000E+00
       11   -1    0    0    0    0  0.00000000000E+00  0.00000000000E+00  0.39999999673E+01  0.40000000000E+01  0.51109989000E-03 0.  1.
     -623   -1    0    0    0    0  0.00000000000E+00  0.00000000000E+00  0.12525980253E-10  0.17130000000E+03  0.17130000000E+03 0. -1.
       11    1    1    2    0    0 -0.57581214738E-02  0.13985972952E-01  0.19612050462E+00  0.19670352553E+00  0.51109989000E-03 0.  1.
     -623    1    1    2    0    0  0.63230286847E-02 -0.74152501925E-02  0.64157094949E-03  0.17130000028E+03  0.17130000000E+03 0. -1.
      622    1    1    2    0    0 -0.56490721089E-03 -0.65707227600E-02  0.38032378918E+01  0.38032961961E+01  0.20000000000E-01 0.  1.
</event>
<event>
 5   0  0.3603037E+08  0.9118800E+02  0.7818608E-02  0.1180000E+00
       11   -1    0    0    0    0  0.00000000000E+00  0.00000000000E+00  0.39999999673E+01  0.40000000000E+01  0.51109989000E-03 0. -1.
     -623   -1    0    0    0    0  0.00000000000E+00  0.00000000000E+00  0.12525980253E-10  0.17130000000E+03  0.17130000000E+03 0. -1.
       11    1    1    2    0    0  0.29056948728E-03 -0.21274280186E-03  0.24006368014E-01  0.24014508487E-01  0.51109989000E-03 0. -1.
     -623    1    1    2    0    0 -0.44224517374E-04 -0.69337562860E-04  0.58427813313E-04  0.17130000000E+03  0.17130000000E+03 0. -1.
      622    1    1    2    0    0 -0.24634496991E-03  0.28208036472E-03  0.39759351715E+01  0.39759854915E+01  0.20000000000E-01 0. -1.
</event>
<event>
 5   0  0.3603037E+08  0.9118800E+02  0.7818608E-02  0.1180000E+00
       11   -1    0    0    0    0  0.00000000000E+00  0.00000000000E+00  0.39999999673E+01  0.40000000000E+01  0.51109989000E-03 0. -1.
     -623   -1    0    0    0    0  0.00000000000E+00  0.00000000000E+00  0.12525980253E-10  0.17130000000E+03  0.17130000000E+03 0. -1.
       11    1    1    2    0    0  0.25493796197E-03 -0.11779756095E-02  0.18830015935E-01  0.18875469269E-01  0.51109989000E-03 0.  1.
     -623    1    1    2    0    0  0.89816853966E-04 -0.74853557764E-04  0.95870197948E-04  0.17130000000E+03  0.17130000000E+03 0. -1.
      622    1    1    2    0    0 -0.34475481593E-03  0.12528291673E-02  0.39810740812E+01  0.39811245307E+01  0.20000000000E-01 0. -1.
</event>
<event>
 5   0  0.3603037E+08  0.9118800E+02  0.7818608E-02  0.1180000E+00
       11   -1    0    0    0    0  0.00000000000E+00  0.00000000000E+00  0.39999999673E+01  0.40000000000E+01  0.51109989000E-03 0.  1.
     -623   -1    0    0    0    0  0.00000000000E+00  0.00000000000E+00  0.12525980253E-10  0.17130000000E+03  0.17130000000E+03 0. -1.
       11    1    1    2    0    0 -0.40972703574E-02  0.32328009021E-02  0.24759033537E+01  0.24759089072E+01  0.51109989000E-03 0.  1.
     -623    1    1    2    0    0  0.40510203644E-02 -0.68243063199E-02  0.14116890822E-03  0.17130000018E+03  0.17130000000E+03 0. -1.
      622    1    1    2    0    0  0.46249992976E-04  0.35915054178E-02  0.15239554448E+01  0.15240909089E+01  0.20000000000E-01 0.  1.
</event>
<event>
 5   0  0.3603037E+08  0.9118800E+02  0.7818608E-02  0.1180000E+00
       11   -1    0    0    0    0  0.00000000000E+00  0.00000000000E+00  0.39999999673E+01  0.40000000000E+01  0.51109989000E-03 0.  1.
     -623   -1    0    0    0    0  0.00000000000E+00  0.00000000000E+00  0.12525980253E-10  0.17130000000E+03  0.17130000000E+03 0. -1.
       11    1    1    2    0    0 -0.29926292274E-02  0.34863980514E-02  0.93151275898E+00  0.93152423059E+00  0.51109989000E-03 0.  1.
     -623    1    1    2    0    0  0.94532769920E-04 -0.14154154337E-03  0.79810424005E-04  0.17130000000E+03  0.17130000000E+03 0. -1.
      622    1    1    2    0    0  0.28980964575E-02 -0.33448565081E-02  0.30684073980E+01  0.30684757693E+01  0.20000000000E-01 0.  1.
</event>
<event>
 5   0  0.3603037E+08  0.9118800E+02  0.7818608E-02  0.1180000E+00
       11   -1    0    0    0    0  0.00000000000E+00  0.00000000000E+00  0.39999999673E+01  0.40000000000E+01  0.51109989000E-03 0.  1.
     -623   -1    0    0    0    0  0.00000000000E+00  0.00000000000E+00  0.12525980253E-10  0.17130000000E+03  0.17130000000E+03 0.  1.
       11    1    1    2    0    0  0.13309960699E-01 -0.25797559457E-02  0.17603172219E+01  0.17603695047E+01  0.51109989000E-03 0.  1.
     -623    1    1    2    0    0  0.17203663099E-02 -0.32593844366E-02  0.19964192865E-03  0.17130000004E+03  0.17130000000E+03 0.  1.
      622    1    1    2    0    0 -0.15030327009E-01  0.58391403823E-02  0.22394831035E+01  0.22396304555E+01  0.20000000000E-01 0.  1.
</event>
<event>
 5   0  0.3603037E+08  0.9118800E+02  0.7818608E-02  0.1180000E+00
       11   -1    0    0    0    0  0.00000000000E+00  0.00000000000E+00  0.39999999673E+01  0.40000000000E+01  0.51109989000E-03 0. -1.
     -623   -1    0    0    0    0  0.00000000000E+00  0.00000000000E+00  0.12525980253E-10  0.17130000000E+03  0.17130000000E+03 0. -1.
       11    1    1    2    0    0  0.43319945861E-02 -0.29192469551E-02  0.54454464598E+00  0.54456994121E+00  0.51109989000E-03 0. -1.
     -623    1    1    2    0    0 -0.16341795935E-04 -0.43539378860E-03  0.87467049469E-04  0.17130000000E+03  0.17130000000E+03 0. -1.
      622    1    1    2    0    0 -0.43156527902E-02  0.33546407437E-02  0.34553678543E+01  0.34554300582E+01  0.20000000000E-01 0. -1.
</event>
<event>
 5   0  0.3603037E+08  0.9118800E+02  0.7818608E-02  0.1180000E+00
       11   -1    0    0    0    0  0.00000000000E+00  0.00000000000E+00  0.39999999673E+01  0.40000000000E+01  0.51109989000E-03 0.  1.
     -623   -1    0    0    0    0  0.00000000000E+00  0.00000000000E+00  0.12525980253E-10  0.17130000000E+03  0.17130000000E+03 0.  1.
       11    1    1    2    0    0  0.43642282595E-02  0.24378410718E-02  0.15051098355E+00  0.15059484370E+00  0.51109989000E-03 0.  1.
     -623    1    1    2    0    0 -0.12896714766E-04  0.11697608173E-03  0.13909123543E-03  0.17130000000E+03  0.17130000000E+03 0.  1.
      622    1    1    2    0    0 -0.43513315447E-02 -0.25548171535E-02  0.38493498926E+01  0.38494051562E+01  0.20000000000E-01 0.  1.
</event>
<event>
 5   0  0.3603037E+08  0.9118800E+02  0.7818608E-02  0.1180000E+00
       11   -1    0    0    0    0  0.00000000000E+00  0.00000000000E+00  0.39999999673E+01  0.40000000000E+01  0.51109989000E-03 0. -1.
     -623   -1    0    0    0    0  0.00000000000E+00  0.00000000000E+00  0.12525980253E-10  0.17130000000E+03  0.17130000000E+03 0.  1.
       11    1    1    2    0    0 -0.42641864140E-02  0.67779042712E-03  0.47133254923E+00  0.47135260249E+00  0.51109989000E-03 0. -1.
     -623    1    1    2    0    0 -0.14601334757E-02  0.64012506990E-03  0.81596764786E-04  0.17130000001E+03  0.17130000000E+03 0.  1.
      622    1    1    2    0    0  0.57243198897E-02 -0.13179154970E-02  0.35285858214E+01  0.35286473901E+01  0.20000000000E-01 0. -1.
</event>
<event>
 5   0  0.3603037E+08  0.9118800E+02  0.7818608E-02  0.1180000E+00
       11   -1    0    0    0    0  0.00000000000E+00  0.00000000000E+00  0.39999999673E+01  0.40000000000E+01  0.51109989000E-03 0.  1.
     -623   -1    0    0    0    0  0.00000000000E+00  0.00000000000E+00  0.12525980253E-10  0.17130000000E+03  0.17130000000E+03 0.  1.
       11    1    1    2    0    0 -0.10003078012E-01 -0.13922859304E-01  0.19986750028E+01  0.19987485924E+01  0.51109989000E-03 0.  1.
     -623    1    1    2    0    0 -0.20483858427E-02 -0.47786218801E-02  0.29725450358E-03  0.17130000008E+03  0.17130000000E+03 0.  1.
      622    1    1    2    0    0  0.12051463855E-01  0.18701481184E-01  0.20010277101E+01  0.20012513284E+01  0.20000000000E-01 0.  0.
</event>
<event>
 5   0  0.3603037E+08  0.9118800E+02  0.7818608E-02  0.1180000E+00
       11   -1    0    0    0    0  0.00000000000E+00  0.00000000000E+00  0.39999999673E+01  0.40000000000E+01  0.51109989000E-03 0.  1.
     -623   -1    0    0    0    0  0.00000000000E+00  0.00000000000E+00  0.12525980253E-10  0.17130000000E+03  0.17130000000E+03 0.  1.
       11    1    1    2    0    0  0.64144649786E-02 -0.71603675057E-02  0.21164033683E+00  0.21185917402E+00  0.51109989000E-03 0.  1.
     -623    1    1    2    0    0 -0.23873449967E-02  0.72949727085E-02  0.27391646699E-03  0.17130000017E+03  0.17130000000E+03 0.  1.
      622    1    1    2    0    0 -0.40271199819E-02 -0.13460520275E-03  0.37880857141E+01  0.37881406538E+01  0.20000000000E-01 0.  1.
</event>
<event>
 5   0  0.3603037E+08  0.9118800E+02  0.7818608E-02  0.1180000E+00
       11   -1    0    0    0    0  0.00000000000E+00  0.00000000000E+00  0.39999999673E+01  0.40000000000E+01  0.51109989000E-03 0. -1.
     -623   -1    0    0    0    0  0.00000000000E+00  0.00000000000E+00  0.12525980253E-10  0.17130000000E+03  0.17130000000E+03 0.  1.
       11    1    1    2    0    0  0.30127255786E-02  0.30883685681E-03  0.53866538207E-01  0.53954027245E-01  0.51109989000E-03 0. -1.
     -623    1    1    2    0    0 -0.12749966623E-02 -0.15175827457E-02  0.13871965525E-03  0.17130000001E+03  0.17130000000E+03 0.  1.
      622    1    1    2    0    0 -0.17377289163E-02  0.12087458889E-02  0.39459947095E+01  0.39460459612E+01  0.20000000000E-01 0. -1.
</event>
<event>
 5   0  0.3603037E+08  0.9118800E+02  0.7818608E-02  0.1180000E+00
       11   -1    0    0    0    0  0.00000000000E+00  0.00000000000E+00  0.39999999673E+01  0.40000000000E+01  0.51109989000E-03 0.  1.
     -623   -1    0    0    0    0  0.00000000000E+00  0.00000000000E+00  0.12525980253E-10  0.17130000000E+03  0.17130000000E+03 0. -1.
       11    1    1    2    0    0 -0.11903091604E-02 -0.35593514505E-03  0.35806600010E-01  0.35831792457E-01  0.51109989000E-03 0.  1.
     -623    1    1    2    0    0  0.16654245854E-03  0.80715439484E-03  0.75771951304E-04  0.17130000000E+03  0.17130000000E+03 0. -1.
      622    1    1    2    0    0  0.10237667019E-02 -0.45121924979E-03  0.39641175954E+01  0.39641682055E+01  0.20000000000E-01 0.  1.
</event>
<event>
 5   0  0.3603037E+08  0.9118800E+02  0.7818608E-02  0.1180000E+00
       11   -1    0    0    0    0  0.00000000000E+00  0.00000000000E+00  0.39999999673E+01  0.40000000000E+01  0.51109989000E-03 0.  1.
     -623   -1    0    0    0    0  0.00000000000E+00  0.00000000000E+00  0.12525980253E-10  0.17130000000E+03  0.17130000000E+03 0.  1.
       11    1    1    2    0    0 -0.69650063942E-04 -0.83972183884E-03  0.26057949655E-01  0.26076578509E-01  0.51109989000E-03 0. -1.
     -623    1    1    2    0    0  0.25249608834E-03  0.80353571350E-03  0.68931084215E-04  0.17130000000E+03  0.17130000000E+03 0.  1.
      622    1    1    2    0    0 -0.18284602440E-03  0.36186125336E-04  0.39738730866E+01  0.39739234194E+01  0.20000000000E-01 0.  1.
</event>
<event>
 5   0  0.3603037E+08  0.9118800E+02  0.7818608E-02  0.1180000E+00
       11   -1    0    0    0    0  0.00000000000E+00  0.00000000000E+00  0.39999999673E+01  0.40000000000E+01  0.51109989000E-03 0. -1.
     -623   -1    0    0    0    0  0.00000000000E+00  0.00000000000E+00  0.12525980253E-10  0.17130000000E+03  0.17130000000E+03 0.  1.
       11    1    1    2    0    0 -0.39410726782E-03  0.19240296768E-02  0.13216369584E+00  0.13217927572E+00  0.51109989000E-03 0. -1.
     -623    1    1    2    0    0 -0.10800353202E-02 -0.12301616503E-02  0.67607291861E-04  0.17130000001E+03  0.17130000000E+03 0.  1.
      622    1    1    2    0    0  0.14741425880E-02 -0.69386802655E-03  0.38677686642E+01  0.38678207164E+01  0.20000000000E-01 0. -1.
</event>
<event>
 5   0  0.3603037E+08  0.9118800E+02  0.7818608E-02  0.1180000E+00
       11   -1    0    0    0    0  0.00000000000E+00  0.00000000000E+00  0.39999999673E+01  0.40000000000E+01  0.51109989000E-03 0. -1.
     -623   -1    0    0    0    0  0.00000000000E+00  0.00000000000E+00  0.12525980253E-10  0.17130000000E+03  0.17130000000E+03 0.  1.
       11    1    1    2    0    0 -0.20721189141E-02 -0.10496798360E-02  0.53068463947E+00  0.53068996909E+00  0.51109989000E-03 0. -1.
     -623    1    1    2    0    0 -0.96171692335E-04 -0.15198521033E-02  0.64581759576E-04  0.17130000001E+03  0.17130000000E+03 0.  1.
      622    1    1    2    0    0  0.21682906064E-02  0.25695319393E-02  0.34692507461E+01  0.34693100241E+01  0.20000000000E-01 0. -1.
</event>
<event>
 5   0  0.3603037E+08  0.9118800E+02  0.7818608E-02  0.1180000E+00
       11   -1    0    0    0    0  0.00000000000E+00  0.00000000000E+00  0.39999999673E+01  0.40000000000E+01  0.51109989000E-03 0.  1.
     -623   -1    0    0    0    0  0.00000000000E+00  0.00000000000E+00  0.12525980253E-10  0.17130000000E+03  0.17130000000E+03 0. -1.
       11    1    1    2    0    0 -0.16953661279E-02 -0.22213991276E-02  0.48350850889E-01  0.48434232570E-01  0.51109989000E-03 0.  1.
     -623    1    1    2    0    0  0.42203076360E-02  0.34118694524E-02  0.13503425481E-03  0.17130000009E+03  0.17130000000E+03 0. -1.
      622    1    1    2    0    0 -0.25249415082E-02 -0.11904703248E-02  0.39515140822E+01  0.39515656814E+01  0.20000000000E-01 0.  1.
</event>
<event>
 5   0  0.3603037E+08  0.9118800E+02  0.7818608E-02  0.1180000E+00
       11   -1    0    0    0    0  0.00000000000E+00  0.00000000000E+00  0.39999999673E+01  0.40000000000E+01  0.51109989000E-03 0.  1.
     -623   -1    0    0    0    0  0.00000000000E+00  0.00000000000E+00  0.12525980253E-10  0.17130000000E+03  0.17130000000E+03 0.  1.
       11    1    1    2    0    0 -0.35297678658E-01  0.20746118438E-02  0.61804007327E+00  0.61905090544E+00  0.51109989000E-03 0.  1.
     -623    1    1    2    0    0  0.35014346898E-01  0.51752853842E-02  0.10814003578E-02  0.17130000366E+03  0.17130000000E+03 0.  1.
      622    1    1    2    0    0  0.28333176028E-03 -0.72498972281E-02  0.33808784937E+01  0.33809454344E+01  0.20000000000E-01 0.  1.
</event>
<event>
 5   0  0.3603037E+08  0.9118800E+02  0.7818608E-02  0.1180000E+00
       11   -1    0    0    0    0  0.00000000000E+00  0.00000000000E+00  0.39999999673E+01  0.40000000000E+01  0.51109989000E-03 0.  1.
     -623   -1    0    0    0    0  0.00000000000E+00  0.00000000000E+00  0.12525980253E-10  0.17130000000E+03  0.17130000000E+03 0. -1.
       11    1    1    2    0    0  0.11873646906E-01  0.34354554037E-03  0.16529757890E+01  0.16530185485E+01  0.51109989000E-03 0.  1.
     -623    1    1    2    0    0 -0.29496522654E-02 -0.34505144175E-03  0.14493673359E-03  0.17130000003E+03  0.17130000000E+03 0. -1.
      622    1    1    2    0    0 -0.89239946411E-02  0.15059013768E-05  0.23468792416E+01  0.23469814257E+01  0.20000000000E-01 0.  0.
</event>
<event>
 5   0  0.3603037E+08  0.9118800E+02  0.7818608E-02  0.1180000E+00
       11   -1    0    0    0    0  0.00000000000E+00  0.00000000000E+00  0.39999999673E+01  0.40000000000E+01  0.51109989000E-03 0.  1.
     -623   -1    0    0    0    0  0.00000000000E+00  0.00000000000E+00  0.12525980253E-10  0.17130000000E+03  0.17130000000E+03 0.  1.
       11    1    1    2    0    0 -0.79339659060E-02  0.10847895373E-01  0.34833746610E-01  0.37340002305E-01  0.51109989000E-03 0.  1.
     -623    1    1    2    0    0  0.91056736523E-02 -0.29380901549E-02  0.25650486034E-02  0.17130000029E+03  0.17130000000E+03 0.  1.
      622    1    1    2    0    0 -0.11717077463E-02 -0.79098052181E-02  0.39626011721E+01  0.39626597113E+01  0.20000000000E-01 0.  1.
</event>
<event>
 5   0  0.3603037E+08  0.9118800E+02  0.7818608E-02  0.1180000E+00
       11   -1    0    0    0    0  0.00000000000E+00  0.00000000000E+00  0.39999999673E+01  0.40000000000E+01  0.51109989000E-03 0. -1.
     -623   -1    0    0    0    0  0.00000000000E+00  0.00000000000E+00  0.12525980253E-10  0.17130000000E+03  0.17130000000E+03 0.  1.
       11    1    1    2    0    0  0.13201450501E-01 -0.70461877492E-02  0.16419012295E+00  0.16487141885E+00  0.51109989000E-03 0. -1.
     -623    1    1    2    0    0 -0.53287907276E-02  0.78522171241E-02  0.74184279204E-03  0.17130000026E+03  0.17130000000E+03 0.  1.
      622    1    1    2    0    0 -0.78726597732E-02 -0.80602937495E-03  0.38350680016E+01  0.38351283167E+01  0.20000000000E-01 0. -1.
</event>
<event>
 5   0  0.3603037E+08  0.9118800E+02  0.7818608E-02  0.1180000E+00
       11   -1    0    0    0    0  0.00000000000E+00  0.00000000000E+00  0.39999999673E+01  0.40000000000E+01  0.51109989000E-03 0.  1.
     -623   -1    0    0    0    0  0.00000000000E+00  0.00000000000E+00  0.12525980253E-10  0.17130000000E+03  0.17130000000E+03 0. -1.
       11    1    1    2    0    0 -0.10795203496E-02 -0.10029518195E-02  0.59105449324E-01  0.59126023359E-01  0.51109989000E-03 0.  1.
     -623    1    1    2    0    0  0.24795763539E-03 -0.16349916055E-03  0.71552522489E-04  0.17130000000E+03  0.17130000000E+03 0. -1.
      622    1    1    2    0    0  0.83156271425E-03  0.11664509801E-02  0.39408229655E+01  0.39408739764E+01  0.20000000000E-01 0.  1.
</event>
<event>
 5   0  0.3603037E+08  0.9118800E+02  0.7818608E-02  0.1180000E+00
       11   -1    0    0    0    0  0.00000000000E+00  0.00000000000E+00  0.39999999673E+01  0.40000000000E+01  0.51109989000E-03 0. -1.
     -623   -1    0    0    0    0  0.00000000000E+00  0.00000000000E+00  0.12525980253E-10  0.17130000000E+03  0.17130000000E+03 0. -1.
       11    1    1    2    0    0  0.43866886871E-02 -0.13818358472E-02  0.16877889663E+01  0.16877953100E+01  0.51109989000E-03 0. -1.
     -623    1    1    2    0    0  0.60632885768E-03 -0.34047740588E-02  0.10319108048E-03  0.17130000003E+03  0.17130000000E+03 0. -1.
      622    1    1    2    0    0 -0.49930175448E-02  0.47866099060E-02  0.23121078100E+01  0.23122046551E+01  0.20000000000E-01 0. -1.
</event>
<event>
 5   0  0.3603037E+08  0.9118800E+02  0.7818608E-02  0.1180000E+00
       11   -1    0    0    0    0  0.00000000000E+00  0.00000000000E+00  0.39999999673E+01  0.40000000000E+01  0.51109989000E-03 0.  1.
     -623   -1    0    0    0    0  0.00000000000E+00  0.00000000000E+00  0.12525980253E-10  0.17130000000E+03  0.17130000000E+03 0. -1.
       11    1    1    2    0    0  0.40691863514E-03  0.10125225046E-02  0.26105137939E-01  0.26132933870E-01  0.51109989000E-03 0.  1.
     -623    1    1    2    0    0 -0.64405864424E-03 -0.24946920265E-02  0.78395302670E-04  0.17130000002E+03  0.17130000000E+03 0. -1.
      622    1    1    2    0    0  0.23714000911E-03  0.14821695220E-02  0.39738164341E+01  0.39738670467E+01  0.20000000000E-01 0.  1.
</event>
<event>
 5   0  0.3603037E+08  0.9118800E+02  0.7818608E-02  0.1180000E+00
       11   -1    0    0    0    0  0.00000000000E+00  0.00000000000E+00  0.39999999673E+01  0.40000000000E+01  0.51109989000E-03 0. -1.
     -623   -1    0    0    0    0  0.00000000000E+00  0.00000000000E+00  0.12525980253E-10  0.17130000000E+03  0.17130000000E+03 0. -1.
       11    1    1    2    0    0  0.29170075212E-02  0.62101232313E-02  0.10032203267E+01  0.10032439184E+01  0.51109989000E-03 0. -1.
     -623    1    1    2    0    0 -0.39388725932E-02  0.49231129222E-02  0.11126992546E-03  0.17130000012E+03  0.17130000000E+03 0. -1.
      622    1    1    2    0    0  0.10218650720E-02 -0.11133236153E-01  0.29966683707E+01  0.29967559656E+01  0.20000000000E-01 0. -1.
</event>
<event>
 5   0  0.3603037E+08  0.9118800E+02  0.7818608E-02  0.1180000E+00
       11   -1    0    0    0    0  0.00000000000E+00  0.00000000000E+00  0.39999999673E+01  0.40000000000E+01  0.51109989000E-03 0.  1.
     -623   -1    0    0    0    0  0.00000000000E+00  0.00000000000E+00  0.12525980253E-10  0.17130000000E+03  0.17130000000E+03 0. -1.
       11    1    1    2    0    0 -0.29738985583E-02  0.68514283080E-03  0.75191290078E-01  0.75254932183E-01  0.51109989000E-03 0.  1.
     -623    1    1    2    0    0  0.31749213051E-02  0.16839771626E-02  0.11532645998E-03  0.17130000004E+03  0.17130000000E+03 0. -1.
      622    1    1    2    0    0 -0.20102274675E-03 -0.23691199934E-02  0.39246933508E+01  0.39247450301E+01  0.20000000000E-01 0.  1.
</event>
<event>
 5   0  0.3603037E+08  0.9118800E+02  0.7818608E-02  0.1180000E+00
       11   -1    0    0    0    0  0.00000000000E+00  0.00000000000E+00  0.39999999673E+01  0.40000000000E+01  0.51109989000E-03 0. -1.
     -623   -1    0    0    0    0  0.00000000000E+00  0.00000000000E+00  0.12525980253E-10  0.17130000000E+03  0.17130000000E+03 0.  1.
       11    1    1    2    0    0  0.17362846403E-03  0.55382814264E-03  0.94348694406E-01  0.94351863951E-01  0.51109989000E-03 0. -1.
     -623    1    1    2    0    0  0.78091254699E-04  0.58625000024E-04  0.54401298769E-04  0.17130000000E+03  0.17130000000E+03 0.  1.
      622    1    1    2    0    0 -0.25171971873E-03 -0.61245314266E-03  0.39055968717E+01  0.39056481360E+01  0.20000000000E-01 0. -1.
</event>
<event>
 5   0  0.3603037E+08  0.9118800E+02  0.7818608E-02  0.1180000E+00
       11   -1    0    0    0    0  0.00000000000E+00  0.00000000000E+00  0.39999999673E+01  0.40000000000E+01  0.51109989000E-03 0. -1.
     -623   -1    0    0    0    0  0.00000000000E+00  0.00000000000E+00  0.12525980253E-10  0.17130000000E+03  0.17130000000E+03 0.  1.
       11    1    1    2    0    0  0.29739455771E-02  0.20888638229E-02  0.22940793784E+01  0.22940823140E+01  0.51109989000E-03 0. -1.
     -623    1    1    2    0    0  0.87282422592E-03 -0.95086998564E-03  0.12486788001E-03  0.17130000000E+03  0.17130000000E+03 0.  1.
      622    1    1    2    0    0 -0.38467698030E-02 -0.11379938372E-02  0.17057957211E+01  0.17059176811E+01  0.20000000000E-01 0. -1.
</event>
<event>
 5   0  0.3603037E+08  0.9118800E+02  0.7818608E-02  0.1180000E+00
       11   -1    0    0    0    0  0.00000000000E+00  0.00000000000E+00  0.39999999673E+01  0.40000000000E+01  0.51109989000E-03 0. -1.
     -623   -1    0    0    0    0  0.00000000000E+00  0.00000000000E+00  0.12525980253E-10  0.17130000000E+03  0.17130000000E+03 0. -1.
       11    1    1    2    0    0  0.13138287097E-03  0.33368116945E-04  0.15927424822E-01  0.15936199631E-01  0.51109989000E-03 0. -1.
     -623    1    1    2    0    0  0.23087784633E-03 -0.11187826117E-03  0.58959930723E-04  0.17130000000E+03  0.17130000000E+03 0. -1.
      622    1    1    2    0    0 -0.36226071729E-03  0.78510144227E-04  0.39840135826E+01  0.39840638002E+01  0.20000000000E-01 0. -1.
</event>
<event>
 5   0  0.3603037E+08  0.9118800E+02  0.7818608E-02  0.1180000E+00
       11   -1    0    0    0    0  0.00000000000E+00  0.00000000000E+00  0.39999999673E+01  0.40000000000E+01  0.51109989000E-03 0. -1.
     -623   -1    0    0    0    0  0.00000000000E+00  0.00000000000E+00  0.12525980253E-10  0.17130000000E+03  0.17130000000E+03 0. -1.
       11    1    1    2    0    0 -0.32119095686E-04  0.18486998279E-02  0.25311220654E+00  0.25311947583E+00  0.51109989000E-03 0. -1.
     -623    1    1    2    0    0 -0.23244574460E-03  0.83130830064E-04  0.61122312462E-04  0.17130000000E+03  0.17130000000E+03 0. -1.
      622    1    1    2    0    0  0.26456484028E-03 -0.19318306579E-02  0.37468266385E+01  0.37468805240E+01  0.20000000000E-01 0. -1.
</event>
<event>
 5   0  0.3603037E+08  0.9118800E+02  0.7818608E-02  0.1180000E+00
       11   -1    0    0    0    0  0.00000000000E+00  0.00000000000E+00  0.39999999673E+01  0.40000000000E+01  0.51109989000E-03 0.  1.
     -623   -1    0    0    0    0  0.00000000000E+00  0.00000000000E+00  0.12525980253E-10  0.17130000000E+03  0.17130000000E+03 0. -1.
       11    1    1    2    0    0  0.70248528426E-02  0.23581943807E-02  0.19891915134E+01  0.19892053810E+01  0.51109989000E-03 0.  1.
     -623    1    1    2    0    0 -0.34319263348E-03  0.89635426021E-04  0.12589282805E-03  0.17130000000E+03  0.17130000000E+03 0. -1.
      622    1    1    2    0    0 -0.66816602091E-02 -0.24478298067E-02  0.20106825611E+01  0.20107946186E+01  0.20000000000E-01 0.  0.
</event>
<event>
 5   0  0.3603037E+08  0.9118800E+02  0.7818608E-02  0.1180000E+00
       11   -1    0    0    0    0  0.00000000000E+00  0.00000000000E+00  0.39999999673E+01  0.40000000000E+01  0.51109989000E-03 0.  1.
     -623   -1    0    0    0    0  0.00000000000E+00  0.00000000000E+00  0.12525980253E-10  0.17130000000E+03  0.17130000000E+03 0.  1.
       11    1    1    2    0    0  0.10289225145E-02 -0.17063934453E-02  0.40505533233E-02  0.45429797253E-02  0.51109989000E-03 0. -1.
     -623    1    1    2    0    0 -0.54453855033E-03  0.74381426851E-03  0.54259958225E-03  0.17130000000E+03  0.17130000000E+03 0.  1.
      622    1    1    2    0    0 -0.48438396418E-03  0.96257917676E-03  0.39954068145E+01  0.39954570169E+01  0.20000000000E-01 0.  1.
</event>
<event>
 5   0  0.3603037E+08  0.9118800E+02  0.7818608E-02  0.1180000E+00
       11   -1    0    0    0    0  0.00000000000E+00  0.00000000000E+00  0.39999999673E+01  0.40000000000E+01  0.51109989000E-03 0. -1.
     -623   -1    0    0    0    0  0.00000000000E+00  0.00000000000E+00  0.12525980253E-10  0.17130000000E+03  0.17130000000E+03 0. -1.
       11    1    1    2    0    0 -0.13066700860E-01  0.54920817525E-02  0.27365339385E+01  0.27365706933E+01  0.51109989000E-03 0. -1.
     -623    1    1    2    0    0  0.11005697196E-01 -0.14445354600E-01  0.22940359431E-03  0.17130000096E+03  0.17130000000E+03 0. -1.
      622    1    1    2    0    0  0.20610036638E-02  0.89532728471E-02  0.12632366252E+01  0.12634283439E+01  0.20000000000E-01 0.  1.
</event>
<event>
 5   0  0.3603037E+08  0.9118800E+02  0.7818608E-02  0.1180000E+00
       11   -1    0    0    0    0  0.00000000000E+00  0.00000000000E+00  0.39999999673E+01  0.40000000000E+01  0.51109989000E-03 0.  1.
     -623   -1    0    0    0    0  0.00000000000E+00  0.00000000000E+00  0.12525980253E-10  0.17130000000E+03  0.17130000000E+03 0.  1.
       11    1    1    2    0    0 -0.52820733625E-03  0.26780130142E-03  0.43846910008E-01  0.43853887608E-01  0.51109989000E-03 0.  1.
     -623    1    1    2    0    0 -0.23721186858E-03  0.10555441173E-03  0.57591403624E-04  0.17130000000E+03  0.17130000000E+03 0.  1.
      622    1    1    2    0    0  0.76541920483E-03 -0.37335571315E-03  0.39560954659E+01  0.39561461122E+01  0.20000000000E-01 0.  1.
</event>
<event>
 5   0  0.3603037E+08  0.9118800E+02  0.7818608E-02  0.1180000E+00
       11   -1    0    0    0    0  0.00000000000E+00  0.00000000000E+00  0.39999999673E+01  0.40000000000E+01  0.51109989000E-03 0. -1.
     -623   -1    0    0    0    0  0.00000000000E+00  0.00000000000E+00  0.12525980253E-10  0.17130000000E+03  0.17130000000E+03 0. -1.
       11    1    1    2    0    0 -0.84275115194E-02 -0.52958395076E-02  0.16878550402E+01  0.16878844649E+01  0.51109989000E-03 0. -1.
     -623    1    1    2    0    0 -0.38360902335E-02  0.29984091058E-02  0.14963016892E-03  0.17130000007E+03  0.17130000000E+03 0. -1.
      622    1    1    2    0    0  0.12263601753E-01  0.22974304017E-02  0.23119952970E+01  0.23121154659E+01  0.20000000000E-01 0. -1.
</event>
<event>
 5   0  0.3603037E+08  0.9118800E+02  0.7818608E-02  0.1180000E+00
       11   -1    0    0    0    0  0.00000000000E+00  0.00000000000E+00  0.39999999673E+01  0.40000000000E+01  0.51109989000E-03 0. -1.
     -623   -1    0    0    0    0  0.00000000000E+00  0.00000000000E+00  0.12525980253E-10  0.17130000000E+03  0.17130000000E+03 0.  1.
       11    1    1    2    0    0  0.13557448495E-02 -0.33142184199E-02  0.13879026263E-01  0.14342617617E-01  0.51109989000E-03 0. -1.
     -623    1    1    2    0    0  0.67243396089E-03  0.25440080933E-02  0.51435040756E-03  0.17130000002E+03  0.17130000000E+03 0.  1.
      622    1    1    2    0    0 -0.20281788104E-02  0.77021032660E-03  0.39856065907E+01  0.39856573614E+01  0.20000000000E-01 0. -1.
</event>
<event>
 5   0  0.3603037E+08  0.9118800E+02  0.7818608E-02  0.1180000E+00
       11   -1    0    0    0    0  0.00000000000E+00  0.00000000000E+00  0.39999999673E+01  0.40000000000E+01  0.51109989000E-03 0. -1.
     -623   -1    0    0    0    0  0.00000000000E+00  0.00000000000E+00  0.12525980253E-10  0.17130000000E+03  0.17130000000E+03 0.  1.
       11    1    1    2    0    0  0.23769933691E-02 -0.68366437031E-03  0.59148601028E-01  0.59202497570E-01  0.51109989000E-03 0. -1.
     -623    1    1    2    0    0 -0.18512001093E-03  0.24024962738E-02  0.10561677767E-03  0.17130000002E+03  0.17130000000E+03 0.  1.
      622    1    1    2    0    0 -0.21918733582E-02 -0.17188319034E-02  0.39407457496E+01  0.39407974854E+01  0.20000000000E-01 0. -1.
</event>
<event>
 5   0  0.3603037E+08  0.9118800E+02  0.7818608E-02  0.1180000E+00
       11   -1    0    0    0    0  0.00000000000E+00  0.00000000000E+00  0.39999999673E+01  0.40000000000E+01  0.51109989000E-03 0. -1.
     -623   -1    0    0    0    0  0.00000000000E+00  0.00000000000E+00  0.12525980253E-10  0.17130000000E+03  0.17130000000E+03 0. -1.
       11    1    1    2    0    0  0.76547406138E-03 -0.15731425951E-02  0.13070362478E-01  0.13196830058E-01  0.51109989000E-03 0. -1.
     -623    1    1    2    0    0  0.36208159297E-04  0.27971265798E-04  0.17698089936E-03  0.17130000000E+03  0.17130000000E+03 0. -1.
      622    1    1    2    0    0 -0.80168222068E-03  0.15451713293E-02  0.39867526240E+01  0.39868031698E+01  0.20000000000E-01 0. -1.
</event>
<event>
 5   0  0.3603037E+08  0.9118800E+02  0.7818608E-02  0.1180000E+00
       11   -1    0    0    0    0  0.00000000000E+00  0.00000000000E+00  0.39999999673E+01  0.40000000000E+01  0.51109989000E-03 0.  1.
     -623   -1    0    0    0    0  0.00000000000E+00  0.00000000000E+00  0.12525980253E-10  0.17130000000E+03  0.17130000000E+03 0.  1.
       11    1    1    2    0    0  0.72340960823E-02 -0.19418913108E-01  0.11846583798E+01  0.11848397210E+01  0.51109989000E-03 0.  1.
     -623    1    1    2    0    0  0.14841327188E-02 -0.49438833530E-03  0.33629316449E-03  0.17130000001E+03  0.17130000000E+03 0.  1.
      622    1    1    2    0    0 -0.87182288010E-02  0.19913301443E-01  0.28150052944E+01  0.28151602715E+01  0.20000000000E-01 0.  1.
</event>
<event>
 5   0  0.3603037E+08  0.9118800E+02  0.7818608E-02  0.1180000E+00
       11   -1    0    0    0    0  0.00000000000E+00  0.00000000000E+00  0.39999999673E+01  0.40000000000E+01  0.51109989000E-03 0.  1.
     -623   -1    0    0    0    0  0.00000000000E+00  0.00000000000E+00  0.12525980253E-10  0.17130000000E+03  0.17130000000E+03 0.  1.
       11    1    1    2    0    0  0.21393477670E-02  0.62860314950E-02  0.12137025173E+00  0.12155282895E+00  0.51109989000E-03 0.  1.
     -623    1    1    2    0    0  0.19375701221E-04  0.21226082611E-03  0.24015701072E-03  0.17130000000E+03  0.17130000000E+03 0.  1.
      622    1    1    2    0    0 -0.21587234682E-02 -0.64982923211E-02  0.38783895586E+01  0.38784471708E+01  0.20000000000E-01 0.  1.
</event>
<event>
 5   0  0.3603037E+08  0.9118800E+02  0.7818608E-02  0.1180000E+00
       11   -1    0    0    0    0  0.00000000000E+00  0.00000000000E+00  0.39999999673E+01  0.40000000000E+01  0.51109989000E-03 0. -1.
     -623   -1    0    0    0    0  0.00000000000E+00  0.00000000000E+00  0.12525980253E-10  0.17130000000E+03  0.17130000000E+03 0.  1.
       11    1    1    2    0    0 -0.33984979973E-03 -0.17118183431E-02  0.21565056190E+00  0.21565822935E+00  0.51109989000E-03 0. -1.
     -623    1    1    2    0    0  0.34252371081E-03 -0.43596659414E-03  0.61094932816E-04  0.17130000000E+03  0.17130000000E+03 0.  1.
      622    1    1    2    0    0 -0.26739110756E-05  0.21477849372E-02  0.37842883105E+01  0.37843417697E+01  0.20000000000E-01 0. -1.
</event>
<event>
 5   0  0.3603037E+08  0.9118800E+02  0.7818608E-02  0.1180000E+00
       11   -1    0    0    0    0  0.00000000000E+00  0.00000000000E+00  0.39999999673E+01  0.40000000000E+01  0.51109989000E-03 0. -1.
     -623   -1    0    0    0    0  0.00000000000E+00  0.00000000000E+00  0.12525980253E-10  0.17130000000E+03  0.17130000000E+03 0. -1.
       11    1    1    2    0    0 -0.19014390255E-01 -0.29720888385E-01  0.12726966855E+00  0.13207084461E+00  0.51109989000E-03 0. -1.
     -623    1    1    2    0    0 -0.79264924188E-03  0.85289574644E-02  0.49619084222E-02  0.17130000029E+03  0.17130000000E+03 0. -1.
      622    1    1    2    0    0  0.19807039497E-01  0.21191930921E-01  0.38677683904E+01  0.38679288694E+01  0.20000000000E-01 0. -1.
</event>
<event>
 5   0  0.3603037E+08  0.9118800E+02  0.7818608E-02  0.1180000E+00
       11   -1    0    0    0    0  0.00000000000E+00  0.00000000000E+00  0.39999999673E+01  0.40000000000E+01  0.51109989000E-03 0. -1.
     -623   -1    0    0    0    0  0.00000000000E+00  0.00000000000E+00  0.12525980253E-10  0.17130000000E+03  0.17130000000E+03 0.  1.
       11    1    1    2    0    0  0.20563989224E-03 -0.16173765780E-02  0.93564299097E+00  0.93564455108E+00  0.51109989000E-03 0. -1.
     -623    1    1    2    0    0 -0.10532892864E-02 -0.18054977317E-02  0.68836463681E-04  0.17130000001E+03  0.17130000000E+03 0.  1.
      622    1    1    2    0    0  0.84764939414E-03  0.34228743097E-02  0.30642881399E+01  0.30643554362E+01  0.20000000000E-01 0. -1.
</event>
<event>
 5   0  0.3603037E+08  0.9118800E+02  0.7818608E-02  0.1180000E+00
       11   -1    0    0    0    0  0.00000000000E+00  0.00000000000E+00  0.39999999673E+01  0.40000000000E+01  0.51109989000E-03 0.  1.
     -623   -1    0    0    0    0  0.00000000000E+00  0.00000000000E+00  0.12525980253E-10  0.17130000000E+03  0.17130000000E+03 0. -1.
       11    1    1    2    0    0 -0.46346225999E-02 -0.61440565463E-03  0.33936406600E+00  0.33939665251E+00  0.51109989000E-03 0.  1.
     -623    1    1    2    0    0 -0.31121598169E-03  0.12299018196E-02  0.90587760195E-04  0.17130000000E+03  0.17130000000E+03 0. -1.
      622    1    1    2    0    0  0.49458385816E-02 -0.61549616501E-03  0.36605453136E+01  0.36606033428E+01  0.20000000000E-01 0.  1.
</event>
<event>
 5   0  0.3603037E+08  0.9118800E+02  0.7818608E-02  0.1180000E+00
       11   -1    0    0    0    0  0.00000000000E+00  0.00000000000E+00  0.39999999673E+01  0.40000000000E+01  0.51109989000E-03 0.  1.
     -623   -1    0    0    0    0  0.00000000000E+00  0.00000000000E+00  0.12525980253E-10  0.17130000000E+03  0.17130000000E+03 0.  1.
       11    1    1    2    0    0 -0.79908578131E-02 -0.68040257412E-02  0.92077714272E+00  0.92083709545E+00  0.51109989000E-03 0.  1.
     -623    1    1    2    0    0  0.68885339968E-04 -0.17445887633E-03  0.14297265869E-03  0.17130000000E+03  0.17130000000E+03 0.  1.
      622    1    1    2    0    0  0.79219724732E-02  0.69784846176E-02  0.30790798520E+01  0.30791629044E+01  0.20000000000E-01 0. -1.
</event>
<event>
 5   0  0.3603037E+08  0.9118800E+02  0.7818608E-02  0.1180000E+00
       11   -1    0    0    0    0  0.00000000000E+00  0.00000000000E+00  0.39999999673E+01  0.40000000000E+01  0.51109989000E-03 0. -1.
     -623   -1    0    0    0    0  0.00000000000E+00  0.00000000000E+00  0.12525980253E-10  0.17130000000E+03  0.17130000000E+03 0. -1.
       11    1    1    2    0    0  0.39306771890E-03  0.43957913762E-03  0.16026155604E-02  0.17825066065E-02  0.51109989000E-03 0. -1.
     -623    1    1    2    0    0  0.10826048330E-02 -0.14888913532E-03  0.23016754400E-03  0.17130000000E+03  0.17130000000E+03 0. -1.
      622    1    1    2    0    0 -0.14756725519E-02 -0.29069000231E-03  0.39981671843E+01  0.39982174898E+01  0.20000000000E-01 0. -1.
</event>
<event>
 5   0  0.3603037E+08  0.9118800E+02  0.7818608E-02  0.1180000E+00
       11   -1    0    0    0    0  0.00000000000E+00  0.00000000000E+00  0.39999999673E+01  0.40000000000E+01  0.51109989000E-03 0.  1.
     -623   -1    0    0    0    0  0.00000000000E+00  0.00000000000E+00  0.12525980253E-10  0.17130000000E+03  0.17130000000E+03 0.  1.
       11    1    1    2    0    0  0.23723799703E-02  0.11488720384E-02  0.11283048315E+00  0.11286242618E+00  0.51109989000E-03 0.  1.
     -623    1    1    2    0    0  0.13020357201E-03  0.41155061917E-03  0.84481850158E-04  0.17130000000E+03  0.17130000000E+03 0.  1.
      622    1    1    2    0    0 -0.25025835423E-02 -0.15604226575E-02  0.38870850024E+01  0.38871375733E+01  0.20000000000E-01 0.  1.
</event>
<event>
 5   0  0.3603037E+08  0.9118800E+02  0.7818608E-02  0.1180000E+00
       11   -1    0    0    0    0  0.00000000000E+00  0.00000000000E+00  0.39999999673E+01  0.40000000000E+01  0.51109989000E-03 0. -1.
     -623   -1    0    0    0    0  0.00000000000E+00  0.00000000000E+00  0.12525980253E-10  0.17130000000E+03  0.17130000000E+03 0.  1.
       11    1    1    2    0    0  0.98795387402E-03  0.39518985852E-02  0.10657137686E+01  0.10657216763E+01  0.51109989000E-03 0. -1.
     -623    1    1    2    0    0 -0.24178250873E-02 -0.16073777215E-02  0.77345413101E-04  0.17130000002E+03  0.17130000000E+03 0.  1.
      622    1    1    2    0    0  0.14298712133E-02 -0.23445208637E-02  0.29342088534E+01  0.29342782991E+01  0.20000000000E-01 0. -1.
</event>
<event>
 5   0  0.3603037E+08  0.9118800E+02  0.7818608E-02  0.1180000E+00
       11   -1    0    0    0    0  0.00000000000E+00  0.00000000000E+00  0.39999999673E+01  0.40000000000E+01  0.51109989000E-03 0.  1.
     -623   -1    0    0    0    0  0.00000000000E+00  0.00000000000E+00  0.12525980253E-10  0.17130000000E+03  0.17130000000E+03 0.  1.
       11    1    1    2    0    0  0.91310883602E-02  0.13705227606E-01  0.36262075924E+01  0.36262450240E+01  0.51109989000E-03 0.  1.
     -623    1    1    2    0    0 -0.56464568789E-02 -0.14896633042E-01  0.59180497224E-03  0.17130000074E+03  0.17130000000E+03 0.  1.
      622    1    1    2    0    0 -0.34846314813E-02  0.11914054351E-02  0.37320057003E+00  0.37375423419E+00  0.20000000000E-01 0. -1.
</event>
<event>
 5   0  0.3603037E+08  0.9118800E+02  0.7818608E-02  0.1180000E+00
       11   -1    0    0    0    0  0.00000000000E+00  0.00000000000E+00  0.39999999673E+01  0.40000000000E+01  0.51109989000E-03 0.  1.
     -623   -1    0    0    0    0  0.00000000000E+00  0.00000000000E+00  0.12525980253E-10  0.17130000000E+03  0.17130000000E+03 0.  1.
       11    1    1    2    0    0  0.93394013816E-03 -0.13772048548E-02  0.70590248782E+00  0.70590463412E+00  0.51109989000E-03 0.  1.
     -623    1    1    2    0    0 -0.33491722503E-03 -0.16727503544E-02  0.64303867789E-04  0.17130000001E+03  0.17130000000E+03 0.  1.
      622    1    1    2    0    0 -0.59902291313E-03  0.30499552092E-02  0.32940331757E+01  0.32940953574E+01  0.20000000000E-01 0.  1.
</event>
<event>
 5   0  0.3603037E+08  0.9118800E+02  0.7818608E-02  0.1180000E+00
       11   -1    0    0    0    0  0.00000000000E+00  0.00000000000E+00  0.39999999673E+01  0.40000000000E+01  0.51109989000E-03 0.  1.
     -623   -1    0    0    0    0  0.00000000000E+00  0.00000000000E+00  0.12525980253E-10  0.17130000000E+03  0.17130000000E+03 0.  1.
       11    1    1    2    0    0 -0.19489776843E-03 -0.12410567165E-02  0.19985707518E+00  0.19986167698E+00  0.51109989000E-03 0.  1.
     -623    1    1    2    0    0  0.20647299044E-03  0.90480046901E-04  0.57373551664E-04  0.17130000000E+03  0.17130000000E+03 0.  1.
      622    1    1    2    0    0 -0.11575222010E-04  0.11505766696E-02  0.38000855186E+01  0.38001383229E+01  0.20000000000E-01 0.  1.
</event>
<event>
 5   0  0.3603037E+08  0.9118800E+02  0.7818608E-02  0.1180000E+00
       11   -1    0    0    0    0  0.00000000000E+00  0.00000000000E+00  0.39999999673E+01  0.40000000000E+01  0.51109989000E-03 0.  1.
     -623   -1    0    0    0    0  0.00000000000E+00  0.00000000000E+00  0.12525980253E-10  0.17130000000E+03  0.17130000000E+03 0.  1.
       11    1    1    2    0    0  0.10178110600E-01 -0.77297484892E-02  0.11499894203E+01  0.11500605510E+01  0.51109989000E-03 0.  1.
     -623    1    1    2    0    0 -0.24205631952E-03 -0.71065342804E-02  0.19736359510E-03  0.17130000015E+03  0.17130000000E+03 0.  1.
      622    1    1    2    0    0 -0.99360542804E-02  0.14836282770E-01  0.28498131834E+01  0.28499393013E+01  0.20000000000E-01 0.  1.
</event>
<event>
 5   0  0.3603037E+08  0.9118800E+02  0.7818608E-02  0.1180000E+00
       11   -1    0    0    0    0  0.00000000000E+00  0.00000000000E+00  0.39999999673E+01  0.40000000000E+01  0.51109989000E-03 0.  1.
     -623   -1    0    0    0    0  0.00000000000E+00  0.00000000000E+00  0.12525980253E-10  0.17130000000E+03  0.17130000000E+03 0.  1.
       11    1    1    2    0    0 -0.18266150615E-02  0.16613357052E-02  0.89171579887E-01  0.89207221911E-01  0.51109989000E-03 0.  1.
     -623    1    1    2    0    0  0.68553162946E-03 -0.10551023505E-02  0.86968349327E-04  0.17130000000E+03  0.17130000000E+03 0.  1.
      622    1    1    2    0    0  0.11410834321E-02 -0.60623335478E-03  0.39107414191E+01  0.39107927734E+01  0.20000000000E-01 0.  1.
</event>
<event>
 5   0  0.3603037E+08  0.9118800E+02  0.7818608E-02  0.1180000E+00
       11   -1    0    0    0    0  0.00000000000E+00  0.00000000000E+00  0.39999999673E+01  0.40000000000E+01  0.51109989000E-03 0. -1.
     -623   -1    0    0    0    0  0.00000000000E+00  0.00000000000E+00  0.12525980253E-10  0.17130000000E+03  0.17130000000E+03 0. -1.
       11    1    1    2    0    0  0.95278771756E-03  0.93164318219E-02  0.15396584591E+01  0.15396870252E+01  0.51109989000E-03 0. -1.
     -623    1    1    2    0    0  0.34497198560E-02  0.97025150841E-03  0.13530729322E-03  0.17130000004E+03  0.17130000000E+03 0. -1.
      622    1    1    2    0    0 -0.44025075736E-02 -0.10286683330E-01  0.24602062009E+01  0.24603129372E+01  0.20000000000E-01 0. -1.
</event>
<event>
 5   0  0.3603037E+08  0.9118800E+02  0.7818608E-02  0.1180000E+00
       11   -1    0    0    0    0  0.00000000000E+00  0.00000000000E+00  0.39999999673E+01  0.40000000000E+01  0.51109989000E-03 0.  1.
     -623   -1    0    0    0    0  0.00000000000E+00  0.00000000000E+00  0.12525980253E-10  0.17130000000E+03  0.17130000000E+03 0.  1.
       11    1    1    2    0    0 -0.29483844261E-02 -0.21208161090E-02  0.19684649583E+00  0.19688066175E+00  0.51109989000E-03 0.  1.
     -623    1    1    2    0    0  0.84190823785E-03 -0.10718832833E-02  0.88651027474E-04  0.17130000001E+03  0.17130000000E+03 0.  1.
      622    1    1    2    0    0  0.21064761882E-02  0.31926993923E-02  0.38030648205E+01  0.38031193328E+01  0.20000000000E-01 0.  1.
</event>
<event>
 5   0  0.3603037E+08  0.9118800E+02  0.7818608E-02  0.1180000E+00
       11   -1    0    0    0    0  0.00000000000E+00  0.00000000000E+00  0.39999999673E+01  0.40000000000E+01  0.51109989000E-03 0.  1.
     -623   -1    0    0    0    0  0.00000000000E+00  0.00000000000E+00  0.12525980253E-10  0.17130000000E+03  0.17130000000E+03 0. -1.
       11    1    1    2    0    0 -0.10767728207E-04 -0.24788306810E-03  0.67633997425E-01  0.67636383641E-01  0.51109989000E-03 0.  1.
     -623    1    1    2    0    0 -0.40260574872E-03 -0.29664225370E-04  0.53245907908E-04  0.17130000000E+03  0.17130000000E+03 0. -1.
      622    1    1    2    0    0  0.41337347692E-03  0.27754729347E-03  0.39323127240E+01  0.39323636159E+01  0.20000000000E-01 0.  1.
</event>
<event>
 5   0  0.3603037E+08  0.9118800E+02  0.7818608E-02  0.1180000E+00
       11   -1    0    0    0    0  0.00000000000E+00  0.00000000000E+00  0.39999999673E+01  0.40000000000E+01  0.51109989000E-03 0. -1.
     -623   -1    0    0    0    0  0.00000000000E+00  0.00000000000E+00  0.12525980253E-10  0.17130000000E+03  0.17130000000E+03 0.  1.
       11    1    1    2    0    0  0.13235690448E-02 -0.10322261253E-01  0.43536894495E+00  0.43549360542E+00  0.51109989000E-03 0. -1.
     -623    1    1    2    0    0 -0.59528416028E-02  0.69709212641E-02  0.18556398148E-03  0.17130000025E+03  0.17130000000E+03 0.  1.
      622    1    1    2    0    0  0.46292725580E-02  0.33513399887E-02  0.35644454584E+01  0.35645061492E+01  0.20000000000E-01 0. -1.
</event>
<event>
 5   0  0.3603037E+08  0.9118800E+02  0.7818608E-02  0.1180000E+00
       11   -1    0    0    0    0  0.00000000000E+00  0.00000000000E+00  0.39999999673E+01  0.40000000000E+01  0.51109989000E-03 0. -1.
     -623   -1    0    0    0    0  0.00000000000E+00  0.00000000000E+00  0.12525980253E-10  0.17130000000E+03  0.17130000000E+03 0.  1.
       11    1    1    2    0    0  0.13026515959E-02 -0.31132889632E-02  0.25691545191E-01  0.25917295102E-01  0.51109989000E-03 0. -1.
     -623    1    1    2    0    0  0.12288085850E-02  0.32189565477E-02  0.27688621937E-03  0.17130000003E+03  0.17130000000E+03 0.  1.
      622    1    1    2    0    0 -0.25314601809E-02 -0.10566758445E-03  0.39740315359E+01  0.39740826700E+01  0.20000000000E-01 0. -1.
</event>
<event>
 5   0  0.3603037E+08  0.9118800E+02  0.7818608E-02  0.1180000E+00
       11   -1    0    0    0    0  0.00000000000E+00  0.00000000000E+00  0.39999999673E+01  0.40000000000E+01  0.51109989000E-03 0.  1.
     -623   -1    0    0    0    0  0.00000000000E+00  0.00000000000E+00  0.12525980253E-10  0.17130000000E+03  0.17130000000E+03 0. -1.
       11    1    1    2    0    0  0.17670629637E-02  0.81894582853E-03  0.24235596126E-01  0.24319097963E-01  0.51109989000E-03 0. -1.
     -623    1    1    2    0    0  0.52119528503E-03 -0.22678785263E-03  0.13447898705E-03  0.17130000000E+03  0.17130000000E+03 0. -1.
      622    1    1    2    0    0 -0.22882582487E-02 -0.59215797590E-03  0.39756298922E+01  0.39756809010E+01  0.20000000000E-01 0.  1.
</event>
<event>
 5   0  0.3603037E+08  0.9118800E+02  0.7818608E-02  0.1180000E+00
       11   -1    0    0    0    0  0.00000000000E+00  0.00000000000E+00  0.39999999673E+01  0.40000000000E+01  0.51109989000E-03 0. -1.
     -623   -1    0    0    0    0  0.00000000000E+00  0.00000000000E+00  0.12525980253E-10  0.17130000000E+03  0.17130000000E+03 0. -1.
       11    1    1    2    0    0 -0.30311757825E-02  0.72539749358E-02  0.82276625680E-01  0.82652964457E-01  0.51109989000E-03 0. -1.
     -623    1    1    2    0    0  0.67123197730E-03  0.57702244170E-03  0.43590255094E-03  0.17130000000E+03  0.17130000000E+03 0. -1.
      622    1    1    2    0    0  0.23599438052E-02 -0.78309973775E-02  0.39172874391E+01  0.39173470327E+01  0.20000000000E-01 0. -1.
</event>
<event>
 5   0  0.3603037E+08  0.9118800E+02  0.7818608E-02  0.1180000E+00
       11   -1    0    0    0    0  0.00000000000E+00  0.00000000000E+00  0.39999999673E+01  0.40000000000E+01  0.51109989000E-03 0.  1.
     -623   -1    0    0    0    0  0.00000000000E+00  0.00000000000E+00  0.12525980253E-10  0.17130000000E+03  0.17130000000E+03 0. -1.
       11    1    1    2    0    0 -0.20225227252E-02 -0.43456507131E-03  0.10865321080E+01  0.10865341975E+01  0.51109989000E-03 0.  1.
     -623    1    1    2    0    0 -0.60052583843E-04 -0.23039369082E-03  0.71524860441E-04  0.17130000000E+03  0.17130000000E+03 0. -1.
      622    1    1    2    0    0  0.20825753090E-02  0.66495876213E-03  0.29133963345E+01  0.29134658023E+01  0.20000000000E-01 0.  1.
</event>
<event>
 5   0  0.3603037E+08  0.9118800E+02  0.7818608E-02  0.1180000E+00
       11   -1    0    0    0    0  0.00000000000E+00  0.00000000000E+00  0.39999999673E+01  0.40000000000E+01  0.51109989000E-03 0.  1.
     -623   -1    0    0    0    0  0.00000000000E+00  0.00000000000E+00  0.12525980253E-10  0.17130000000E+03  0.17130000000E+03 0.  1.
       11    1    1    2    0    0  0.12024448400E-01 -0.39975529957E-02  0.99173383865E+00  0.99181492010E+00  0.51109989000E-03 0.  1.
     -623    1    1    2    0    0 -0.12358838364E-01 -0.15344665972E-01  0.21087260903E-03  0.17130000113E+03  0.17130000000E+03 0.  1.
      622    1    1    2    0    0  0.33438996474E-03  0.19342218968E-01  0.30080552561E+01  0.30081839467E+01  0.20000000000E-01 0.  1.
</event>
<event>
 5   0  0.3603037E+08  0.9118800E+02  0.7818608E-02  0.1180000E+00
       11   -1    0    0    0    0  0.00000000000E+00  0.00000000000E+00  0.39999999673E+01  0.40000000000E+01  0.51109989000E-03 0.  1.
     -623   -1    0    0    0    0  0.00000000000E+00  0.00000000000E+00  0.12525980253E-10  0.17130000000E+03  0.17130000000E+03 0. -1.
       11    1    1    2    0    0 -0.84567206973E-03 -0.82345843502E-02  0.24235500916E+00  0.24249687673E+00  0.51109989000E-03 0.  1.
     -623    1    1    2    0    0 -0.30547992533E-02  0.19760767384E-02  0.20233754605E-03  0.17130000004E+03  0.17130000000E+03 0. -1.
      622    1    1    2    0    0  0.39004713230E-02  0.62585076118E-02  0.37574426207E+01  0.37575030845E+01  0.20000000000E-01 0.  1.
</event>
<event>
 5   0  0.3603037E+08  0.9118800E+02  0.7818608E-02  0.1180000E+00
       11   -1    0    0    0    0  0.00000000000E+00  0.00000000000E+00  0.39999999673E+01  0.40000000000E+01  0.51109989000E-03 0.  1.
     -623   -1    0    0    0    0  0.00000000000E+00  0.00000000000E+00  0.12525980253E-10  0.17130000000E+03  0.17130000000E+03 0. -1.
       11    1    1    2    0    0  0.53149353752E-04  0.90729162871E-04  0.35266866264E-01  0.35270726293E-01  0.51109989000E-03 0.  1.
     -623    1    1    2    0    0  0.15118687479E-03 -0.16544861840E-03  0.54278640862E-04  0.17130000000E+03  0.17130000000E+03 0. -1.
      622    1    1    2    0    0 -0.20433622855E-03  0.74719455533E-04  0.39646788225E+01  0.39647292736E+01  0.20000000000E-01 0.  1.
</event>
<event>
 5   0  0.3603037E+08  0.9118800E+02  0.7818608E-02  0.1180000E+00
       11   -1    0    0    0    0  0.00000000000E+00  0.00000000000E+00  0.39999999673E+01  0.40000000000E+01  0.51109989000E-03 0.  1.
     -623   -1    0    0    0    0  0.00000000000E+00  0.00000000000E+00  0.12525980253E-10  0.17130000000E+03  0.17130000000E+03 0.  1.
       11    1    1    2    0    0 -0.63748125943E-02  0.62503187134E-02  0.11126023813E+00  0.11161902404E+00  0.51109989000E-03 0.  1.
     -623    1    1    2    0    0  0.22855506161E-02 -0.88277074054E-02  0.41343662001E-03  0.17130000024E+03  0.17130000000E+03 0.  1.
      622    1    1    2    0    0  0.40892619782E-02  0.25773886921E-02  0.38883262926E+01  0.38883807328E+01  0.20000000000E-01 0.  1.
</event>
<event>
 5   0  0.3603037E+08  0.9118800E+02  0.7818608E-02  0.1180000E+00
       11   -1    0    0    0    0  0.00000000000E+00  0.00000000000E+00  0.39999999673E+01  0.40000000000E+01  0.51109989000E-03 0.  1.
     -623   -1    0    0    0    0  0.00000000000E+00  0.00000000000E+00  0.12525980253E-10  0.17130000000E+03  0.17130000000E+03 0. -1.
       11    1    1    2    0    0  0.24643910851E-02  0.45328500502E-02  0.55819646965E+00  0.55822054772E+00  0.51109989000E-03 0.  1.
     -623    1    1    2    0    0 -0.63109308939E-03 -0.41399788067E-03  0.85109960104E-04  0.17130000000E+03  0.17130000000E+03 0. -1.
      622    1    1    2    0    0 -0.18332979957E-02 -0.41188521695E-02  0.34417183878E+01  0.34417794506E+01  0.20000000000E-01 0.  1.
</event>
<event>
 5   0  0.3603037E+08  0.9118800E+02  0.7818608E-02  0.1180000E+00
       11   -1    0    0    0    0  0.00000000000E+00  0.00000000000E+00  0.39999999673E+01  0.40000000000E+01  0.51109989000E-03 0. -1.
     -623   -1    0    0    0    0  0.00000000000E+00  0.00000000000E+00  0.12525980253E-10  0.17130000000E+03  0.17130000000E+03 0. -1.
       11    1    1    2    0    0 -0.23226337015E-02 -0.19959957328E-02  0.48378276272E-01  0.48477803809E-01  0.51109989000E-03 0. -1.
     -623    1    1    2    0    0  0.45623243458E-02 -0.15429679271E-02  0.15239588814E-03  0.17130000007E+03  0.17130000000E+03 0. -1.
      622    1    1    2    0    0 -0.22396906443E-02  0.35389636598E-02  0.39514692952E+01  0.39515221284E+01  0.20000000000E-01 0. -1.
</event>
<event>
 5   0  0.3603037E+08  0.9118800E+02  0.7818608E-02  0.1180000E+00
       11   -1    0    0    0    0  0.00000000000E+00  0.00000000000E+00  0.39999999673E+01  0.40000000000E+01  0.51109989000E-03 0.  1.
     -623   -1    0    0    0    0  0.00000000000E+00  0.00000000000E+00  0.12525980253E-10  0.17130000000E+03  0.17130000000E+03 0.  1.
       11    1    1    2    0    0 -0.14118854207E-02 -0.52585275536E-02  0.31638068252E-01  0.32107228403E-01  0.51109989000E-03 0.  1.
     -623    1    1    2    0    0 -0.20409032943E-02  0.49996678123E-02  0.52112907316E-03  0.17130000009E+03  0.17130000000E+03 0.  1.
      622    1    1    2    0    0  0.34527887150E-02  0.25885974126E-03  0.39678407700E+01  0.39678926857E+01  0.20000000000E-01 0.  1.
</event>
<event>
 5   0  0.3603037E+08  0.9118800E+02  0.7818608E-02  0.1180000E+00
       11   -1    0    0    0    0  0.00000000000E+00  0.00000000000E+00  0.39999999673E+01  0.40000000000E+01  0.51109989000E-03 0. -1.
     -623   -1    0    0    0    0  0.00000000000E+00  0.00000000000E+00  0.12525980253E-10  0.17130000000E+03  0.17130000000E+03 0.  1.
       11    1    1    2    0    0 -0.18773886997E-02  0.48201993277E-04  0.63170900603E+00  0.63171200435E+00  0.51109989000E-03 0. -1.
     -623    1    1    2    0    0 -0.58067492164E-04  0.28550982421E-03  0.62916411036E-04  0.17130000000E+03  0.17130000000E+03 0.  1.
      622    1    1    2    0    0  0.19354561918E-02 -0.33371181748E-03  0.33682280449E+01  0.33682879954E+01  0.20000000000E-01 0. -1.
</event>
<event>
 5   0  0.3603037E+08  0.9118800E+02  0.7818608E-02  0.1180000E+00
       11   -1    0    0    0    0  0.00000000000E+00  0.00000000000E+00  0.39999999673E+01  0.40000000000E+01  0.51109989000E-03 0.  1.
     -623   -1    0    0    0    0  0.00000000000E+00  0.00000000000E+00  0.12525980253E-10  0.17130000000E+03  0.17130000000E+03 0.  1.
       11    1    1    2    0    0 -0.62598071571E-03  0.45326862969E-03  0.58147098544E-02  0.58880706012E-02  0.51109989000E-03 0. -1.
     -623    1    1    2    0    0 -0.64883299871E-04  0.45212692845E-04  0.12349304971E-03  0.17130000000E+03  0.17130000000E+03 0.  1.
      622    1    1    2    0    0  0.69086401558E-03 -0.49848132254E-03  0.39940617645E+01  0.39941119293E+01  0.20000000000E-01 0.  1.
</event>
<event>
 5   0  0.3603037E+08  0.9118800E+02  0.7818608E-02  0.1180000E+00
       11   -1    0    0    0    0  0.00000000000E+00  0.00000000000E+00  0.39999999673E+01  0.40000000000E+01  0.51109989000E-03 0. -1.
     -623   -1    0    0    0    0  0.00000000000E+00  0.00000000000E+00  0.12525980253E-10  0.17130000000E+03  0.17130000000E+03 0. -1.
       11    1    1    2    0    0  0.55043839149E-03  0.11928495089E-01  0.15265103139E+01  0.15265571040E+01  0.51109989000E-03 0. -1.
     -623    1    1    2    0    0 -0.24166086469E-02  0.74929579302E-02  0.20475500150E-03  0.17130000018E+03  0.17130000000E+03 0. -1.
      622    1    1    2    0    0  0.18661702554E-02 -0.19421453019E-01  0.24732848984E+01  0.24734427150E+01  0.20000000000E-01 0. -1.
</event>
<event>
 5   0  0.3603037E+08  0.9118800E+02  0.7818608E-02  0.1180000E+00
       11   -1    0    0    0    0  0.00000000000E+00  0.00000000000E+00  0.39999999673E+01  0.40000000000E+01  0.51109989000E-03 0. -1.
     -623   -1    0    0    0    0  0.00000000000E+00  0.00000000000E+00  0.12525980253E-10  0.17130000000E+03  0.17130000000E+03 0. -1.
       11    1    1    2    0    0 -0.63332505274E-03  0.97296797651E-03  0.29996988906E-01  0.30023796085E-01  0.51109989000E-03 0. -1.
     -623    1    1    2    0    0 -0.57752617718E-03 -0.91222248439E-03  0.77341537718E-04  0.17130000000E+03  0.17130000000E+03 0. -1.
      622    1    1    2    0    0  0.12108512299E-02 -0.60745492116E-04  0.39699256369E+01  0.39699762005E+01  0.20000000000E-01 0. -1.
</event>
<event>
 5   0  0.3603037E+08  0.9118800E+02  0.7818608E-02  0.1180000E+00
       11   -1    0    0    0    0  0.00000000000E+00  0.00000000000E+00  0.39999999673E+01  0.40000000000E+01  0.51109989000E-03 0.  1.
     -623   -1    0    0    0    0  0.00000000000E+00  0.00000000000E+00  0.12525980253E-10  0.17130000000E+03  0.17130000000E+03 0.  1.
       11    1    1    2    0    0  0.15841214600E-03 -0.25331570658E-02  0.71489100478E-01  0.71535967787E-01  0.51109989000E-03 0.  1.
     -623    1    1    2    0    0  0.12996116419E-02 -0.12509638107E-02  0.99848145017E-04  0.17130000001E+03  0.17130000000E+03 0.  1.
      622    1    1    2    0    0 -0.14580237879E-02  0.37841208766E-02  0.39284110187E+01  0.39284640227E+01  0.20000000000E-01 0.  1.
</event>
<event>
 5   0  0.3603037E+08  0.9118800E+02  0.7818608E-02  0.1180000E+00
       11   -1    0    0    0    0  0.00000000000E+00  0.00000000000E+00  0.39999999673E+01  0.40000000000E+01  0.51109989000E-03 0. -1.
     -623   -1    0    0    0    0  0.00000000000E+00  0.00000000000E+00  0.12525980253E-10  0.17130000000E+03  0.17130000000E+03 0.  1.
       11    1    1    2    0    0 -0.23826479738E-02  0.55872627670E-02  0.19553293995E+00  0.19562792833E+00  0.51109989000E-03 0. -1.
     -623    1    1    2    0    0  0.45754219498E-02 -0.46004420639E-02  0.14841007976E-03  0.17130000012E+03  0.17130000000E+03 0.  1.
      622    1    1    2    0    0 -0.21927739760E-02 -0.98682070308E-03  0.38043186173E+01  0.38043719487E+01  0.20000000000E-01 0. -1.
</event>
<event>
 5   0  0.3603037E+08  0.9118800E+02  0.7818608E-02  0.1180000E+00
       11   -1    0    0    0    0  0.00000000000E+00  0.00000000000E+00  0.39999999673E+01  0.40000000000E+01  0.51109989000E-03 0. -1.
     -623   -1    0    0    0    0  0.00000000000E+00  0.00000000000E+00  0.12525980253E-10  0.17130000000E+03  0.17130000000E+03 0. -1.
       11    1    1    2    0    0  0.12508975884E-01  0.16466883887E-03  0.24198153874E+01  0.24198477786E+01  0.51109989000E-03 0. -1.
     -623    1    1    2    0    0  0.18280505979E-02 -0.90899444297E-02  0.24944264506E-03  0.17130000025E+03  0.17130000000E+03 0. -1.
      622    1    1    2    0    0 -0.14337026482E-01  0.89252755908E-02  0.15799351374E+01  0.15801519703E+01  0.20000000000E-01 0.  0.
</event>
<event>
 5   0  0.3603037E+08  0.9118800E+02  0.7818608E-02  0.1180000E+00
       11   -1    0    0    0    0  0.00000000000E+00  0.00000000000E+00  0.39999999673E+01  0.40000000000E+01  0.51109989000E-03 0. -1.
     -623   -1    0    0    0    0  0.00000000000E+00  0.00000000000E+00  0.12525980253E-10  0.17130000000E+03  0.17130000000E+03 0.  1.
       11    1    1    2    0    0 -0.42548993500E-02 -0.13154121613E-01  0.33465711140E+00  0.33494294815E+00  0.51109989000E-03 0. -1.
     -623    1    1    2    0    0  0.36440729348E-03  0.71125720764E-03  0.36356324771E-03  0.17130000000E+03  0.17130000000E+03 0.  1.
      622    1    1    2    0    0  0.38904920566E-02  0.12442864406E-01  0.36649792927E+01  0.36650570496E+01  0.20000000000E-01 0.  0.
</event>
<event>
 5   0  0.3603037E+08  0.9118800E+02  0.7818608E-02  0.1180000E+00
       11   -1    0    0    0    0  0.00000000000E+00  0.00000000000E+00  0.39999999673E+01  0.40000000000E+01  0.51109989000E-03 0.  1.
     -623   -1    0    0    0    0  0.00000000000E+00  0.00000000000E+00  0.12525980253E-10  0.17130000000E+03  0.17130000000E+03 0.  1.
       11    1    1    2    0    0  0.29596992519E-01 -0.20829133834E-02  0.11453237489E+01  0.11457081092E+01  0.51109989000E-03 0.  1.
     -623    1    1    2    0    0 -0.21092444831E-03  0.25179512614E-02  0.60572965298E-03  0.17130000002E+03  0.17130000000E+03 0.  1.
      622    1    1    2    0    0 -0.29386068071E-01 -0.43503787801E-03  0.28540704888E+01  0.28542918711E+01  0.20000000000E-01 0.  1.
</event>
<event>
 5   0  0.3603037E+08  0.9118800E+02  0.7818608E-02  0.1180000E+00
       11   -1    0    0    0    0  0.00000000000E+00  0.00000000000E+00  0.39999999673E+01  0.40000000000E+01  0.51109989000E-03 0. -1.
     -623   -1    0    0    0    0  0.00000000000E+00  0.00000000000E+00  0.12525980253E-10  0.17130000000E+03  0.17130000000E+03 0. -1.
       11    1    1    2    0    0 -0.36743288853E-02 -0.77498883747E-02  0.23920711504E+01  0.23920865811E+01  0.51109989000E-03 0. -1.
     -623    1    1    2    0    0  0.65036720475E-02  0.14885449558E-02  0.15459923895E-03  0.17130000013E+03  0.17130000000E+03 0. -1.
      622    1    1    2    0    0 -0.28293431622E-02  0.62613434189E-02  0.16077742177E+01  0.16079132889E+01  0.20000000000E-01 0.  1.
</event>
<event>
 5   0  0.3603037E+08  0.9118800E+02  0.7818608E-02  0.1180000E+00
       11   -1    0    0    0    0  0.00000000000E+00  0.00000000000E+00  0.39999999673E+01  0.40000000000E+01  0.51109989000E-03 0. -1.
     -623   -1    0    0    0    0  0.00000000000E+00  0.00000000000E+00  0.12525980253E-10  0.17130000000E+03  0.17130000000E+03 0. -1.
       11    1    1    2    0    0 -0.36599765959E-02  0.13529989375E-01  0.23877457358E+01  0.23877869285E+01  0.51109989000E-03 0. -1.
     -623    1    1    2    0    0 -0.13756576158E-01 -0.78392013968E-02  0.27007956965E-03  0.17130000073E+03  0.17130000000E+03 0. -1.
      622    1    1    2    0    0  0.17416552754E-01 -0.56907879781E-02  0.16119841520E+01  0.16122123395E+01  0.20000000000E-01 0.  1.
</event>
<event>
 5   0  0.3603037E+08  0.9118800E+02  0.7818608E-02  0.1180000E+00
       11   -1    0    0    0    0  0.00000000000E+00  0.00000000000E+00  0.39999999673E+01  0.40000000000E+01  0.51109989000E-03 0.  1.
     -623   -1    0    0    0    0  0.00000000000E+00  0.00000000000E+00  0.12525980253E-10  0.17130000000E+03  0.17130000000E+03 0.  1.
       11    1    1    2    0    0  0.63217159294E-02  0.12371503851E-02  0.12949189565E+01  0.12949350793E+01  0.51109989000E-03 0.  1.
     -623    1    1    2    0    0  0.63728539608E-03 -0.94255434641E-03  0.98998019002E-04  0.17130000000E+03  0.17130000000E+03 0.  1.
      622    1    1    2    0    0 -0.69590013255E-02 -0.29459603865E-03  0.27049820129E+01  0.27050649168E+01  0.20000000000E-01 0.  1.
</event>
<event>
 5   0  0.3603037E+08  0.9118800E+02  0.7818608E-02  0.1180000E+00
       11   -1    0    0    0    0  0.00000000000E+00  0.00000000000E+00  0.39999999673E+01  0.40000000000E+01  0.51109989000E-03 0.  1.
     -623   -1    0    0    0    0  0.00000000000E+00  0.00000000000E+00  0.12525980253E-10  0.17130000000E+03  0.17130000000E+03 0.  1.
       11    1    1    2    0    0 -0.18693973811E-02  0.83482668224E-03  0.70602153784E+00  0.70602469128E+00  0.51109989000E-03 0.  1.
     -623    1    1    2    0    0 -0.42044385044E-03 -0.71362426516E-03  0.64638432599E-04  0.17130000000E+03  0.17130000000E+03 0.  1.
      622    1    1    2    0    0  0.22898412316E-02 -0.12120241708E-03  0.32939137911E+01  0.32939753067E+01  0.20000000000E-01 0.  1.
</event>
<event>
 5   0  0.3603037E+08  0.9118800E+02  0.7818608E-02  0.1180000E+00
       11   -1    0    0    0    0  0.00000000000E+00  0.00000000000E+00  0.39999999673E+01  0.40000000000E+01  0.51109989000E-03 0.  1.
     -623   -1    0    0    0    0  0.00000000000E+00  0.00000000000E+00  0.12525980253E-10  0.17130000000E+03  0.17130000000E+03 0.  1.
       11    1    1    2    0    0 -0.91195432910E-03 -0.10161491657E-02  0.71345447139E-01  0.71360341005E-01  0.51109989000E-03 0.  1.
     -623    1    1    2    0    0  0.21902834122E-03  0.25597542635E-05  0.65961779457E-04  0.17130000000E+03  0.17130000000E+03 0.  1.
      622    1    1    2    0    0  0.69292598789E-03  0.10135894114E-02  0.39285885584E+01  0.39286396588E+01  0.20000000000E-01 0.  1.
</event>
<event>
 5   0  0.3603037E+08  0.9118800E+02  0.7818608E-02  0.1180000E+00
       11   -1    0    0    0    0  0.00000000000E+00  0.00000000000E+00  0.39999999673E+01  0.40000000000E+01  0.51109989000E-03 0.  1.
     -623   -1    0    0    0    0  0.00000000000E+00  0.00000000000E+00  0.12525980253E-10  0.17130000000E+03  0.17130000000E+03 0. -1.
       11    1    1    2    0    0  0.11028311203E-02  0.28862739209E-02  0.23329797117E+00  0.23331899063E+00  0.51109989000E-03 0.  1.
     -623    1    1    2    0    0 -0.38517856995E-03 -0.14935702845E-02  0.74417136617E-04  0.17130000001E+03  0.17130000000E+03 0. -1.
      622    1    1    2    0    0 -0.71765255038E-03 -0.13927036363E-02  0.37666275791E+01  0.37666810024E+01  0.20000000000E-01 0.  0.
</event>
<event>
 5   0  0.3603037E+08  0.9118800E+02  0.7818608E-02  0.1180000E+00
       11   -1    0    0    0    0  0.00000000000E+00  0.00000000000E+00  0.39999999673E+01  0.40000000000E+01  0.51109989000E-03 0.  1.
     -623   -1    0    0    0    0  0.00000000000E+00  0.00000000000E+00  0.12525980253E-10  0.17130000000E+03  0.17130000000E+03 0.  1.
       11    1    1    2    0    0 -0.73113569429E-02 -0.51725539531E-02  0.58903283165E+00  0.58910113668E+00  0.51109989000E-03 0.  1.
     -623    1    1    2    0    0 -0.21130567342E-02 -0.13163372462E-02  0.14611919841E-03  0.17130000002E+03  0.17130000000E+03 0.  1.
      622    1    1    2    0    0  0.94244136771E-02  0.64888911993E-02  0.34108210165E+01  0.34108988452E+01  0.20000000000E-01 0.  0.
</event>
<event>
 5   0  0.3603037E+08  0.9118800E+02  0.7818608E-02  0.1180000E+00
       11   -1    0    0    0    0  0.00000000000E+00  0.00000000000E+00  0.39999999673E+01  0.40000000000E+01  0.51109989000E-03 0. -1.
     -623   -1    0    0    0    0  0.00000000000E+00  0.00000000000E+00  0.12525980253E-10  0.17130000000E+03  0.17130000000E+03 0. -1.
       11    1    1    2    0    0 -0.15942884166E-02  0.26586190583E-03  0.33243819039E+00  0.33244251246E+00  0.51109989000E-03 0. -1.
     -623    1    1    2    0    0  0.54512803519E-04 -0.11445720074E-03  0.59148451701E-04  0.17130000000E+03  0.17130000000E+03 0. -1.
      622    1    1    2    0    0  0.15397756131E-02 -0.15140470509E-03  0.36675026285E+01  0.36675574875E+01  0.20000000000E-01 0. -1.
</event>
<event>
 5   0  0.3603037E+08  0.9118800E+02  0.7818608E-02  0.1180000E+00
       11   -1    0    0    0    0  0.00000000000E+00  0.00000000000E+00  0.39999999673E+01  0.40000000000E+01  0.51109989000E-03 0. -1.
     -623   -1    0    0    0    0  0.00000000000E+00  0.00000000000E+00  0.12525980253E-10  0.17130000000E+03  0.17130000000E+03 0. -1.
       11    1    1    2    0    0 -0.26808363623E-02 -0.11422374895E-03  0.22111535329E+00  0.22113222427E+00  0.51109989000E-03 0. -1.
     -623    1    1    2    0    0  0.17749945598E-04 -0.58466501623E-04  0.70706986151E-04  0.17130000000E+03  0.17130000000E+03 0. -1.
      622    1    1    2    0    0  0.26630864167E-02  0.17269025058E-03  0.37788139071E+01  0.37788677757E+01  0.20000000000E-01 0. -1.
</event>
<event>
 5   0  0.3603037E+08  0.9118800E+02  0.7818608E-02  0.1180000E+00
       11   -1    0    0    0    0  0.00000000000E+00  0.00000000000E+00  0.39999999673E+01  0.40000000000E+01  0.51109989000E-03 0.  1.
     -623   -1    0    0    0    0  0.00000000000E+00  0.00000000000E+00  0.12525980253E-10  0.17130000000E+03  0.17130000000E+03 0. -1.
       11    1    1    2    0    0 -0.53833147864E-01 -0.14357302490E-01  0.19201961424E+01  0.19210043276E+01  0.51109989000E-03 0.  1.
     -623    1    1    2    0    0  0.46103426934E-01  0.17098439314E-01  0.92759284579E-03  0.17130000706E+03  0.17130000000E+03 0. -1.
      622    1    1    2    0    0  0.77297209302E-02 -0.27411368234E-02  0.20788762321E+01  0.20789886125E+01  0.20000000000E-01 0.  0.
</event>
<event>
 5   0  0.3603037E+08  0.9118800E+02  0.7818608E-02  0.1180000E+00
       11   -1    0    0    0    0  0.00000000000E+00  0.00000000000E+00  0.39999999673E+01  0.40000000000E+01  0.51109989000E-03 0.  1.
     -623   -1    0    0    0    0  0.00000000000E+00  0.00000000000E+00  0.12525980253E-10  0.17130000000E+03  0.17130000000E+03 0. -1.
       11    1    1    2    0    0  0.40140631954E-02  0.18761688636E-01  0.14653053421E+01  0.14654310357E+01  0.51109989000E-03 0.  1.
     -623    1    1    2    0    0  0.56195032039E-03 -0.21394660994E-03  0.27657183197E-03  0.17130000000E+03  0.17130000000E+03 0. -1.
      622    1    1    2    0    0 -0.45760135158E-02 -0.18547742026E-01  0.25344180535E+01  0.25345689630E+01  0.20000000000E-01 0.  1.
</event>
<event>
 5   0  0.3603037E+08  0.9118800E+02  0.7818608E-02  0.1180000E+00
       11   -1    0    0    0    0  0.00000000000E+00  0.00000000000E+00  0.39999999673E+01  0.40000000000E+01  0.51109989000E-03 0.  1.
     -623   -1    0    0    0    0  0.00000000000E+00  0.00000000000E+00  0.12525980253E-10  0.17130000000E+03  0.17130000000E+03 0.  1.
       11    1    1    2    0    0  0.69711494159E-04 -0.26495646230E-02  0.18260333681E-01  0.18458766475E-01  0.51109989000E-03 0.  1.
     -623    1    1    2    0    0 -0.18479823714E-02  0.91245878855E-03  0.24942091931E-03  0.17130000001E+03  0.17130000000E+03 0.  1.
      622    1    1    2    0    0  0.17782708772E-02  0.17371058345E-02  0.39814902128E+01  0.39815412209E+01  0.20000000000E-01 0.  1.
</event>
<event>
 5   0  0.3603037E+08  0.9118800E+02  0.7818608E-02  0.1180000E+00
       11   -1    0    0    0    0  0.00000000000E+00  0.00000000000E+00  0.39999999673E+01  0.40000000000E+01  0.51109989000E-03 0. -1.
     -623   -1    0    0    0    0  0.00000000000E+00  0.00000000000E+00  0.12525980253E-10  0.17130000000E+03  0.17130000000E+03 0.  1.
       11    1    1    2    0    0  0.97341373834E-02  0.56735759277E-02  0.98246351983E+00  0.98252825502E+00  0.51109989000E-03 0. -1.
     -623    1    1    2    0    0  0.87598137175E-03 -0.35701254307E-03  0.15432471213E-03  0.17130000000E+03  0.17130000000E+03 0.  1.
      622    1    1    2    0    0 -0.10610118755E-01 -0.53165633846E-02  0.30173821228E+01  0.30174717423E+01  0.20000000000E-01 0.  0.
</event>
<event>
 5   0  0.3603037E+08  0.9118800E+02  0.7818608E-02  0.1180000E+00
       11   -1    0    0    0    0  0.00000000000E+00  0.00000000000E+00  0.39999999673E+01  0.40000000000E+01  0.51109989000E-03 0. -1.
     -623   -1    0    0    0    0  0.00000000000E+00  0.00000000000E+00  0.12525980253E-10  0.17130000000E+03  0.17130000000E+03 0.  1.
       11    1    1    2    0    0  0.37373628997E-03 -0.12064045219E-02  0.96128071643E-02  0.97088810794E-02  0.51109989000E-03 0. -1.
     -623    1    1    2    0    0  0.61380566359E-03  0.66170494183E-03  0.14632506739E-03  0.17130000000E+03  0.17130000000E+03 0.  1.
      622    1    1    2    0    0 -0.98754195355E-03  0.54469958011E-03  0.39902408351E+01  0.39902911165E+01  0.20000000000E-01 0. -1.
</event>
<event>
 5   0  0.3603037E+08  0.9118800E+02  0.7818608E-02  0.1180000E+00
       11   -1    0    0    0    0  0.00000000000E+00  0.00000000000E+00  0.39999999673E+01  0.40000000000E+01  0.51109989000E-03 0.  1.
     -623   -1    0    0    0    0  0.00000000000E+00  0.00000000000E+00  0.12525980253E-10  0.17130000000E+03  0.17130000000E+03 0. -1.
       11    1    1    2    0    0  0.44950740175E-02  0.20131155817E-01  0.13556442680E+01  0.13558012804E+01  0.51109989000E-03 0.  1.
     -623    1    1    2    0    0 -0.26840492936E-02  0.66848479018E-03  0.31507095044E-03  0.17130000002E+03  0.17130000000E+03 0. -1.
      622    1    1    2    0    0 -0.18110247238E-02 -0.20799640608E-01  0.26440406284E+01  0.26441986970E+01  0.20000000000E-01 0.  1.
</event>
<event>
 5   0  0.3603037E+08  0.9118800E+02  0.7818608E-02  0.1180000E+00
       11   -1    0    0    0    0  0.00000000000E+00  0.00000000000E+00  0.39999999673E+01  0.40000000000E+01  0.51109989000E-03 0. -1.
     -623   -1    0    0    0    0  0.00000000000E+00  0.00000000000E+00  0.12525980253E-10  0.17130000000E+03  0.17130000000E+03 0.  1.
       11    1    1    2    0    0  0.53687219149E-02 -0.17316447084E-02  0.80489554534E+00  0.80491547500E+00  0.51109989000E-03 0. -1.
     -623    1    1    2    0    0  0.28479123003E-02  0.18904235397E-02  0.93097236147E-04  0.17130000003E+03  0.17130000000E+03 0.  1.
      622    1    1    2    0    0 -0.82166342151E-02 -0.15877883132E-03  0.31950113248E+01  0.31950844909E+01  0.20000000000E-01 0.  1.
</event>
<event>
 5   0  0.3603037E+08  0.9118800E+02  0.7818608E-02  0.1180000E+00
       11   -1    0    0    0    0  0.00000000000E+00  0.00000000000E+00  0.39999999673E+01  0.40000000000E+01  0.51109989000E-03 0.  1.
     -623   -1    0    0    0    0  0.00000000000E+00  0.00000000000E+00  0.12525980253E-10  0.17130000000E+03  0.17130000000E+03 0.  1.
       11    1    1    2    0    0  0.91311415179E-03 -0.17641052237E-02  0.89920699092E-01  0.89944089256E-01  0.51109989000E-03 0.  1.
     -623    1    1    2    0    0 -0.55083593933E-02  0.26669946443E-02  0.77421902205E-04  0.17130000011E+03  0.17130000000E+03 0.  1.
      622    1    1    2    0    0  0.45952452415E-02 -0.90288942056E-03  0.39100018464E+01  0.39100558014E+01  0.20000000000E-01 0.  0.
</event>
<event>
 5   0  0.3603037E+08  0.9118800E+02  0.7818608E-02  0.1180000E+00
       11   -1    0    0    0    0  0.00000000000E+00  0.00000000000E+00  0.39999999673E+01  0.40000000000E+01  0.51109989000E-03 0. -1.
     -623   -1    0    0    0    0  0.00000000000E+00  0.00000000000E+00  0.12525980253E-10  0.17130000000E+03  0.17130000000E+03 0. -1.
       11    1    1    2    0    0 -0.70038533361E-02 -0.11979148244E-01  0.42033692559E+00  0.42056622093E+00  0.51109989000E-03 0. -1.
     -623    1    1    2    0    0 -0.23018739462E-02  0.11316678247E-02  0.31369100987E-03  0.17130000002E+03  0.17130000000E+03 0. -1.
      622    1    1    2    0    0  0.93057272822E-02  0.10847480420E-01  0.35793493508E+01  0.35794337596E+01  0.20000000000E-01 0. -1.
</event>
<event>
 5   0  0.3603037E+08  0.9118800E+02  0.7818608E-02  0.1180000E+00
       11   -1    0    0    0    0  0.00000000000E+00  0.00000000000E+00  0.39999999673E+01  0.40000000000E+01  0.51109989000E-03 0.  1.
     -623   -1    0    0    0    0  0.00000000000E+00  0.00000000000E+00  0.12525980253E-10  0.17130000000E+03  0.17130000000E+03 0. -1.
       11    1    1    2    0    0 -0.45844042755E-04  0.12328989968E-03  0.91543851249E-03  0.10566695768E-02  0.51109989000E-03 0.  1.
     -623    1    1    2    0    0 -0.54281589820E-03 -0.13848929787E-02  0.19146085181E-03  0.17130000001E+03  0.17130000000E+03 0. -1.
      622    1    1    2    0    0  0.58865994095E-03  0.12616030790E-02  0.39988930680E+01  0.39989433239E+01  0.20000000000E-01 0.  1.
</event>
<event>
 5   0  0.3603037E+08  0.9118800E+02  0.7818608E-02  0.1180000E+00
       11   -1    0    0    0    0  0.00000000000E+00  0.00000000000E+00  0.39999999673E+01  0.40000000000E+01  0.51109989000E-03 0.  1.
     -623   -1    0    0    0    0  0.00000000000E+00  0.00000000000E+00  0.12525980253E-10  0.17130000000E+03  0.17130000000E+03 0. -1.
       11    1    1    2    0    0 -0.27156606293E-02  0.36549716848E-03  0.25772858499E-02  0.37963171958E-02  0.51109989000E-03 0.  1.
     -623    1    1    2    0    0  0.35856771127E-03 -0.16843863170E-02  0.12699726800E-02  0.17130000001E+03  0.17130000000E+03 0. -1.
      622    1    1    2    0    0  0.23570929180E-02  0.13188891485E-02  0.39961527088E+01  0.39962036694E+01  0.20000000000E-01 0.  1.
</event>
<event>
 5   0  0.3603037E+08  0.9118800E+02  0.7818608E-02  0.1180000E+00
       11   -1    0    0    0    0  0.00000000000E+00  0.00000000000E+00  0.39999999673E+01  0.40000000000E+01  0.51109989000E-03 0. -1.
     -623   -1    0    0    0    0  0.00000000000E+00  0.00000000000E+00  0.12525980253E-10  0.17130000000E+03  0.17130000000E+03 0. -1.
       11    1    1    2    0    0  0.14661084736E-02  0.45737773971E-03  0.15289206957E+00  0.15290063711E+00  0.51109989000E-03 0. -1.
     -623    1    1    2    0    0 -0.25840482253E-03  0.56654048888E-03  0.60849437507E-04  0.17130000000E+03  0.17130000000E+03 0. -1.
      622    1    1    2    0    0 -0.12077036511E-02 -0.10239182286E-02  0.38470470483E+01  0.38470993617E+01  0.20000000000E-01 0. -1.
</event>
<event>
 5   0  0.3603037E+08  0.9118800E+02  0.7818608E-02  0.1180000E+00
       11   -1    0    0    0    0  0.00000000000E+00  0.00000000000E+00  0.39999999673E+01  0.40000000000E+01  0.51109989000E-03 0. -1.
     -623   -1    0    0    0    0  0.00000000000E+00  0.00000000000E+00  0.12525980253E-10  0.17130000000E+03  0.17130000000E+03 0.  1.
       11    1    1    2    0    0  0.57653332024E-02 -0.19153133400E-02  0.30094571821E+00  0.30100746506E+00  0.51109989000E-03 0. -1.
     -623    1    1    2    0    0  0.54448728565E-03 -0.16616459152E-02  0.12290365155E-03  0.17130000001E+03  0.17130000000E+03 0.  1.
      622    1    1    2    0    0 -0.63098204880E-02  0.35769592553E-02  0.36989313455E+01  0.36989925260E+01  0.20000000000E-01 0. -1.
</event>
<event>
 5   0  0.3603037E+08  0.9118800E+02  0.7818608E-02  0.1180000E+00
       11   -1    0    0    0    0  0.00000000000E+00  0.00000000000E+00  0.39999999673E+01  0.40000000000E+01  0.51109989000E-03 0.  1.
     -623   -1    0    0    0    0  0.00000000000E+00  0.00000000000E+00  0.12525980253E-10  0.17130000000E+03  0.17130000000E+03 0. -1.
       11    1    1    2    0    0 -0.49273492307E-03  0.11853686815E-02  0.32067660879E-01  0.32097413969E-01  0.51109989000E-03 0. -1.
     -623    1    1    2    0    0 -0.33692156262E-03  0.14584676361E-03  0.80435696290E-04  0.17130000000E+03  0.17130000000E+03 0. -1.
      622    1    1    2    0    0  0.82965648569E-03 -0.13312154451E-02  0.39678518708E+01  0.39679025856E+01  0.20000000000E-01 0.  1.
</event>
<event>
 5   0  0.3603037E+08  0.9118800E+02  0.7818608E-02  0.1180000E+00
       11   -1    0    0    0    0  0.00000000000E+00  0.00000000000E+00  0.39999999673E+01  0.40000000000E+01  0.51109989000E-03 0.  1.
     -623   -1    0    0    0    0  0.00000000000E+00  0.00000000000E+00  0.12525980253E-10  0.17130000000E+03  0.17130000000E+03 0.  1.
       11    1    1    2    0    0 -0.57661413073E-02  0.53300100819E-02  0.13238005622E+01  0.13238239487E+01  0.51109989000E-03 0.  1.
     -623    1    1    2    0    0  0.30415412966E-02  0.53394467836E-03  0.10592788710E-03  0.17130000003E+03  0.17130000000E+03 0.  1.
      622    1    1    2    0    0  0.27246000107E-02 -0.58639547603E-02  0.26760934773E+01  0.26761760235E+01  0.20000000000E-01 0. -1.
</event>
<event>
 5   0  0.3603037E+08  0.9118800E+02  0.7818608E-02  0.1180000E+00
       11   -1    0    0    0    0  0.00000000000E+00  0.00000000000E+00  0.39999999673E+01  0.40000000000E+01  0.51109989000E-03 0. -1.
     -623   -1    0    0    0    0  0.00000000000E+00  0.00000000000E+00  0.12525980253E-10  0.17130000000E+03  0.17130000000E+03 0. -1.
       11    1    1    2    0    0 -0.16564928731E-01 -0.71370170514E-02  0.32404580135E+00  0.32454780305E+00  0.51109989000E-03 0. -1.
     -623    1    1    2    0    0  0.77586892076E-02  0.98133195442E-02  0.56836656494E-03  0.17130000046E+03  0.17130000000E+03 0. -1.
      622    1    1    2    0    0  0.88062395230E-02 -0.26763024928E-02  0.36753857994E+01  0.36754517392E+01  0.20000000000E-01 0. -1.
</event>
<event>
 5   0  0.3603037E+08  0.9118800E+02  0.7818608E-02  0.1180000E+00
       11   -1    0    0    0    0  0.00000000000E+00  0.00000000000E+00  0.39999999673E+01  0.40000000000E+01  0.51109989000E-03 0. -1.
     -623   -1    0    0    0    0  0.00000000000E+00  0.00000000000E+00  0.12525980253E-10  0.17130000000E+03  0.17130000000E+03 0.  1.
       11    1    1    2    0    0  0.20402263275E-01 -0.10321715395E-01  0.16759080403E+01  0.16760640832E+01  0.51109989000E-03 0. -1.
     -623    1    1    2    0    0 -0.24255021235E-04 -0.16983016002E-03  0.35510727251E-03  0.17130000000E+03  0.17130000000E+03 0.  1.
      622    1    1    2    0    0 -0.20378008254E-01  0.10491545555E-01  0.23237368198E+01  0.23239359164E+01  0.20000000000E-01 0. -1.
</event>
<event>
 5   0  0.3603037E+08  0.9118800E+02  0.7818608E-02  0.1180000E+00
       11   -1    0    0    0    0  0.00000000000E+00  0.00000000000E+00  0.39999999673E+01  0.40000000000E+01  0.51109989000E-03 0. -1.
     -623   -1    0    0    0    0  0.00000000000E+00  0.00000000000E+00  0.12525980253E-10  0.17130000000E+03  0.17130000000E+03 0. -1.
       11    1    1    2    0    0 -0.92654195371E-02 -0.36957041609E-01  0.34782580225E+00  0.34990673165E+00  0.51109989000E-03 0. -1.
     -623    1    1    2    0    0 -0.70009461078E-03  0.12255766440E-02  0.23242146319E-02  0.17130000002E+03  0.17130000000E+03 0. -1.
      622    1    1    2    0    0  0.99655141479E-02  0.35731464965E-01  0.36498499505E+01  0.36500932468E+01  0.20000000000E-01 0. -1.
</event>
<event>
 5   0  0.3603037E+08  0.9118800E+02  0.7818608E-02  0.1180000E+00
       11   -1    0    0    0    0  0.00000000000E+00  0.00000000000E+00  0.39999999673E+01  0.40000000000E+01  0.51109989000E-03 0.  1.
     -623   -1    0    0    0    0  0.00000000000E+00  0.00000000000E+00  0.12525980253E-10  0.17130000000E+03  0.17130000000E+03 0. -1.
       11    1    1    2    0    0 -0.14691545448E-01  0.37744871299E-02  0.38083601288E+00  0.38113831897E+00  0.51109989000E-03 0.  1.
     -623    1    1    2    0    0  0.21778682796E-01 -0.10781708332E-01  0.37298803880E-03  0.17130000172E+03  0.17130000000E+03 0. -1.
      622    1    1    2    0    0 -0.70871373483E-02  0.70072212021E-02  0.36187909664E+01  0.36188599569E+01  0.20000000000E-01 0.  1.
</event>
<event>
 5   0  0.3603037E+08  0.9118800E+02  0.7818608E-02  0.1180000E+00
       11   -1    0    0    0    0  0.00000000000E+00  0.00000000000E+00  0.39999999673E+01  0.40000000000E+01  0.51109989000E-03 0. -1.
     -623   -1    0    0    0    0  0.00000000000E+00  0.00000000000E+00  0.12525980253E-10  0.17130000000E+03  0.17130000000E+03 0. -1.
       11    1    1    2    0    0 -0.23662114992E-02 -0.12355643368E-02  0.92036790688E+00  0.92037191983E+00  0.51109989000E-03 0. -1.
     -623    1    1    2    0    0 -0.14862942783E-02  0.42668838044E-02  0.72885151879E-04  0.17130000006E+03  0.17130000000E+03 0. -1.
      622    1    1    2    0    0  0.38525057775E-02 -0.30313194676E-02  0.30795591753E+01  0.30796280206E+01  0.20000000000E-01 0. -1.
</event>
<event>
 5   0  0.3603037E+08  0.9118800E+02  0.7818608E-02  0.1180000E+00
       11   -1    0    0    0    0  0.00000000000E+00  0.00000000000E+00  0.39999999673E+01  0.40000000000E+01  0.51109989000E-03 0. -1.
     -623   -1    0    0    0    0  0.00000000000E+00  0.00000000000E+00  0.12525980253E-10  0.17130000000E+03  0.17130000000E+03 0. -1.
       11    1    1    2    0    0  0.18808694187E-03  0.16856478901E-03  0.25140043550E-01  0.25146506729E-01  0.51109989000E-03 0. -1.
     -623    1    1    2    0    0 -0.36426470277E-03 -0.20059829709E-03  0.56751724830E-04  0.17130000000E+03  0.17130000000E+03 0. -1.
      622    1    1    2    0    0  0.17617776091E-03  0.32033508082E-04  0.39748031721E+01  0.39748534928E+01  0.20000000000E-01 0. -1.
</event>
<event>
 5   0  0.3603037E+08  0.9118800E+02  0.7818608E-02  0.1180000E+00
       11   -1    0    0    0    0  0.00000000000E+00  0.00000000000E+00  0.39999999673E+01  0.40000000000E+01  0.51109989000E-03 0.  1.
     -623   -1    0    0    0    0  0.00000000000E+00  0.00000000000E+00  0.12525980253E-10  0.17130000000E+03  0.17130000000E+03 0.  1.
       11    1    1    2    0    0 -0.33375988345E-01  0.77169866985E-02  0.70986208744E+00  0.71068836552E+00  0.51109989000E-03 0.  1.
     -623    1    1    2    0    0  0.12159074653E-01 -0.17601888251E-01  0.97167042462E-03  0.17130000134E+03  0.17130000000E+03 0.  1.
      622    1    1    2    0    0  0.21216913691E-01  0.98849015527E-02  0.32891662095E+01  0.32893102959E+01  0.20000000000E-01 0.  1.
</event>
<event>
 5   0  0.3603037E+08  0.9118800E+02  0.7818608E-02  0.1180000E+00
       11   -1    0    0    0    0  0.00000000000E+00  0.00000000000E+00  0.39999999673E+01  0.40000000000E+01  0.51109989000E-03 0. -1.
     -623   -1    0    0    0    0  0.00000000000E+00  0.00000000000E+00  0.12525980253E-10  0.17130000000E+03  0.17130000000E+03 0.  1.
       11    1    1    2    0    0  0.35005294222E-02  0.21201736671E-02  0.41211303231E+00  0.41213366941E+00  0.51109989000E-03 0. -1.
     -623    1    1    2    0    0 -0.10436470928E-02 -0.33610618032E-02  0.77440310947E-04  0.17130000004E+03  0.17130000000E+03 0.  1.
      622    1    1    2    0    0 -0.24568823294E-02  0.12408881361E-02  0.35878094947E+01  0.35878662944E+01  0.20000000000E-01 0. -1.
</event>
<event>
 5   0  0.3603037E+08  0.9118800E+02  0.7818608E-02  0.1180000E+00
       11   -1    0    0    0    0  0.00000000000E+00  0.00000000000E+00  0.39999999673E+01  0.40000000000E+01  0.51109989000E-03 0.  1.
     -623   -1    0    0    0    0  0.00000000000E+00  0.00000000000E+00  0.12525980253E-10  0.17130000000E+03  0.17130000000E+03 0.  1.
       11    1    1    2    0    0  0.45823752456E-03  0.37965472068E-03  0.17805221120E-01  0.17822492541E-01  0.51109989000E-03 0.  1.
     -623    1    1    2    0    0  0.41859523177E-03 -0.65897554102E-03  0.67570999786E-04  0.17130000000E+03  0.17130000000E+03 0.  1.
      622    1    1    2    0    0 -0.87683275634E-03  0.27932082034E-03  0.39821271752E+01  0.39821775057E+01  0.20000000000E-01 0.  1.
</event>
<event>
 5   0  0.3603037E+08  0.9118800E+02  0.7818608E-02  0.1180000E+00
       11   -1    0    0    0    0  0.00000000000E+00  0.00000000000E+00  0.39999999673E+01  0.40000000000E+01  0.51109989000E-03 0. -1.
     -623   -1    0    0    0    0  0.00000000000E+00  0.00000000000E+00  0.12525980253E-10  0.17130000000E+03  0.17130000000E+03 0. -1.
       11    1    1    2    0    0  0.25708756042E-02  0.24757825179E-01  0.26115361421E+01  0.26116548091E+01  0.51109989000E-03 0. -1.
     -623    1    1    2    0    0  0.94335401479E-02 -0.22115766726E-01  0.31880532035E-03  0.17130000169E+03  0.17130000000E+03 0. -1.
      622    1    1    2    0    0 -0.12004415752E-01 -0.26420584533E-02  0.13881450199E+01  0.13883435032E+01  0.20000000000E-01 0.  1.
</event>
<event>
 5   0  0.3603037E+08  0.9118800E+02  0.7818608E-02  0.1180000E+00
       11   -1    0    0    0    0  0.00000000000E+00  0.00000000000E+00  0.39999999673E+01  0.40000000000E+01  0.51109989000E-03 0. -1.
     -623   -1    0    0    0    0  0.00000000000E+00  0.00000000000E+00  0.12525980253E-10  0.17130000000E+03  0.17130000000E+03 0. -1.
       11    1    1    2    0    0 -0.72302032397E-02 -0.19522635743E-01  0.47658215753E+00  0.47703692020E+00  0.51109989000E-03 0. -1.
     -623    1    1    2    0    0  0.13854812329E-02  0.11965299565E-02  0.56402643516E-03  0.17130000001E+03  0.17130000000E+03 0. -1.
      622    1    1    2    0    0  0.58447220067E-02  0.18326105786E-01  0.35228537834E+01  0.35229630691E+01  0.20000000000E-01 0. -1.
</event>
<event>
 5   0  0.3603037E+08  0.9118800E+02  0.7818608E-02  0.1180000E+00
       11   -1    0    0    0    0  0.00000000000E+00  0.00000000000E+00  0.39999999673E+01  0.40000000000E+01  0.51109989000E-03 0.  1.
     -623   -1    0    0    0    0  0.00000000000E+00  0.00000000000E+00  0.12525980253E-10  0.17130000000E+03  0.17130000000E+03 0.  1.
       11    1    1    2    0    0  0.11065605981E-02 -0.12062681821E-02  0.92973290446E-02  0.94541581866E-02  0.51109989000E-03 0.  1.
     -623    1    1    2    0    0 -0.78000262324E-03 -0.10783003140E-03  0.20714694134E-03  0.17130000000E+03  0.17130000000E+03 0.  1.
      622    1    1    2    0    0 -0.32655797483E-03  0.13140982135E-02  0.39904954914E+01  0.39905458399E+01  0.20000000000E-01 0.  1.
</event>
<event>
 5   0  0.3603037E+08  0.9118800E+02  0.7818608E-02  0.1180000E+00
       11   -1    0    0    0    0  0.00000000000E+00  0.00000000000E+00  0.39999999673E+01  0.40000000000E+01  0.51109989000E-03 0. -1.
     -623   -1    0    0    0    0  0.00000000000E+00  0.00000000000E+00  0.12525980253E-10  0.17130000000E+03  0.17130000000E+03 0. -1.
       11    1    1    2    0    0 -0.82086245275E-02  0.22893991158E-03  0.69377651168E+00  0.69382529740E+00  0.51109989000E-03 0. -1.
     -623    1    1    2    0    0 -0.66342770258E-03 -0.57747620167E-03  0.12117140126E-03  0.17130000000E+03  0.17130000000E+03 0. -1.
      622    1    1    2    0    0  0.88720522301E-02  0.34853629008E-03  0.33061022843E+01  0.33061747003E+01  0.20000000000E-01 0.  0.
</event>
<event>
 5   0  0.3603037E+08  0.9118800E+02  0.7818608E-02  0.1180000E+00
       11   -1    0    0    0    0  0.00000000000E+00  0.00000000000E+00  0.39999999673E+01  0.40000000000E+01  0.51109989000E-03 0.  1.
     -623   -1    0    0    0    0  0.00000000000E+00  0.00000000000E+00  0.12525980253E-10  0.17130000000E+03  0.17130000000E+03 0. -1.
       11    1    1    2    0    0  0.62730616385E-02 -0.35890437259E-03  0.79193529104E+00  0.79196038192E+00  0.51109989000E-03 0.  1.
     -623    1    1    2    0    0 -0.13741322285E-02  0.20978948209E-02  0.91632537911E-04  0.17130000002E+03  0.17130000000E+03 0. -1.
      622    1    1    2    0    0 -0.48989294100E-02 -0.17389904483E-02  0.32079730438E+01  0.32080395997E+01  0.20000000000E-01 0.  1.
</event>
<event>
 5   0  0.3603037E+08  0.9118800E+02  0.7818608E-02  0.1180000E+00
       11   -1    0    0    0    0  0.00000000000E+00  0.00000000000E+00  0.39999999673E+01  0.40000000000E+01  0.51109989000E-03 0. -1.
     -623   -1    0    0    0    0  0.00000000000E+00  0.00000000000E+00  0.12525980253E-10  0.17130000000E+03  0.17130000000E+03 0. -1.
       11    1    1    2    0    0  0.67895737458E-02  0.12198428341E-02  0.98986131378E+00  0.98988548229E+00  0.51109989000E-03 0. -1.
     -623    1    1    2    0    0 -0.12611141794E-01 -0.31407902347E-02  0.97314864392E-04  0.17130000049E+03  0.17130000000E+03 0. -1.
      622    1    1    2    0    0  0.58215680481E-02  0.19209474006E-02  0.30100413387E+01  0.30101140247E+01  0.20000000000E-01 0. -1.
</event>
<event>
 5   0  0.3603037E+08  0.9118800E+02  0.7818608E-02  0.1180000E+00
       11   -1    0    0    0    0  0.00000000000E+00  0.00000000000E+00  0.39999999673E+01  0.40000000000E+01  0.51109989000E-03 0. -1.
     -623   -1    0    0    0    0  0.00000000000E+00  0.00000000000E+00  0.12525980253E-10  0.17130000000E+03  0.17130000000E+03 0. -1.
       11    1    1    2    0    0 -0.15283795927E-02  0.15921450914E-02  0.58042764037E-02  0.62307074786E-02  0.51109989000E-03 0. -1.
     -623    1    1    2    0    0  0.20625282701E-02  0.42386183491E-03  0.47703491490E-03  0.17130000001E+03  0.17130000000E+03 0. -1.
      622    1    1    2    0    0 -0.53414867736E-03 -0.20160069263E-02  0.39937186560E+01  0.39937692789E+01  0.20000000000E-01 0. -1.
</event>
<event>
 5   0  0.3603037E+08  0.9118800E+02  0.7818608E-02  0.1180000E+00
       11   -1    0    0    0    0  0.00000000000E+00  0.00000000000E+00  0.39999999673E+01  0.40000000000E+01  0.51109989000E-03 0.  1.
     -623   -1    0    0    0    0  0.00000000000E+00  0.00000000000E+00  0.12525980253E-10  0.17130000000E+03  0.17130000000E+03 0.  1.
       11    1    1    2    0    0 -0.46898093166E-02 -0.55573156531E-02  0.13346843487E+01  0.13347042556E+01  0.51109989000E-03 0.  1.
     -623    1    1    2    0    0 -0.18152910184E-04  0.41913767648E-02  0.99473420775E-04  0.17130000005E+03  0.17130000000E+03 0.  1.
      622    1    1    2    0    0  0.47079622267E-02  0.13659388884E-02  0.26652161452E+01  0.26652956931E+01  0.20000000000E-01 0. -1.
</event>
<event>
 5   0  0.3603037E+08  0.9118800E+02  0.7818608E-02  0.1180000E+00
       11   -1    0    0    0    0  0.00000000000E+00  0.00000000000E+00  0.39999999673E+01  0.40000000000E+01  0.51109989000E-03 0. -1.
     -623   -1    0    0    0    0  0.00000000000E+00  0.00000000000E+00  0.12525980253E-10  0.17130000000E+03  0.17130000000E+03 0.  1.
       11    1    1    2    0    0  0.12797286570E-02 -0.59439451052E-02  0.69600778890E+00  0.69603453335E+00  0.51109989000E-03 0. -1.
     -623    1    1    2    0    0 -0.50337875581E-03  0.21066019686E-03  0.92312300243E-04  0.17130000000E+03  0.17130000000E+03 0.  1.
      622    1    1    2    0    0 -0.77634990120E-03  0.57332849083E-02  0.33038998662E+01  0.33039654658E+01  0.20000000000E-01 0. -1.
</event>
<event>
 5   0  0.3603037E+08  0.9118800E+02  0.7818608E-02  0.1180000E+00
       11   -1    0    0    0    0  0.00000000000E+00  0.00000000000E+00  0.39999999673E+01  0.40000000000E+01  0.51109989000E-03 0. -1.
     -623   -1    0    0    0    0  0.00000000000E+00  0.00000000000E+00  0.12525980253E-10  0.17130000000E+03  0.17130000000E+03 0. -1.
       11    1    1    2    0    0 -0.77539525639E-03 -0.99813452044E-02  0.95487727040E+00  0.95492988813E+00  0.51109989000E-03 0. -1.
     -623    1    1    2    0    0  0.88052570929E-03  0.18716653526E-02  0.12907924754E-03  0.17130000001E+03  0.17130000000E+03 0. -1.
      622    1    1    2    0    0 -0.10513045289E-03  0.81096798518E-02  0.30449936177E+01  0.30450700993E+01  0.20000000000E-01 0.  0.
</event>
<event>
 5   0  0.3603037E+08  0.9118800E+02  0.7818608E-02  0.1180000E+00
       11   -1    0    0    0    0  0.00000000000E+00  0.00000000000E+00  0.39999999673E+01  0.40000000000E+01  0.51109989000E-03 0.  1.
     -623   -1    0    0    0    0  0.00000000000E+00  0.00000000000E+00  0.12525980253E-10  0.17130000000E+03  0.17130000000E+03 0.  1.
       11    1    1    2    0    0 -0.76851442230E-02  0.41773794028E-02  0.15038498402E+00  0.15064002317E+00  0.51109989000E-03 0.  1.
     -623    1    1    2    0    0 -0.71089872314E-03 -0.14878363922E-02  0.31706804456E-03  0.17130000001E+03  0.17130000000E+03 0.  1.
      622    1    1    2    0    0  0.83960429461E-02 -0.26895430106E-02  0.38492979153E+01  0.38493599686E+01  0.20000000000E-01 0.  1.
</event>
<event>
 5   0  0.3603037E+08  0.9118800E+02  0.7818608E-02  0.1180000E+00
       11   -1    0    0    0    0  0.00000000000E+00  0.00000000000E+00  0.39999999673E+01  0.40000000000E+01  0.51109989000E-03 0.  1.
     -623   -1    0    0    0    0  0.00000000000E+00  0.00000000000E+00  0.12525980253E-10  0.17130000000E+03  0.17130000000E+03 0.  1.
       11    1    1    2    0    0 -0.17071546165E-02  0.70601593543E-03  0.72472140211E-01  0.72497483835E-01  0.51109989000E-03 0.  1.
     -623    1    1    2    0    0  0.30643168625E-02 -0.16645337930E-02  0.76621228346E-04  0.17130000004E+03  0.17130000000E+03 0.  1.
      622    1    1    2    0    0 -0.13571622460E-02  0.95851785754E-03  0.39274512059E+01  0.39275024807E+01  0.20000000000E-01 0.  1.
</event>
<event>
 5   0  0.3603037E+08  0.9118800E+02  0.7818608E-02  0.1180000E+00
       11   -1    0    0    0    0  0.00000000000E+00  0.00000000000E+00  0.39999999673E+01  0.40000000000E+01  0.51109989000E-03 0. -1.
     -623   -1    0    0    0    0  0.00000000000E+00  0.00000000000E+00  0.12525980253E-10  0.17130000000E+03  0.17130000000E+03 0.  1.
       11    1    1    2    0    0 -0.78945481000E-02 -0.14355382698E-01  0.16517899253E+01  0.16518712478E+01  0.51109989000E-03 0. -1.
     -623    1    1    2    0    0 -0.25744215018E-02  0.25462567401E-01  0.21798733415E-03  0.17130000191E+03  0.17130000000E+03 0.  1.
      622    1    1    2    0    0  0.10468969602E-01 -0.11107184703E-01  0.23479920548E+01  0.23481268403E+01  0.20000000000E-01 0. -1.
</event>
<event>
 5   0  0.3603037E+08  0.9118800E+02  0.7818608E-02  0.1180000E+00
       11   -1    0    0    0    0  0.00000000000E+00  0.00000000000E+00  0.39999999673E+01  0.40000000000E+01  0.51109989000E-03 0.  1.
     -623   -1    0    0    0    0  0.00000000000E+00  0.00000000000E+00  0.12525980253E-10  0.17130000000E+03  0.17130000000E+03 0. -1.
       11    1    1    2    0    0  0.24197492327E-02 -0.18471139377E-03  0.57420413507E-01  0.57473945509E-01  0.51109989000E-03 0.  1.
     -623    1    1    2    0    0 -0.24531507323E-02 -0.21922333393E-02  0.10497689098E-03  0.17130000003E+03  0.17130000000E+03 0. -1.
      622    1    1    2    0    0  0.33401499578E-04  0.23769447331E-02  0.39424745770E+01  0.39425260229E+01  0.20000000000E-01 0.  1.
</event>
<event>
 5   0  0.3603037E+08  0.9118800E+02  0.7818608E-02  0.1180000E+00
       11   -1    0    0    0    0  0.00000000000E+00  0.00000000000E+00  0.39999999673E+01  0.40000000000E+01  0.51109989000E-03 0. -1.
     -623   -1    0    0    0    0  0.00000000000E+00  0.00000000000E+00  0.12525980253E-10  0.17130000000E+03  0.17130000000E+03 0. -1.
       11    1    1    2    0    0 -0.70661184549E-04  0.15214711768E-02  0.27291401994E-01  0.27338648684E-01  0.51109989000E-03 0. -1.
     -623    1    1    2    0    0 -0.57626919037E-03 -0.70399838238E-03  0.97697682222E-04  0.17130000000E+03  0.17130000000E+03 0. -1.
      622    1    1    2    0    0  0.64693037492E-03 -0.81747279446E-03  0.39726108677E+01  0.39726613489E+01  0.20000000000E-01 0. -1.
</event>
<event>
 5   0  0.3603037E+08  0.9118800E+02  0.7818608E-02  0.1180000E+00
       11   -1    0    0    0    0  0.00000000000E+00  0.00000000000E+00  0.39999999673E+01  0.40000000000E+01  0.51109989000E-03 0.  1.
     -623   -1    0    0    0    0  0.00000000000E+00  0.00000000000E+00  0.12525980253E-10  0.17130000000E+03  0.17130000000E+03 0. -1.
       11    1    1    2    0    0 -0.28359823300E-02 -0.91184120615E-02  0.24728877570E+01  0.24729062474E+01  0.51109989000E-03 0.  1.
     -623    1    1    2    0    0  0.22276076619E-04  0.39051539120E-03  0.17696791520E-03  0.17130000000E+03  0.17130000000E+03 0. -1.
      622    1    1    2    0    0  0.28137062534E-02  0.87278966703E-02  0.15269352424E+01  0.15270937521E+01  0.20000000000E-01 0.  0.
</event>
<event>
 5   0  0.3603037E+08  0.9118800E+02  0.7818608E-02  0.1180000E+00
       11   -1    0    0    0    0  0.00000000000E+00  0.00000000000E+00  0.39999999673E+01  0.40000000000E+01  0.51109989000E-03 0.  1.
     -623   -1    0    0    0    0  0.00000000000E+00  0.00000000000E+00  0.12525980253E-10  0.17130000000E+03  0.17130000000E+03 0. -1.
       11    1    1    2    0    0  0.25426551545E-02  0.46457790029E-02  0.86286396834E+00  0.86288037261E+00  0.51109989000E-03 0.  1.
     -623    1    1    2    0    0  0.10470962331E-02 -0.78350365096E-03  0.84561506555E-04  0.17130000001E+03  0.17130000000E+03 0. -1.
      622    1    1    2    0    0 -0.35897513876E-02 -0.38622753520E-02  0.31370514375E+01  0.31371196224E+01  0.20000000000E-01 0.  1.
</event>
<event>
 5   0  0.3603037E+08  0.9118800E+02  0.7818608E-02  0.1180000E+00
       11   -1    0    0    0    0  0.00000000000E+00  0.00000000000E+00  0.39999999673E+01  0.40000000000E+01  0.51109989000E-03 0.  1.
     -623   -1    0    0    0    0  0.00000000000E+00  0.00000000000E+00  0.12525980253E-10  0.17130000000E+03  0.17130000000E+03 0.  1.
       11    1    1    2    0    0 -0.32157029599E-02  0.46250628909E-02  0.78842576953E+00  0.78844605855E+00  0.51109989000E-03 0.  1.
     -623    1    1    2    0    0  0.86258567174E-04 -0.13979363249E-03  0.87189110109E-04  0.17130000000E+03  0.17130000000E+03 0.  1.
      622    1    1    2    0    0  0.31294443927E-02 -0.44852692585E-02  0.32114870087E+01  0.32115539414E+01  0.20000000000E-01 0.  1.
</event>
<event>
 5   0  0.3603037E+08  0.9118800E+02  0.7818608E-02  0.1180000E+00
       11   -1    0    0    0    0  0.00000000000E+00  0.00000000000E+00  0.39999999673E+01  0.40000000000E+01  0.51109989000E-03 0.  1.
     -623   -1    0    0    0    0  0.00000000000E+00  0.00000000000E+00  0.12525980253E-10  0.17130000000E+03  0.17130000000E+03 0. -1.
       11    1    1    2    0    0 -0.14352748100E-02 -0.31890809496E-02  0.95927436940E-01  0.95992523823E-01  0.51109989000E-03 0.  1.
     -623    1    1    2    0    0 -0.56238184034E-03  0.44424014283E-02  0.11705483991E-03  0.17130000006E+03  0.17130000000E+03 0. -1.
      622    1    1    2    0    0  0.19976566503E-02 -0.12533204787E-02  0.39039554756E+01  0.39040074176E+01  0.20000000000E-01 0.  1.
</event>
<event>
 5   0  0.3603037E+08  0.9118800E+02  0.7818608E-02  0.1180000E+00
       11   -1    0    0    0    0  0.00000000000E+00  0.00000000000E+00  0.39999999673E+01  0.40000000000E+01  0.51109989000E-03 0.  1.
     -623   -1    0    0    0    0  0.00000000000E+00  0.00000000000E+00  0.12525980253E-10  0.17130000000E+03  0.17130000000E+03 0. -1.
       11    1    1    2    0    0  0.70803224029E-03 -0.10432123799E-01  0.75330950015E+00  0.75338223682E+00  0.51109989000E-03 0.  1.
     -623    1    1    2    0    0 -0.48303723004E-03  0.49773505911E-03  0.14951598865E-03  0.17130000000E+03  0.17130000000E+03 0. -1.
      622    1    1    2    0    0 -0.22499501025E-03  0.99343887401E-02  0.32465409512E+01  0.32466177617E+01  0.20000000000E-01 0.  1.
</event>
<event>
 5   0  0.3603037E+08  0.9118800E+02  0.7818608E-02  0.1180000E+00
       11   -1    0    0    0    0  0.00000000000E+00  0.00000000000E+00  0.39999999673E+01  0.40000000000E+01  0.51109989000E-03 0. -1.
     -623   -1    0    0    0    0  0.00000000000E+00  0.00000000000E+00  0.12525980253E-10  0.17130000000E+03  0.17130000000E+03 0.  1.
       11    1    1    2    0    0  0.19320663786E-02 -0.73296135519E-02  0.23910958430E+01  0.23911079122E+01  0.51109989000E-03 0. -1.
     -623    1    1    2    0    0 -0.46957577694E-03  0.86720980918E-02  0.13779562536E-03  0.17130000022E+03  0.17130000000E+03 0.  1.
      622    1    1    2    0    0 -0.14624906017E-02 -0.13424845399E-02  0.16087663287E+01  0.16088918675E+01  0.20000000000E-01 0.  1.
</event>
<event>
 5   0  0.3603037E+08  0.9118800E+02  0.7818608E-02  0.1180000E+00
       11   -1    0    0    0    0  0.00000000000E+00  0.00000000000E+00  0.39999999673E+01  0.40000000000E+01  0.51109989000E-03 0.  1.
     -623   -1    0    0    0    0  0.00000000000E+00  0.00000000000E+00  0.12525980253E-10  0.17130000000E+03  0.17130000000E+03 0. -1.
       11    1    1    2    0    0 -0.28396153395E-02 -0.49302779730E-02  0.16315546198E+01  0.16315646202E+01  0.51109989000E-03 0.  1.
     -623    1    1    2    0    0 -0.57862799350E-03  0.41372971403E-04  0.10192693242E-03  0.17130000000E+03  0.17130000000E+03 0. -1.
      622    1    1    2    0    0  0.34182433330E-02  0.48889050016E-02  0.23683434206E+01  0.23684353788E+01  0.20000000000E-01 0.  0.
</event>
<event>
 5   0  0.3603037E+08  0.9118800E+02  0.7818608E-02  0.1180000E+00
       11   -1    0    0    0    0  0.00000000000E+00  0.00000000000E+00  0.39999999673E+01  0.40000000000E+01  0.51109989000E-03 0.  1.
     -623   -1    0    0    0    0  0.00000000000E+00  0.00000000000E+00  0.12525980253E-10  0.17130000000E+03  0.17130000000E+03 0. -1.
       11    1    1    2    0    0 -0.12717504723E-01  0.18318451472E-01  0.12107493202E+01  0.12109547796E+01  0.51109989000E-03 0.  1.
     -623    1    1    2    0    0  0.11522123583E-02  0.42451452309E-03  0.36410230010E-03  0.17130000000E+03  0.17130000000E+03 0. -1.
      622    1    1    2    0    0  0.11565292364E-01 -0.18742965995E-01  0.27888865448E+01  0.27890452156E+01  0.20000000000E-01 0.  1.
</event>
<event>
 5   0  0.3603037E+08  0.9118800E+02  0.7818608E-02  0.1180000E+00
       11   -1    0    0    0    0  0.00000000000E+00  0.00000000000E+00  0.39999999673E+01  0.40000000000E+01  0.51109989000E-03 0.  1.
     -623   -1    0    0    0    0  0.00000000000E+00  0.00000000000E+00  0.12525980253E-10  0.17130000000E+03  0.17130000000E+03 0. -1.
       11    1    1    2    0    0 -0.10965915313E-01 -0.59082140269E-02  0.17392074811E+00  0.17436698695E+00  0.51109989000E-03 0.  1.
     -623    1    1    2    0    0  0.87697630175E-02 -0.24143584656E-02  0.50841102747E-03  0.17130000024E+03  0.17130000000E+03 0. -1.
      622    1    1    2    0    0  0.21961522957E-02  0.83225724925E-02  0.38255708082E+01  0.38256327708E+01  0.20000000000E-01 0.  1.
</event>
<event>
 5   0  0.3603037E+08  0.9118800E+02  0.7818608E-02  0.1180000E+00
       11   -1    0    0    0    0  0.00000000000E+00  0.00000000000E+00  0.39999999673E+01  0.40000000000E+01  0.51109989000E-03 0. -1.
     -623   -1    0    0    0    0  0.00000000000E+00  0.00000000000E+00  0.12525980253E-10  0.17130000000E+03  0.17130000000E+03 0.  1.
       11    1    1    2    0    0  0.17768757703E-02 -0.49666863198E-03  0.46450101709E-02  0.50240727615E-02  0.51109989000E-03 0. -1.
     -623    1    1    2    0    0 -0.20265585719E-03  0.23735683410E-03  0.42941254735E-03  0.17130000000E+03  0.17130000000E+03 0.  1.
      622    1    1    2    0    0 -0.15742199131E-02  0.25931179788E-03  0.39949255446E+01  0.39949759264E+01  0.20000000000E-01 0. -1.
</event>
<event>
 5   0  0.3603037E+08  0.9118800E+02  0.7818608E-02  0.1180000E+00
       11   -1    0    0    0    0  0.00000000000E+00  0.00000000000E+00  0.39999999673E+01  0.40000000000E+01  0.51109989000E-03 0.  1.
     -623   -1    0    0    0    0  0.00000000000E+00  0.00000000000E+00  0.12525980253E-10  0.17130000000E+03  0.17130000000E+03 0.  1.
       11    1    1    2    0    0 -0.53388740921E-02  0.68103264785E-02  0.47276691464E+00  0.47284638195E+00  0.51109989000E-03 0.  1.
     -623    1    1    2    0    0 -0.47249935847E-02 -0.15015485201E-01  0.16076304374E-03  0.17130000072E+03  0.17130000000E+03 0.  1.
      622    1    1    2    0    0  0.10063867677E-01  0.82051587222E-02  0.35270722897E+01  0.35271528947E+01  0.20000000000E-01 0.  1.
</event>
<event>
 5   0  0.3603037E+08  0.9118800E+02  0.7818608E-02  0.1180000E+00
       11   -1    0    0    0    0  0.00000000000E+00  0.00000000000E+00  0.39999999673E+01  0.40000000000E+01  0.51109989000E-03 0.  1.
     -623   -1    0    0    0    0  0.00000000000E+00  0.00000000000E+00  0.12525980253E-10  0.17130000000E+03  0.17130000000E+03 0. -1.
       11    1    1    2    0    0  0.72290596908E-02 -0.23337122872E-02  0.13399968490E+01  0.13400184783E+01  0.51109989000E-03 0.  1.
     -623    1    1    2    0    0  0.15031413369E-03  0.13924388798E-03  0.10792787992E-03  0.17130000000E+03  0.17130000000E+03 0. -1.
      622    1    1    2    0    0 -0.73793738245E-02  0.21944683993E-02  0.26598951905E+01  0.26599815216E+01  0.20000000000E-01 0. -1.
</event>
<event>
 5   0  0.3603037E+08  0.9118800E+02  0.7818608E-02  0.1180000E+00
       11   -1    0    0    0    0  0.00000000000E+00  0.00000000000E+00  0.39999999673E+01  0.40000000000E+01  0.51109989000E-03 0.  1.
     -623   -1    0    0    0    0  0.00000000000E+00  0.00000000000E+00  0.12525980253E-10  0.17130000000E+03  0.17130000000E+03 0.  1.
       11    1    1    2    0    0 -0.65530831342E-03 -0.25728282378E-03  0.44066708937E-01  0.44075295601E-01  0.51109989000E-03 0.  1.
     -623    1    1    2    0    0  0.17224757296E-03  0.56888829065E-03  0.59154235163E-04  0.17130000000E+03  0.17130000000E+03 0.  1.
      622    1    1    2    0    0  0.48306074046E-03 -0.31160546687E-03  0.39558741042E+01  0.39559247034E+01  0.20000000000E-01 0.  1.
</event>
<event>
 5   0  0.3603037E+08  0.9118800E+02  0.7818608E-02  0.1180000E+00
       11   -1    0    0    0    0  0.00000000000E+00  0.00000000000E+00  0.39999999673E+01  0.40000000000E+01  0.51109989000E-03 0. -1.
     -623   -1    0    0    0    0  0.00000000000E+00  0.00000000000E+00  0.12525980253E-10  0.17130000000E+03  0.17130000000E+03 0. -1.
       11    1    1    2    0    0  0.32888637659E-02 -0.47277583835E-03  0.95693524030E+00  0.95694114526E+00  0.51109989000E-03 0. -1.
     -623    1    1    2    0    0 -0.75494581265E-03 -0.38795904802E-03  0.72775228489E-04  0.17130000000E+03  0.17130000000E+03 0. -1.
      622    1    1    2    0    0 -0.25339179533E-02  0.86073488638E-03  0.30429919518E+01  0.30430588526E+01  0.20000000000E-01 0. -1.
</event>
<event>
 5   0  0.3603037E+08  0.9118800E+02  0.7818608E-02  0.1180000E+00
       11   -1    0    0    0    0  0.00000000000E+00  0.00000000000E+00  0.39999999673E+01  0.40000000000E+01  0.51109989000E-03 0. -1.
     -623   -1    0    0    0    0  0.00000000000E+00  0.00000000000E+00  0.12525980253E-10  0.17130000000E+03  0.17130000000E+03 0. -1.
       11    1    1    2    0    0 -0.28367976600E-02  0.37388328234E-02  0.19722581206E+00  0.19728230649E+00  0.51109989000E-03 0. -1.
     -623    1    1    2    0    0  0.52436164621E-02  0.89415107339E-03  0.11272272549E-03  0.17130000008E+03  0.17130000000E+03 0. -1.
      622    1    1    2    0    0 -0.24068188021E-02 -0.46329838967E-02  0.38026614326E+01  0.38027176109E+01  0.20000000000E-01 0. -1.
</event>
<event>
 5   0  0.3603037E+08  0.9118800E+02  0.7818608E-02  0.1180000E+00
       11   -1    0    0    0    0  0.00000000000E+00  0.00000000000E+00  0.39999999673E+01  0.40000000000E+01  0.51109989000E-03 0. -1.
     -623   -1    0    0    0    0  0.00000000000E+00  0.00000000000E+00  0.12525980253E-10  0.17130000000E+03  0.17130000000E+03 0.  1.
       11    1    1    2    0    0 -0.66665354230E-02 -0.35573948388E-02  0.73685270202E-01  0.74073463664E-01  0.51109989000E-03 0. -1.
     -623    1    1    2    0    0  0.46779122989E-02  0.43611133494E-02  0.43981042591E-03  0.17130000012E+03  0.17130000000E+03 0.  1.
      622    1    1    2    0    0  0.19886231241E-02 -0.80371851063E-03  0.39258748867E+01  0.39259264164E+01  0.20000000000E-01 0. -1.
</event>
<event>
 5   0  0.3603037E+08  0.9118800E+02  0.7818608E-02  0.1180000E+00
       11   -1    0    0    0    0  0.00000000000E+00  0.00000000000E+00  0.39999999673E+01  0.40000000000E+01  0.51109989000E-03 0. -1.
     -623   -1    0    0    0    0  0.00000000000E+00  0.00000000000E+00  0.12525980253E-10  0.17130000000E+03  0.17130000000E+03 0.  1.
       11    1    1    2    0    0 -0.82682752340E-03 -0.23324676451E-03  0.57013840282E-01  0.57022603002E-01  0.51109989000E-03 0. -1.
     -623    1    1    2    0    0 -0.41735277399E-03  0.80216274453E-03  0.59693236190E-04  0.17130000000E+03  0.17130000000E+03 0.  1.
      622    1    1    2    0    0  0.12441802974E-02 -0.56891598002E-03  0.39429264338E+01  0.39429773946E+01  0.20000000000E-01 0. -1.
</event>
<event>
 5   0  0.3603037E+08  0.9118800E+02  0.7818608E-02  0.1180000E+00
       11   -1    0    0    0    0  0.00000000000E+00  0.00000000000E+00  0.39999999673E+01  0.40000000000E+01  0.51109989000E-03 0. -1.
     -623   -1    0    0    0    0  0.00000000000E+00  0.00000000000E+00  0.12525980253E-10  0.17130000000E+03  0.17130000000E+03 0.  1.
       11    1    1    2    0    0 -0.91954092376E-02 -0.15233606624E-03  0.12203544472E+01  0.12203892071E+01  0.51109989000E-03 0. -1.
     -623    1    1    2    0    0  0.50910137854E-02 -0.14631558556E-01  0.14972852631E-03  0.17130000070E+03  0.17130000000E+03 0.  1.
      622    1    1    2    0    0  0.41043954523E-02  0.14783894622E-01  0.27794957917E+01  0.27796100923E+01  0.20000000000E-01 0. -1.
</event>
<event>
 5   0  0.3603037E+08  0.9118800E+02  0.7818608E-02  0.1180000E+00
       11   -1    0    0    0    0  0.00000000000E+00  0.00000000000E+00  0.39999999673E+01  0.40000000000E+01  0.51109989000E-03 0.  1.
     -623   -1    0    0    0    0  0.00000000000E+00  0.00000000000E+00  0.12525980253E-10  0.17130000000E+03  0.17130000000E+03 0. -1.
       11    1    1    2    0    0 -0.10361250950E-02  0.56845603904E-02  0.22371480447E+00  0.22378999697E+00  0.51109989000E-03 0.  1.
     -623    1    1    2    0    0 -0.26943539860E-02  0.13066053598E-02  0.13646401079E-03  0.17130000003E+03  0.17130000000E+03 0. -1.
      622    1    1    2    0    0  0.37304790810E-02 -0.69911657502E-02  0.37761486989E+01  0.37762099768E+01  0.20000000000E-01 0.  0.
</event>
<event>
 5   0  0.3603037E+08  0.9118800E+02  0.7818608E-02  0.1180000E+00
       11   -1    0    0    0    0  0.00000000000E+00  0.00000000000E+00  0.39999999673E+01  0.40000000000E+01  0.51109989000E-03 0. -1.
     -623   -1    0    0    0    0  0.00000000000E+00  0.00000000000E+00  0.12525980253E-10  0.17130000000E+03  0.17130000000E+03 0. -1.
       11    1    1    2    0    0  0.14555514984E-01  0.22246240173E-01  0.97889428642E+00  0.97925535149E+00  0.51109989000E-03 0. -1.
     -623    1    1    2    0    0 -0.59872991803E-03 -0.10611346499E-03  0.54062738446E-03  0.17130000000E+03  0.17130000000E+03 0. -1.
      622    1    1    2    0    0 -0.13956785066E-01 -0.22140126708E-01  0.30205650536E+01  0.30207446466E+01  0.20000000000E-01 0.  0.
</event>
<event>
 5   0  0.3603037E+08  0.9118800E+02  0.7818608E-02  0.1180000E+00
       11   -1    0    0    0    0  0.00000000000E+00  0.00000000000E+00  0.39999999673E+01  0.40000000000E+01  0.51109989000E-03 0. -1.
     -623   -1    0    0    0    0  0.00000000000E+00  0.00000000000E+00  0.12525980253E-10  0.17130000000E+03  0.17130000000E+03 0.  1.
       11    1    1    2    0    0 -0.74506372200E-02 -0.43985285925E-02  0.92396633532E-01  0.92802252979E-01  0.51109989000E-03 0. -1.
     -623    1    1    2    0    0  0.89541746473E-02  0.31710370662E-02  0.45752082526E-03  0.17130000026E+03  0.17130000000E+03 0.  1.
      622    1    1    2    0    0 -0.15035374273E-02  0.12274915263E-02  0.39071458130E+01  0.39071974830E+01  0.20000000000E-01 0. -1.
</event>
<event>
 5   0  0.3603037E+08  0.9118800E+02  0.7818608E-02  0.1180000E+00
       11   -1    0    0    0    0  0.00000000000E+00  0.00000000000E+00  0.39999999673E+01  0.40000000000E+01  0.51109989000E-03 0. -1.
     -623   -1    0    0    0    0  0.00000000000E+00  0.00000000000E+00  0.12525980253E-10  0.17130000000E+03  0.17130000000E+03 0. -1.
       11    1    1    2    0    0  0.85316587890E-03  0.58753013509E-05  0.47640680026E-01  0.47651060224E-01  0.51109989000E-03 0. -1.
     -623    1    1    2    0    0 -0.29940220965E-03  0.20204815104E-03  0.60995356846E-04  0.17130000000E+03  0.17130000000E+03 0. -1.
      622    1    1    2    0    0 -0.55376366925E-03 -0.20792345239E-03  0.39522982920E+01  0.39523489394E+01  0.20000000000E-01 0. -1.
</event>
<event>
 5   0  0.3603037E+08  0.9118800E+02  0.7818608E-02  0.1180000E+00
       11   -1    0    0    0    0  0.00000000000E+00  0.00000000000E+00  0.39999999673E+01  0.40000000000E+01  0.51109989000E-03 0.  1.
     -623   -1    0    0    0    0  0.00000000000E+00  0.00000000000E+00  0.12525980253E-10  0.17130000000E+03  0.17130000000E+03 0.  1.
       11    1    1    2    0    0  0.73261636706E-02 -0.21869607465E-01  0.10880918650E+01  0.10883364003E+01  0.51109989000E-03 0.  1.
     -623    1    1    2    0    0  0.76556753710E-03  0.16917570391E-01  0.32948548427E-03  0.17130000084E+03  0.17130000000E+03 0.  1.
      622    1    1    2    0    0 -0.80917312077E-02  0.49520370736E-02  0.29115786169E+01  0.29116627622E+01  0.20000000000E-01 0.  1.
</event>
<event>
 5   0  0.3603037E+08  0.9118800E+02  0.7818608E-02  0.1180000E+00
       11   -1    0    0    0    0  0.00000000000E+00  0.00000000000E+00  0.39999999673E+01  0.40000000000E+01  0.51109989000E-03 0.  1.
     -623   -1    0    0    0    0  0.00000000000E+00  0.00000000000E+00  0.12525980253E-10  0.17130000000E+03  0.17130000000E+03 0.  1.
       11    1    1    2    0    0  0.20691950175E-02 -0.51569580970E-01  0.14315698126E+01  0.14324999451E+01  0.51109989000E-03 0.  1.
     -623    1    1    2    0    0  0.12154783700E-01  0.18853628103E-01  0.12573302720E-02  0.17130000147E+03  0.17130000000E+03 0.  1.
      622    1    1    2    0    0 -0.14223978718E-01  0.32715952867E-01  0.25671728245E+01  0.25674985815E+01  0.20000000000E-01 0.  1.
</event>
<event>
 5   0  0.3603037E+08  0.9118800E+02  0.7818608E-02  0.1180000E+00
       11   -1    0    0    0    0  0.00000000000E+00  0.00000000000E+00  0.39999999673E+01  0.40000000000E+01  0.51109989000E-03 0.  1.
     -623   -1    0    0    0    0  0.00000000000E+00  0.00000000000E+00  0.12525980253E-10  0.17130000000E+03  0.17130000000E+03 0. -1.
       11    1    1    2    0    0 -0.27584654377E-01 -0.15653767048E-01  0.22365731329E+01  0.22367980672E+01  0.51109989000E-03 0.  1.
     -623    1    1    2    0    0  0.30668700380E-01 -0.43322835220E-02  0.45711677937E-03  0.17130000280E+03  0.17130000000E+03 0. -1.
      622    1    1    2    0    0 -0.30840460027E-02  0.19986050570E-01  0.17629697177E+01  0.17631991320E+01  0.20000000000E-01 0.  1.
</event>
<event>
 5   0  0.3603037E+08  0.9118800E+02  0.7818608E-02  0.1180000E+00
       11   -1    0    0    0    0  0.00000000000E+00  0.00000000000E+00  0.39999999673E+01  0.40000000000E+01  0.51109989000E-03 0.  1.
     -623   -1    0    0    0    0  0.00000000000E+00  0.00000000000E+00  0.12525980253E-10  0.17130000000E+03  0.17130000000E+03 0.  1.
       11    1    1    2    0    0  0.10753784309E-01 -0.12039384468E-01  0.13851115342E+00  0.13944960200E+00  0.51109989000E-03 0.  1.
     -623    1    1    2    0    0 -0.66288949708E-02  0.69610181640E-02  0.99603888074E-03  0.17130000027E+03  0.17130000000E+03 0.  1.
      622    1    1    2    0    0 -0.41248893380E-02  0.50783663035E-02  0.38604927751E+01  0.38605501254E+01  0.20000000000E-01 0.  1.
</event>
<event>
 5   0  0.3603037E+08  0.9118800E+02  0.7818608E-02  0.1180000E+00
       11   -1    0    0    0    0  0.00000000000E+00  0.00000000000E+00  0.39999999673E+01  0.40000000000E+01  0.51109989000E-03 0. -1.
     -623   -1    0    0    0    0  0.00000000000E+00  0.00000000000E+00  0.12525980253E-10  0.17130000000E+03  0.17130000000E+03 0. -1.
       11    1    1    2    0    0 -0.64444345758E-02 -0.14368079254E-01  0.17787035042E+00  0.17856678084E+00  0.51109989000E-03 0. -1.
     -623    1    1    2    0    0  0.88962630898E-02  0.43410274502E-02  0.76296398032E-03  0.17130000029E+03  0.17130000000E+03 0. -1.
      622    1    1    2    0    0 -0.24518285139E-02  0.10027051804E-01  0.38213666530E+01  0.38214329314E+01  0.20000000000E-01 0. -1.
</event>
<event>
 5   0  0.3603037E+08  0.9118800E+02  0.7818608E-02  0.1180000E+00
       11   -1    0    0    0    0  0.00000000000E+00  0.00000000000E+00  0.39999999673E+01  0.40000000000E+01  0.51109989000E-03 0.  1.
     -623   -1    0    0    0    0  0.00000000000E+00  0.00000000000E+00  0.12525980253E-10  0.17130000000E+03  0.17130000000E+03 0.  1.
       11    1    1    2    0    0 -0.13896399962E-02  0.39552904874E-02  0.34961075105E+00  0.34963625941E+00  0.51109989000E-03 0.  1.
     -623    1    1    2    0    0 -0.16833179099E-03 -0.25139364245E-03  0.82477088344E-04  0.17130000000E+03  0.17130000000E+03 0.  1.
      622    1    1    2    0    0  0.15579717872E-02 -0.37038968450E-02  0.36503067392E+01  0.36503637403E+01  0.20000000000E-01 0.  1.
</event>
<event>
 5   0  0.3603037E+08  0.9118800E+02  0.7818608E-02  0.1180000E+00
       11   -1    0    0    0    0  0.00000000000E+00  0.00000000000E+00  0.39999999673E+01  0.40000000000E+01  0.51109989000E-03 0. -1.
     -623   -1    0    0    0    0  0.00000000000E+00  0.00000000000E+00  0.12525980253E-10  0.17130000000E+03  0.17130000000E+03 0.  1.
       11    1    1    2    0    0  0.43733223568E-02  0.42707809735E-03  0.59035840773E+00  0.59037498180E+00  0.51109989000E-03 0. -1.
     -623    1    1    2    0    0  0.81688160707E-03  0.15204486483E-02  0.79714730282E-04  0.17130000001E+03  0.17130000000E+03 0.  1.
      622    1    1    2    0    0 -0.51902039639E-02 -0.19475267456E-02  0.34095618449E+01  0.34096250095E+01  0.20000000000E-01 0.  0.
</event>
<event>
 5   0  0.3603037E+08  0.9118800E+02  0.7818608E-02  0.1180000E+00
       11   -1    0    0    0    0  0.00000000000E+00  0.00000000000E+00  0.39999999673E+01  0.40000000000E+01  0.51109989000E-03 0.  1.
     -623   -1    0    0    0    0  0.00000000000E+00  0.00000000000E+00  0.12525980253E-10  0.17130000000E+03  0.17130000000E+03 0.  1.
       11    1    1    2    0    0  0.44906333815E-02 -0.14262440779E-01  0.11048615120E+01  0.11049628070E+01  0.51109989000E-03 0.  1.
     -623    1    1    2    0    0  0.18168249038E-03  0.11819776624E-02  0.20367289159E-03  0.17130000000E+03  0.17130000000E+03 0.  1.
      622    1    1    2    0    0 -0.46723158718E-02  0.13080463117E-01  0.28949347825E+01  0.28950371887E+01  0.20000000000E-01 0.  0.
</event>
<event>
 5   0  0.3603037E+08  0.9118800E+02  0.7818608E-02  0.1180000E+00
       11   -1    0    0    0    0  0.00000000000E+00  0.00000000000E+00  0.39999999673E+01  0.40000000000E+01  0.51109989000E-03 0.  1.
     -623   -1    0    0    0    0  0.00000000000E+00  0.00000000000E+00  0.12525980253E-10  0.17130000000E+03  0.17130000000E+03 0.  1.
       11    1    1    2    0    0  0.17518753791E-02  0.26435292257E-02  0.88327057563E-02  0.93986822310E-02  0.51109989000E-03 0.  1.
     -623    1    1    2    0    0 -0.37438857005E-02 -0.87086978541E-03  0.61699705556E-03  0.17130000004E+03  0.17130000000E+03 0.  1.
      622    1    1    2    0    0  0.19920103214E-02 -0.17726594403E-02  0.39905502645E+01  0.39906012735E+01  0.20000000000E-01 0.  1.
</event>
<event>
 5   0  0.3603037E+08  0.9118800E+02  0.7818608E-02  0.1180000E+00
       11   -1    0    0    0    0  0.00000000000E+00  0.00000000000E+00  0.39999999673E+01  0.40000000000E+01  0.51109989000E-03 0. -1.
     -623   -1    0    0    0    0  0.00000000000E+00  0.00000000000E+00  0.12525980253E-10  0.17130000000E+03  0.17130000000E+03 0. -1.
       11    1    1    2    0    0 -0.47377311887E-03 -0.15311190694E-02  0.19426232492E-01  0.19498936286E-01  0.51109989000E-03 0. -1.
     -623    1    1    2    0    0  0.29512220261E-02  0.18876354199E-03  0.12393930675E-03  0.17130000003E+03  0.17130000000E+03 0. -1.
      622    1    1    2    0    0 -0.24774489073E-02  0.13423555274E-02  0.39804497956E+01  0.39805010381E+01  0.20000000000E-01 0. -1.
</event>
<event>
 5   0  0.3603037E+08  0.9118800E+02  0.7818608E-02  0.1180000E+00
       11   -1    0    0    0    0  0.00000000000E+00  0.00000000000E+00  0.39999999673E+01  0.40000000000E+01  0.51109989000E-03 0.  1.
     -623   -1    0    0    0    0  0.00000000000E+00  0.00000000000E+00  0.12525980253E-10  0.17130000000E+03  0.17130000000E+03 0.  1.
       11    1    1    2    0    0 -0.47577815785E-03  0.11929456242E-03  0.15100229073E-01  0.15116836184E-01  0.51109989000E-03 0.  1.
     -623    1    1    2    0    0 -0.32512045605E-03 -0.23854240833E-03  0.66847221371E-04  0.17130000000E+03  0.17130000000E+03 0.  1.
      622    1    1    2    0    0  0.80089861390E-03  0.11924784591E-03  0.39848328911E+01  0.39848831633E+01  0.20000000000E-01 0.  1.
</event>
<event>
 5   0  0.3603037E+08  0.9118800E+02  0.7818608E-02  0.1180000E+00
       11   -1    0    0    0    0  0.00000000000E+00  0.00000000000E+00  0.39999999673E+01  0.40000000000E+01  0.51109989000E-03 0.  1.
     -623   -1    0    0    0    0  0.00000000000E+00  0.00000000000E+00  0.12525980253E-10  0.17130000000E+03  0.17130000000E+03 0.  1.
       11    1    1    2    0    0 -0.22162356436E-02  0.12064828306E-02  0.29882478563E+00  0.29883587641E+00  0.51109989000E-03 0.  1.
     -623    1    1    2    0    0 -0.21358842753E-03 -0.12975775629E-03  0.66050005694E-04  0.17130000000E+03  0.17130000000E+03 0.  1.
      622    1    1    2    0    0  0.24298240711E-02 -0.10767250744E-02  0.37011091317E+01  0.37011641234E+01  0.20000000000E-01 0.  1.
</event>
<event>
 5   0  0.3603037E+08  0.9118800E+02  0.7818608E-02  0.1180000E+00
       11   -1    0    0    0    0  0.00000000000E+00  0.00000000000E+00  0.39999999673E+01  0.40000000000E+01  0.51109989000E-03 0. -1.
     -623   -1    0    0    0    0  0.00000000000E+00  0.00000000000E+00  0.12525980253E-10  0.17130000000E+03  0.17130000000E+03 0.  1.
       11    1    1    2    0    0  0.27756302475E-02  0.14505818713E-02  0.33311762881E-01  0.33462562366E-01  0.51109989000E-03 0. -1.
     -623    1    1    2    0    0 -0.43327832204E-02  0.14767199576E-02  0.20263609689E-03  0.17130000006E+03  0.17130000000E+03 0.  1.
      622    1    1    2    0    0  0.15571529729E-02 -0.29273018289E-02  0.39664855684E+01  0.39665373764E+01  0.20000000000E-01 0. -1.
</event>
<event>
 5   0  0.3603037E+08  0.9118800E+02  0.7818608E-02  0.1180000E+00
       11   -1    0    0    0    0  0.00000000000E+00  0.00000000000E+00  0.39999999673E+01  0.40000000000E+01  0.51109989000E-03 0. -1.
     -623   -1    0    0    0    0  0.00000000000E+00  0.00000000000E+00  0.12525980253E-10  0.17130000000E+03  0.17130000000E+03 0. -1.
       11    1    1    2    0    0 -0.40692402446E-02  0.16262279387E-01  0.83724360303E+00  0.83741156697E+00  0.51109989000E-03 0. -1.
     -623    1    1    2    0    0 -0.40028388023E-02 -0.32626685295E-02  0.26826873787E-03  0.17130000008E+03  0.17130000000E+03 0. -1.
      622    1    1    2    0    0  0.80720790468E-02 -0.12999610857E-01  0.31624880956E+01  0.31625883550E+01  0.20000000000E-01 0. -1.
</event>
<event>
 5   0  0.3603037E+08  0.9118800E+02  0.7818608E-02  0.1180000E+00
       11   -1    0    0    0    0  0.00000000000E+00  0.00000000000E+00  0.39999999673E+01  0.40000000000E+01  0.51109989000E-03 0.  1.
     -623   -1    0    0    0    0  0.00000000000E+00  0.00000000000E+00  0.12525980253E-10  0.17130000000E+03  0.17130000000E+03 0. -1.
       11    1    1    2    0    0  0.18873845468E-01 -0.38449897795E-02  0.12494845949E+00  0.12642541177E+00  0.51109989000E-03 0.  1.
     -623    1    1    2    0    0 -0.33937167350E-01 -0.66790718077E-02  0.15756369891E-02  0.17130000350E+03  0.17130000000E+03 0. -1.
      622    1    1    2    0    0  0.15063321883E-01  0.10524061587E-01  0.38734758709E+01  0.38735710890E+01  0.20000000000E-01 0.  1.
</event>
<event>
 5   0  0.3603037E+08  0.9118800E+02  0.7818608E-02  0.1180000E+00
       11   -1    0    0    0    0  0.00000000000E+00  0.00000000000E+00  0.39999999673E+01  0.40000000000E+01  0.51109989000E-03 0.  1.
     -623   -1    0    0    0    0  0.00000000000E+00  0.00000000000E+00  0.12525980253E-10  0.17130000000E+03  0.17130000000E+03 0. -1.
       11    1    1    2    0    0  0.36479748591E-03  0.79314043058E-03  0.72371924782E-02  0.73075525470E-02  0.51109989000E-03 0.  1.
     -623    1    1    2    0    0 -0.25329479861E-03  0.14772810074E-03  0.12053196318E-03  0.17130000000E+03  0.17130000000E+03 0. -1.
      622    1    1    2    0    0 -0.11150268730E-03 -0.94086853132E-03  0.39926422429E+01  0.39926924472E+01  0.20000000000E-01 0.  1.
</event>
<event>
 5   0  0.3603037E+08  0.9118800E+02  0.7818608E-02  0.1180000E+00
       11   -1    0    0    0    0  0.00000000000E+00  0.00000000000E+00  0.39999999673E+01  0.40000000000E+01  0.51109989000E-03 0. -1.
     -623   -1    0    0    0    0  0.00000000000E+00  0.00000000000E+00  0.12525980253E-10  0.17130000000E+03  0.17130000000E+03 0. -1.
       11    1    1    2    0    0 -0.10351875096E-03 -0.26848202875E-02  0.51668192642E-02  0.58460430039E-02  0.51109989000E-03 0. -1.
     -623    1    1    2    0    0 -0.96444165647E-03  0.74212127703E-03  0.72988570800E-03  0.17130000001E+03  0.17130000000E+03 0. -1.
      622    1    1    2    0    0  0.10679604074E-02  0.19426990105E-02  0.39941032624E+01  0.39941539511E+01  0.20000000000E-01 0. -1.
</event>
<event>
 5   0  0.3603037E+08  0.9118800E+02  0.7818608E-02  0.1180000E+00
       11   -1    0    0    0    0  0.00000000000E+00  0.00000000000E+00  0.39999999673E+01  0.40000000000E+01  0.51109989000E-03 0.  1.
     -623   -1    0    0    0    0  0.00000000000E+00  0.00000000000E+00  0.12525980253E-10  0.17130000000E+03  0.17130000000E+03 0.  1.
       11    1    1    2    0    0  0.43521402872E-01  0.15413637908E-01  0.49419934214E+00  0.49635163315E+00  0.51109989000E-03 0.  1.
     -623    1    1    2    0    0 -0.35908849056E-01 -0.12759481258E-01  0.22228711724E-02  0.17130000425E+03  0.17130000000E+03 0.  1.
      622    1    1    2    0    0 -0.76125538157E-02 -0.26541566497E-02  0.35035777540E+01  0.35036441135E+01  0.20000000000E-01 0.  1.
</event>
<event>
 5   0  0.3603037E+08  0.9118800E+02  0.7818608E-02  0.1180000E+00
       11   -1    0    0    0    0  0.00000000000E+00  0.00000000000E+00  0.39999999673E+01  0.40000000000E+01  0.51109989000E-03 0.  1.
     -623   -1    0    0    0    0  0.00000000000E+00  0.00000000000E+00  0.12525980253E-10  0.17130000000E+03  0.17130000000E+03 0. -1.
       11    1    1    2    0    0 -0.40240477354E-02  0.16730646029E-03  0.11721223961E+00  0.11728252763E+00  0.51109989000E-03 0. -1.
     -623    1    1    2    0    0 -0.11746776731E-02  0.39589665061E-03  0.12529185631E-03  0.17130000000E+03  0.17130000000E+03 0. -1.
      622    1    1    2    0    0  0.51987254086E-02 -0.56320311090E-03  0.38826624359E+01  0.38827174678E+01  0.20000000000E-01 0.  1.
</event>
<event>
 5   0  0.3603037E+08  0.9118800E+02  0.7818608E-02  0.1180000E+00
       11   -1    0    0    0    0  0.00000000000E+00  0.00000000000E+00  0.39999999673E+01  0.40000000000E+01  0.51109989000E-03 0.  1.
     -623   -1    0    0    0    0  0.00000000000E+00  0.00000000000E+00  0.12525980253E-10  0.17130000000E+03  0.17130000000E+03 0.  1.
       11    1    1    2    0    0  0.50198522850E-03  0.92149386845E-03  0.43794464533E-01  0.43810015814E-01  0.51109989000E-03 0.  1.
     -623    1    1    2    0    0 -0.31421438306E-03  0.18575817204E-03  0.66232461636E-04  0.17130000000E+03  0.17130000000E+03 0.  1.
      622    1    1    2    0    0 -0.18777084544E-03 -0.11072520405E-02  0.39561392704E+01  0.39561899838E+01  0.20000000000E-01 0.  1.
</event>
<event>
 5   0  0.3603037E+08  0.9118800E+02  0.7818608E-02  0.1180000E+00
       11   -1    0    0    0    0  0.00000000000E+00  0.00000000000E+00  0.39999999673E+01  0.40000000000E+01  0.51109989000E-03 0.  1.
     -623   -1    0    0    0    0  0.00000000000E+00  0.00000000000E+00  0.12525980253E-10  0.17130000000E+03  0.17130000000E+03 0. -1.
       11    1    1    2    0    0 -0.32254053735E-02 -0.55832018312E-02  0.72298625051E-01  0.72587380364E-01  0.51109989000E-03 0.  1.
     -623    1    1    2    0    0  0.83574106974E-03 -0.15708869607E-02  0.34689967945E-03  0.17130000001E+03  0.17130000000E+03 0. -1.
      622    1    1    2    0    0  0.23896643038E-02  0.71540887919E-02  0.39273544426E+01  0.39274126100E+01  0.20000000000E-01 0.  1.
</event>
<event>
 5   0  0.3603037E+08  0.9118800E+02  0.7818608E-02  0.1180000E+00
       11   -1    0    0    0    0  0.00000000000E+00  0.00000000000E+00  0.39999999673E+01  0.40000000000E+01  0.51109989000E-03 0.  1.
     -623   -1    0    0    0    0  0.00000000000E+00  0.00000000000E+00  0.12525980253E-10  0.17130000000E+03  0.17130000000E+03 0. -1.
       11    1    1    2    0    0  0.64242188886E-03  0.16393610260E-02  0.80117752898E-01  0.80138728219E-01  0.51109989000E-03 0.  1.
     -623    1    1    2    0    0 -0.82460787331E-03 -0.34959846956E-02  0.72446831541E-04  0.17130000004E+03  0.17130000000E+03 0. -1.
      622    1    1    2    0    0  0.18218598445E-03  0.18566236696E-02  0.39198097676E+01  0.39198612341E+01  0.20000000000E-01 0.  1.
</event>
<event>
 5   0  0.3603037E+08  0.9118800E+02  0.7818608E-02  0.1180000E+00
       11   -1    0    0    0    0  0.00000000000E+00  0.00000000000E+00  0.39999999673E+01  0.40000000000E+01  0.51109989000E-03 0.  1.
     -623   -1    0    0    0    0  0.00000000000E+00  0.00000000000E+00  0.12525980253E-10  0.17130000000E+03  0.17130000000E+03 0.  1.
       11    1    1    2    0    0  0.66911763487E-03 -0.32160191320E-02  0.20576510652E+01  0.20576537507E+01  0.51109989000E-03 0.  1.
     -623    1    1    2    0    0 -0.43673553274E-03 -0.16745949296E-02  0.11180388941E-03  0.17130000001E+03  0.17130000000E+03 0.  1.
      622    1    1    2    0    0 -0.23238210214E-03  0.48906140616E-02  0.19422370983E+01  0.19423462405E+01  0.20000000000E-01 0. -1.
</event>
<event>
 5   0  0.3603037E+08  0.9118800E+02  0.7818608E-02  0.1180000E+00
       11   -1    0    0    0    0  0.00000000000E+00  0.00000000000E+00  0.39999999673E+01  0.40000000000E+01  0.51109989000E-03 0.  1.
     -623   -1    0    0    0    0  0.00000000000E+00  0.00000000000E+00  0.12525980253E-10  0.17130000000E+03  0.17130000000E+03 0.  1.
       11    1    1    2    0    0 -0.22778892866E-02 -0.54749936440E-02  0.44559893938E+00  0.44563868810E+00  0.51109989000E-03 0.  1.
     -623    1    1    2    0    0 -0.56783970556E-03  0.12651416350E-03  0.10114982039E-03  0.17130000000E+03  0.17130000000E+03 0.  1.
      622    1    1    2    0    0  0.28457289921E-02  0.53484794805E-02  0.35542998782E+01  0.35543613109E+01  0.20000000000E-01 0.  1.
</event>
<event>
 5   0  0.3603037E+08  0.9118800E+02  0.7818608E-02  0.1180000E+00
       11   -1    0    0    0    0  0.00000000000E+00  0.00000000000E+00  0.39999999673E+01  0.40000000000E+01  0.51109989000E-03 0. -1.
     -623   -1    0    0    0    0  0.00000000000E+00  0.00000000000E+00  0.12525980253E-10  0.17130000000E+03  0.17130000000E+03 0.  1.
       11    1    1    2    0    0 -0.16064731113E-02  0.60283915855E-03  0.86357849353E-01  0.86376406144E-01  0.51109989000E-03 0. -1.
     -623    1    1    2    0    0  0.42129644455E-02  0.24743532276E-02  0.71775470963E-04  0.17130000007E+03  0.17130000000E+03 0.  1.
      622    1    1    2    0    0 -0.26064913342E-02 -0.30771923862E-02  0.39135703425E+01  0.39136235242E+01  0.20000000000E-01 0. -1.
</event>
<event>
 5   0  0.3603037E+08  0.9118800E+02  0.7818608E-02  0.1180000E+00
       11   -1    0    0    0    0  0.00000000000E+00  0.00000000000E+00  0.39999999673E+01  0.40000000000E+01  0.51109989000E-03 0.  1.
     -623   -1    0    0    0    0  0.00000000000E+00  0.00000000000E+00  0.12525980253E-10  0.17130000000E+03  0.17130000000E+03 0.  1.
       11    1    1    2    0    0 -0.24970772114E-02  0.81580916666E-02  0.12545030000E+01  0.12545321152E+01  0.51109989000E-03 0.  1.
     -623    1    1    2    0    0  0.63690519036E-03  0.58456595523E-03  0.11648372304E-03  0.17130000000E+03  0.17130000000E+03 0.  1.
      622    1    1    2    0    0  0.18601720210E-02 -0.87426576219E-02  0.27453804837E+01  0.27454678826E+01  0.20000000000E-01 0.  0.
</event>
<event>
 5   0  0.3603037E+08  0.9118800E+02  0.7818608E-02  0.1180000E+00
       11   -1    0    0    0    0  0.00000000000E+00  0.00000000000E+00  0.39999999673E+01  0.40000000000E+01  0.51109989000E-03 0. -1.
     -623   -1    0    0    0    0  0.00000000000E+00  0.00000000000E+00  0.12525980253E-10  0.17130000000E+03  0.17130000000E+03 0. -1.
       11    1    1    2    0    0  0.49838665646E-03  0.19024780373E-03  0.52813930363E-01  0.52819097352E-01  0.51109989000E-03 0. -1.
     -623    1    1    2    0    0  0.36766447704E-04 -0.12609438694E-03  0.55840605553E-04  0.17130000000E+03  0.17130000000E+03 0. -1.
      622    1    1    2    0    0 -0.53515310417E-03 -0.64153416788E-04  0.39471301964E+01  0.39471809026E+01  0.20000000000E-01 0. -1.
</event>
<event>
 5   0  0.3603037E+08  0.9118800E+02  0.7818608E-02  0.1180000E+00
       11   -1    0    0    0    0  0.00000000000E+00  0.00000000000E+00  0.39999999673E+01  0.40000000000E+01  0.51109989000E-03 0. -1.
     -623   -1    0    0    0    0  0.00000000000E+00  0.00000000000E+00  0.12525980253E-10  0.17130000000E+03  0.17130000000E+03 0. -1.
       11    1    1    2    0    0  0.60733412990E-02 -0.87770230080E-03  0.29710207926E+00  0.29716588391E+00  0.51109989000E-03 0. -1.
     -623    1    1    2    0    0 -0.27600300088E-02  0.12373383207E-02  0.11931169859E-03  0.17130000003E+03  0.17130000000E+03 0. -1.
      622    1    1    2    0    0 -0.33133112902E-02 -0.35963601988E-03  0.37027785764E+01  0.37028340893E+01  0.20000000000E-01 0.  0.
</event>
<event>
 5   0  0.3603037E+08  0.9118800E+02  0.7818608E-02  0.1180000E+00
       11   -1    0    0    0    0  0.00000000000E+00  0.00000000000E+00  0.39999999673E+01  0.40000000000E+01  0.51109989000E-03 0.  1.
     -623   -1    0    0    0    0  0.00000000000E+00  0.00000000000E+00  0.12525980253E-10  0.17130000000E+03  0.17130000000E+03 0.  1.
       11    1    1    2    0    0 -0.33030417109E-02 -0.14415048026E-02  0.17419719558E+00  0.17423522086E+00  0.51109989000E-03 0.  1.
     -623    1    1    2    0    0 -0.26517941898E-02  0.17357071544E-02  0.94945231646E-04  0.17130000003E+03  0.17130000000E+03 0.  1.
      622    1    1    2    0    0  0.59548359008E-02 -0.29420235177E-03  0.38257078266E+01  0.38257647498E+01  0.20000000000E-01 0.  0.
</event>
<event>
 5   0  0.3603037E+08  0.9118800E+02  0.7818608E-02  0.1180000E+00
       11   -1    0    0    0    0  0.00000000000E+00  0.00000000000E+00  0.39999999673E+01  0.40000000000E+01  0.51109989000E-03 0. -1.
     -623   -1    0    0    0    0  0.00000000000E+00  0.00000000000E+00  0.12525980253E-10  0.17130000000E+03  0.17130000000E+03 0. -1.
       11    1    1    2    0    0  0.13247393865E-02 -0.13673783268E-02  0.12520550293E-01  0.12674780457E-01  0.51109989000E-03 0. -1.
     -623    1    1    2    0    0 -0.76547149279E-03  0.26336395613E-02  0.20461914565E-03  0.17130000002E+03  0.17130000000E+03 0. -1.
      622    1    1    2    0    0 -0.55926789366E-03 -0.12662612345E-02  0.39872747979E+01  0.39873251975E+01  0.20000000000E-01 0. -1.
</event>
<event>
 5   0  0.3603037E+08  0.9118800E+02  0.7818608E-02  0.1180000E+00
       11   -1    0    0    0    0  0.00000000000E+00  0.00000000000E+00  0.39999999673E+01  0.40000000000E+01  0.51109989000E-03 0.  1.
     -623   -1    0    0    0    0  0.00000000000E+00  0.00000000000E+00  0.12525980253E-10  0.17130000000E+03  0.17130000000E+03 0. -1.
       11    1    1    2    0    0 -0.13438383318E-02 -0.29674926796E-02  0.45408744269E+00  0.45409941504E+00  0.51109989000E-03 0.  1.
     -623    1    1    2    0    0  0.13445183543E-02  0.18220710257E-03  0.69442641517E-04  0.17130000001E+03  0.17130000000E+03 0. -1.
      622    1    1    2    0    0 -0.68002252900E-06  0.27852855770E-02  0.35458430820E+01  0.35459005796E+01  0.20000000000E-01 0.  1.
</event>
<event>
 5   0  0.3603037E+08  0.9118800E+02  0.7818608E-02  0.1180000E+00
       11   -1    0    0    0    0  0.00000000000E+00  0.00000000000E+00  0.39999999673E+01  0.40000000000E+01  0.51109989000E-03 0. -1.
     -623   -1    0    0    0    0  0.00000000000E+00  0.00000000000E+00  0.12525980253E-10  0.17130000000E+03  0.17130000000E+03 0. -1.
       11    1    1    2    0    0  0.38383418727E-02  0.34593224569E-02  0.17481001431E+01  0.17481078546E+01  0.51109989000E-03 0. -1.
     -623    1    1    2    0    0  0.30158661659E-03  0.36834975711E-04  0.10301481108E-03  0.17130000000E+03  0.17130000000E+03 0. -1.
      622    1    1    2    0    0 -0.41399284893E-02 -0.34961574326E-02  0.22517968094E+01  0.22518921451E+01  0.20000000000E-01 0. -1.
</event>
<event>
 5   0  0.3603037E+08  0.9118800E+02  0.7818608E-02  0.1180000E+00
       11   -1    0    0    0    0  0.00000000000E+00  0.00000000000E+00  0.39999999673E+01  0.40000000000E+01  0.51109989000E-03 0.  1.
     -623   -1    0    0    0    0  0.00000000000E+00  0.00000000000E+00  0.12525980253E-10  0.17130000000E+03  0.17130000000E+03 0. -1.
       11    1    1    2    0    0  0.47885126630E-01  0.39172081493E-01  0.41568822148E+00  0.42026705321E+00  0.51109989000E-03 0.  1.
     -623    1    1    2    0    0 -0.51015434251E-01 -0.34882067105E-01  0.46498203297E-02  0.17130001121E+03  0.17130000000E+03 0. -1.
      622    1    1    2    0    0  0.31303076208E-02 -0.42900143872E-02  0.35796619256E+01  0.35797217356E+01  0.20000000000E-01 0.  1.
</event>
<event>
 5   0  0.3603037E+08  0.9118800E+02  0.7818608E-02  0.1180000E+00
       11   -1    0    0    0    0  0.00000000000E+00  0.00000000000E+00  0.39999999673E+01  0.40000000000E+01  0.51109989000E-03 0. -1.
     -623   -1    0    0    0    0  0.00000000000E+00  0.00000000000E+00  0.12525980253E-10  0.17130000000E+03  0.17130000000E+03 0.  1.
       11    1    1    2    0    0  0.10819081242E-01 -0.15073663732E-02  0.17272989615E+01  0.17273335776E+01  0.51109989000E-03 0. -1.
     -623    1    1    2    0    0  0.19521908824E-02 -0.34593140035E-02  0.16394685972E-03  0.17130000005E+03  0.17130000000E+03 0.  1.
      622    1    1    2    0    0 -0.12771272124E-01  0.49666803767E-02  0.22725370590E+01  0.22726663762E+01  0.20000000000E-01 0.  0.
</event>
<event>
 5   0  0.3603037E+08  0.9118800E+02  0.7818608E-02  0.1180000E+00
       11   -1    0    0    0    0  0.00000000000E+00  0.00000000000E+00  0.39999999673E+01  0.40000000000E+01  0.51109989000E-03 0. -1.
     -623   -1    0    0    0    0  0.00000000000E+00  0.00000000000E+00  0.12525980253E-10  0.17130000000E+03  0.17130000000E+03 0. -1.
       11    1    1    2    0    0 -0.64504435446E-02 -0.36652673480E-02  0.53725769374E+00  0.53730915971E+00  0.51109989000E-03 0. -1.
     -623    1    1    2    0    0  0.44673530215E-02 -0.47740192612E-02  0.12016937720E-03  0.17130000012E+03  0.17130000000E+03 0. -1.
      622    1    1    2    0    0  0.19830905231E-02  0.84392866092E-02  0.34626221042E+01  0.34626907155E+01  0.20000000000E-01 0. -1.
</event>
<event>
 5   0  0.3603037E+08  0.9118800E+02  0.7818608E-02  0.1180000E+00
       11   -1    0    0    0    0  0.00000000000E+00  0.00000000000E+00  0.39999999673E+01  0.40000000000E+01  0.51109989000E-03 0.  1.
     -623   -1    0    0    0    0  0.00000000000E+00  0.00000000000E+00  0.12525980253E-10  0.17130000000E+03  0.17130000000E+03 0.  1.
       11    1    1    2    0    0  0.15760420597E-02  0.35279588741E-02  0.28262419071E-01  0.28529913345E-01  0.51109989000E-03 0.  1.
     -623    1    1    2    0    0  0.23026452319E-03 -0.40307223821E-03  0.31946224388E-03  0.17130000000E+03  0.17130000000E+03 0.  1.
      622    1    1    2    0    0 -0.18063065829E-02 -0.31248866359E-02  0.39714180860E+01  0.39714700857E+01  0.20000000000E-01 0.  1.
</event>
<event>
 5   0  0.3603037E+08  0.9118800E+02  0.7818608E-02  0.1180000E+00
       11   -1    0    0    0    0  0.00000000000E+00  0.00000000000E+00  0.39999999673E+01  0.40000000000E+01  0.51109989000E-03 0. -1.
     -623   -1    0    0    0    0  0.00000000000E+00  0.00000000000E+00  0.12525980253E-10  0.17130000000E+03  0.17130000000E+03 0. -1.
       11    1    1    2    0    0 -0.79080776635E-02  0.18274390708E-01  0.65067596762E+00  0.65098077322E+00  0.51109989000E-03 0. -1.
     -623    1    1    2    0    0 -0.67645528394E-02 -0.49219010951E-02  0.42345858984E-03  0.17130000020E+03  0.17130000000E+03 0. -1.
      622    1    1    2    0    0  0.14672630503E-01 -0.13352489613E-01  0.33489005412E+01  0.33490190220E+01  0.20000000000E-01 0. -1.
</event>
<event>
 5   0  0.3603037E+08  0.9118800E+02  0.7818608E-02  0.1180000E+00
       11   -1    0    0    0    0  0.00000000000E+00  0.00000000000E+00  0.39999999673E+01  0.40000000000E+01  0.51109989000E-03 0. -1.
     -623   -1    0    0    0    0  0.00000000000E+00  0.00000000000E+00  0.12525980253E-10  0.17130000000E+03  0.17130000000E+03 0. -1.
       11    1    1    2    0    0  0.76178673486E-02  0.71238504689E-03  0.12472480343E+01  0.12472716062E+01  0.51109989000E-03 0. -1.
     -623    1    1    2    0    0 -0.49360030557E-03 -0.52529079175E-04  0.10549459472E-03  0.17130000000E+03  0.17130000000E+03 0. -1.
      622    1    1    2    0    0 -0.71242670430E-02 -0.65985596772E-03  0.27526464385E+01  0.27527283930E+01  0.20000000000E-01 0.  0.
</event>
<event>
 5   0  0.3603037E+08  0.9118800E+02  0.7818608E-02  0.1180000E+00
       11   -1    0    0    0    0  0.00000000000E+00  0.00000000000E+00  0.39999999673E+01  0.40000000000E+01  0.51109989000E-03 0.  1.
     -623   -1    0    0    0    0  0.00000000000E+00  0.00000000000E+00  0.12525980253E-10  0.17130000000E+03  0.17130000000E+03 0.  1.
       11    1    1    2    0    0 -0.18170655863E-02 -0.22982284127E-02  0.24079671111E+01  0.24079689476E+01  0.51109989000E-03 0.  1.
     -623    1    1    2    0    0  0.93943276825E-02  0.16468700373E-02  0.14586692938E-03  0.17130000027E+03  0.17130000000E+03 0.  1.
      622    1    1    2    0    0 -0.75772620962E-02  0.65135837535E-03  0.15918869894E+01  0.15920307868E+01  0.20000000000E-01 0.  1.
</event>
<event>
 5   0  0.3603037E+08  0.9118800E+02  0.7818608E-02  0.1180000E+00
       11   -1    0    0    0    0  0.00000000000E+00  0.00000000000E+00  0.39999999673E+01  0.40000000000E+01  0.51109989000E-03 0.  1.
     -623   -1    0    0    0    0  0.00000000000E+00  0.00000000000E+00  0.12525980253E-10  0.17130000000E+03  0.17130000000E+03 0. -1.
       11    1    1    2    0    0  0.37912903510E-02 -0.22955497412E-03  0.74198942335E-01  0.74297852210E-01  0.51109989000E-03 0.  1.
     -623    1    1    2    0    0 -0.23979401406E-03  0.23252336286E-05  0.15143717780E-03  0.17130000000E+03  0.17130000000E+03 0. -1.
      622    1    1    2    0    0 -0.35514963369E-02  0.22722974049E-03  0.39256495878E+01  0.39257021476E+01  0.20000000000E-01 0.  1.
</event>
<event>
 5   0  0.3603037E+08  0.9118800E+02  0.7818608E-02  0.1180000E+00
       11   -1    0    0    0    0  0.00000000000E+00  0.00000000000E+00  0.39999999673E+01  0.40000000000E+01  0.51109989000E-03 0.  1.
     -623   -1    0    0    0    0  0.00000000000E+00  0.00000000000E+00  0.12525980253E-10  0.17130000000E+03  0.17130000000E+03 0. -1.
       11    1    1    2    0    0 -0.20718775024E-02 -0.81650829040E-03  0.19348972020E-01  0.19483410932E-01  0.51109989000E-03 0.  1.
     -623    1    1    2    0    0  0.28128445331E-03 -0.16223214752E-03  0.18517480511E-03  0.17130000000E+03  0.17130000000E+03 0. -1.
      622    1    1    2    0    0  0.17905930491E-02  0.97874043792E-03  0.39804658205E+01  0.39805165887E+01  0.20000000000E-01 0.  1.
</event>
<event>
 5   0  0.3603037E+08  0.9118800E+02  0.7818608E-02  0.1180000E+00
       11   -1    0    0    0    0  0.00000000000E+00  0.00000000000E+00  0.39999999673E+01  0.40000000000E+01  0.51109989000E-03 0.  1.
     -623   -1    0    0    0    0  0.00000000000E+00  0.00000000000E+00  0.12525980253E-10  0.17130000000E+03  0.17130000000E+03 0. -1.
       11    1    1    2    0    0  0.11016830087E-02  0.35172744656E-02  0.25565244148E+00  0.25567952006E+00  0.51109989000E-03 0.  1.
     -623    1    1    2    0    0  0.56678759876E-04  0.32440029625E-03  0.82610883364E-04  0.17130000000E+03  0.17130000000E+03 0. -1.
      622    1    1    2    0    0 -0.11583617686E-02 -0.38416747619E-02  0.37442649150E+01  0.37443204796E+01  0.20000000000E-01 0.  0.
</event>
<event>
 5   0  0.3603037E+08  0.9118800E+02  0.7818608E-02  0.1180000E+00
       11   -1    0    0    0    0  0.00000000000E+00  0.00000000000E+00  0.39999999673E+01  0.40000000000E+01  0.51109989000E-03 0. -1.
     -623   -1    0    0    0    0  0.00000000000E+00  0.00000000000E+00  0.12525980253E-10  0.17130000000E+03  0.17130000000E+03 0.  1.
       11    1    1    2    0    0  0.68092144843E-02  0.29306000828E-02  0.18038960413E+00  0.18054258312E+00  0.51109989000E-03 0. -1.
     -623    1    1    2    0    0 -0.32294598140E-02 -0.64954043772E-02  0.20880504318E-03  0.17130000015E+03  0.17130000000E+03 0.  1.
      622    1    1    2    0    0 -0.35797546703E-02  0.35648042945E-02  0.38194015582E+01  0.38194572632E+01  0.20000000000E-01 0. -1.
</event>
<event>
 5   0  0.3603037E+08  0.9118800E+02  0.7818608E-02  0.1180000E+00
       11   -1    0    0    0    0  0.00000000000E+00  0.00000000000E+00  0.39999999673E+01  0.40000000000E+01  0.51109989000E-03 0. -1.
     -623   -1    0    0    0    0  0.00000000000E+00  0.00000000000E+00  0.12525980253E-10  0.17130000000E+03  0.17130000000E+03 0. -1.
       11    1    1    2    0    0  0.32218734174E-02 -0.14439247034E-02  0.26027466906E+00  0.26029911632E+00  0.51109989000E-03 0. -1.
     -623    1    1    2    0    0  0.70293165717E-03  0.21668208212E-02  0.80039825297E-04  0.17130000002E+03  0.17130000000E+03 0. -1.
      622    1    1    2    0    0 -0.39248050746E-02 -0.72289611785E-03  0.37396452585E+01  0.37397008685E+01  0.20000000000E-01 0. -1.
</event>
<event>
 5   0  0.3603037E+08  0.9118800E+02  0.7818608E-02  0.1180000E+00
       11   -1    0    0    0    0  0.00000000000E+00  0.00000000000E+00  0.39999999673E+01  0.40000000000E+01  0.51109989000E-03 0. -1.
     -623   -1    0    0    0    0  0.00000000000E+00  0.00000000000E+00  0.12525980253E-10  0.17130000000E+03  0.17130000000E+03 0.  1.
       11    1    1    2    0    0  0.23919241321E-02 -0.70204307642E-02  0.33952036204E+01  0.33952117597E+01  0.51109989000E-03 0. -1.
     -623    1    1    2    0    0 -0.12136598295E-02 -0.27478415329E-03  0.38406945766E-03  0.17130000000E+03  0.17130000000E+03 0.  1.
      622    1    1    2    0    0 -0.11782643026E-02  0.72952149175E-02  0.60441227750E+00  0.60478823539E+00  0.20000000000E-01 0. -1.
</event>
<event>
 5   0  0.3603037E+08  0.9118800E+02  0.7818608E-02  0.1180000E+00
       11   -1    0    0    0    0  0.00000000000E+00  0.00000000000E+00  0.39999999673E+01  0.40000000000E+01  0.51109989000E-03 0. -1.
     -623   -1    0    0    0    0  0.00000000000E+00  0.00000000000E+00  0.12525980253E-10  0.17130000000E+03  0.17130000000E+03 0.  1.
       11    1    1    2    0    0 -0.82996508605E-02 -0.15480079161E-01  0.14840885029E+01  0.14841925289E+01  0.51109989000E-03 0. -1.
     -623    1    1    2    0    0 -0.26837323572E-02  0.30103571571E-02  0.23842062534E-03  0.17130000005E+03  0.17130000000E+03 0.  1.
      622    1    1    2    0    0  0.10983383218E-01  0.12469722004E-01  0.25156730438E+01  0.25158074235E+01  0.20000000000E-01 0. -1.
</event>
<event>
 5   0  0.3603037E+08  0.9118800E+02  0.7818608E-02  0.1180000E+00
       11   -1    0    0    0    0  0.00000000000E+00  0.00000000000E+00  0.39999999673E+01  0.40000000000E+01  0.51109989000E-03 0.  1.
     -623   -1    0    0    0    0  0.00000000000E+00  0.00000000000E+00  0.12525980253E-10  0.17130000000E+03  0.17130000000E+03 0. -1.
       11    1    1    2    0    0 -0.93028142148E-03 -0.35761353349E-02  0.35517362377E-01  0.35712720700E-01  0.51109989000E-03 0.  1.
     -623    1    1    2    0    0 -0.18585051638E-03  0.31727662747E-03  0.24727362827E-03  0.17130000000E+03  0.17130000000E+03 0. -1.
      622    1    1    2    0    0  0.11161319379E-02  0.32588587074E-02  0.39642353314E+01  0.39642872787E+01  0.20000000000E-01 0.  1.
</event>
<event>
 5   0  0.3603037E+08  0.9118800E+02  0.7818608E-02  0.1180000E+00
       11   -1    0    0    0    0  0.00000000000E+00  0.00000000000E+00  0.39999999673E+01  0.40000000000E+01  0.51109989000E-03 0. -1.
     -623   -1    0    0    0    0  0.00000000000E+00  0.00000000000E+00  0.12525980253E-10  0.17130000000E+03  0.17130000000E+03 0.  1.
       11    1    1    2    0    0 -0.12651156351E-02  0.14713533566E-03  0.14652774535E+00  0.14653417194E+00  0.51109989000E-03 0. -1.
     -623    1    1    2    0    0 -0.21403195767E-03  0.28259187990E-03  0.58603852366E-04  0.17130000000E+03  0.17130000000E+03 0.  1.
      622    1    1    2    0    0  0.14791475928E-02 -0.42972721556E-03  0.38534136182E+01  0.38534658277E+01  0.20000000000E-01 0. -1.
</event>
<event>
 5   0  0.3603037E+08  0.9118800E+02  0.7818608E-02  0.1180000E+00
       11   -1    0    0    0    0  0.00000000000E+00  0.00000000000E+00  0.39999999673E+01  0.40000000000E+01  0.51109989000E-03 0. -1.
     -623   -1    0    0    0    0  0.00000000000E+00  0.00000000000E+00  0.12525980253E-10  0.17130000000E+03  0.17130000000E+03 0. -1.
       11    1    1    2    0    0 -0.12939194008E-01 -0.14292563520E-02  0.55090184702E-01  0.56609673975E-01  0.51109989000E-03 0. -1.
     -623    1    1    2    0    0  0.16481796242E-01  0.10361787924E-01  0.15829967500E-02  0.17130000111E+03  0.17130000000E+03 0. -1.
      622    1    1    2    0    0 -0.35426022337E-02 -0.89325315725E-02  0.39433267859E+01  0.39433892124E+01  0.20000000000E-01 0. -1.
</event>
<event>
 5   0  0.3603037E+08  0.9118800E+02  0.7818608E-02  0.1180000E+00
       11   -1    0    0    0    0  0.00000000000E+00  0.00000000000E+00  0.39999999673E+01  0.40000000000E+01  0.51109989000E-03 0.  1.
     -623   -1    0    0    0    0  0.00000000000E+00  0.00000000000E+00  0.12525980253E-10  0.17130000000E+03  0.17130000000E+03 0. -1.
       11    1    1    2    0    0 -0.21999102506E-01  0.20927153627E-03  0.26442627038E+00  0.26534038139E+00  0.51109989000E-03 0.  1.
     -623    1    1    2    0    0 -0.25965983286E-02 -0.94651248132E-02  0.10603789061E-02  0.17130000028E+03  0.17130000000E+03 0. -1.
      622    1    1    2    0    0  0.24595700835E-01  0.92558532770E-02  0.37345133181E+01  0.37346593342E+01  0.20000000000E-01 0.  1.
</event>
<event>
 5   0  0.3603037E+08  0.9118800E+02  0.7818608E-02  0.1180000E+00
       11   -1    0    0    0    0  0.00000000000E+00  0.00000000000E+00  0.39999999673E+01  0.40000000000E+01  0.51109989000E-03 0.  1.
     -623   -1    0    0    0    0  0.00000000000E+00  0.00000000000E+00  0.12525980253E-10  0.17130000000E+03  0.17130000000E+03 0.  1.
       11    1    1    2    0    0  0.46287099250E-02  0.19270511719E-02  0.91301801047E+00  0.91303192012E+00  0.51109989000E-03 0.  1.
     -623    1    1    2    0    0 -0.18515258843E-03 -0.15236186954E-03  0.82374727032E-04  0.17130000000E+03  0.17130000000E+03 0.  1.
      622    1    1    2    0    0 -0.44435573365E-02 -0.17746893023E-02  0.30868995822E+01  0.30869680797E+01  0.20000000000E-01 0.  0.
</event>
<event>
 5   0  0.3603037E+08  0.9118800E+02  0.7818608E-02  0.1180000E+00
       11   -1    0    0    0    0  0.00000000000E+00  0.00000000000E+00  0.39999999673E+01  0.40000000000E+01  0.51109989000E-03 0.  1.
     -623   -1    0    0    0    0  0.00000000000E+00  0.00000000000E+00  0.12525980253E-10  0.17130000000E+03  0.17130000000E+03 0.  1.
       11    1    1    2    0    0 -0.61030343175E-02 -0.72268823960E-02  0.14910626962E+01  0.14910927872E+01  0.51109989000E-03 0.  1.
     -623    1    1    2    0    0  0.40775745572E-02 -0.87286179924E-02  0.16160121402E-03  0.17130000027E+03  0.17130000000E+03 0.  1.
      622    1    1    2    0    0  0.20254597603E-02  0.15955500388E-01  0.25087756699E+01  0.25089069418E+01  0.20000000000E-01 0.  0.
</event>
<event>
 5   0  0.3603037E+08  0.9118800E+02  0.7818608E-02  0.1180000E+00
       11   -1    0    0    0    0  0.00000000000E+00  0.00000000000E+00  0.39999999673E+01  0.40000000000E+01  0.51109989000E-03 0. -1.
     -623   -1    0    0    0    0  0.00000000000E+00  0.00000000000E+00  0.12525980253E-10  0.17130000000E+03  0.17130000000E+03 0.  1.
       11    1    1    2    0    0 -0.36470558101E-02  0.56660641408E-03  0.29982303252E-01  0.30212940760E-01  0.51109989000E-03 0. -1.
     -623    1    1    2    0    0  0.30301618743E-02 -0.31298605733E-02  0.28191682726E-03  0.17130000006E+03  0.17130000000E+03 0.  1.
      622    1    1    2    0    0  0.61689393580E-03  0.25632541592E-02  0.39697357473E+01  0.39697870036E+01  0.20000000000E-01 0. -1.
</event>
<event>
 5   0  0.3603037E+08  0.9118800E+02  0.7818608E-02  0.1180000E+00
       11   -1    0    0    0    0  0.00000000000E+00  0.00000000000E+00  0.39999999673E+01  0.40000000000E+01  0.51109989000E-03 0. -1.
     -623   -1    0    0    0    0  0.00000000000E+00  0.00000000000E+00  0.12525980253E-10  0.17130000000E+03  0.17130000000E+03 0. -1.
       11    1    1    2    0    0 -0.40748028465E-02 -0.17726344791E-01  0.10744936853E+00  0.10897915093E+00  0.51109989000E-03 0. -1.
     -623    1    1    2    0    0  0.36915278192E-02  0.20428215380E-01  0.15833726375E-02  0.17130000127E+03  0.17130000000E+03 0. -1.
      622    1    1    2    0    0  0.38327502721E-03 -0.27018705894E-02  0.38909672262E+01  0.38910195839E+01  0.20000000000E-01 0. -1.
</event>
<event>
 5   0  0.3603037E+08  0.9118800E+02  0.7818608E-02  0.1180000E+00
       11   -1    0    0    0    0  0.00000000000E+00  0.00000000000E+00  0.39999999673E+01  0.40000000000E+01  0.51109989000E-03 0. -1.
     -623   -1    0    0    0    0  0.00000000000E+00  0.00000000000E+00  0.12525980253E-10  0.17130000000E+03  0.17130000000E+03 0.  1.
       11    1    1    2    0    0  0.57579898280E-03  0.15404512412E-03  0.12433161562E+00  0.12433409484E+00  0.51109989000E-03 0. -1.
     -623    1    1    2    0    0 -0.88475675415E-03 -0.24195135352E-02  0.54744785947E-04  0.17130000002E+03  0.17130000000E+03 0.  1.
      622    1    1    2    0    0  0.30895777136E-03  0.22654684110E-02  0.38756136070E+01  0.38756658858E+01  0.20000000000E-01 0. -1.
</event>
<event>
 5   0  0.3603037E+08  0.9118800E+02  0.7818608E-02  0.1180000E+00
       11   -1    0    0    0    0  0.00000000000E+00  0.00000000000E+00  0.39999999673E+01  0.40000000000E+01  0.51109989000E-03 0. -1.
     -623   -1    0    0    0    0  0.00000000000E+00  0.00000000000E+00  0.12525980253E-10  0.17130000000E+03  0.17130000000E+03 0.  1.
       11    1    1    2    0    0  0.29176571405E-02  0.10736198512E-01  0.71983665778E+00  0.71992281099E+00  0.51109989000E-03 0. -1.
     -623    1    1    2    0    0 -0.93814771419E-02 -0.66118133259E-02  0.15644197801E-03  0.17130000038E+03  0.17130000000E+03 0.  1.
      622    1    1    2    0    0  0.64638200014E-02 -0.41243851862E-02  0.32800068676E+01  0.32800768044E+01  0.20000000000E-01 0. -1.
</event>
<event>
 5   0  0.3603037E+08  0.9118800E+02  0.7818608E-02  0.1180000E+00
       11   -1    0    0    0    0  0.00000000000E+00  0.00000000000E+00  0.39999999673E+01  0.40000000000E+01  0.51109989000E-03 0.  1.
     -623   -1    0    0    0    0  0.00000000000E+00  0.00000000000E+00  0.12525980253E-10  0.17130000000E+03  0.17130000000E+03 0.  1.
       11    1    1    2    0    0 -0.55832046293E-02  0.57248236854E-03  0.12112230224E+01  0.12112361335E+01  0.51109989000E-03 0.  1.
     -623    1    1    2    0    0  0.24220991545E-02  0.15157365026E-02  0.87393082131E-04  0.17130000002E+03  0.17130000000E+03 0.  1.
      622    1    1    2    0    0  0.31611054747E-02 -0.20882188712E-02  0.27886895519E+01  0.27887638427E+01  0.20000000000E-01 0.  1.
</event>
<event>
 5   0  0.3603037E+08  0.9118800E+02  0.7818608E-02  0.1180000E+00
       11   -1    0    0    0    0  0.00000000000E+00  0.00000000000E+00  0.39999999673E+01  0.40000000000E+01  0.51109989000E-03 0.  1.
     -623   -1    0    0    0    0  0.00000000000E+00  0.00000000000E+00  0.12525980253E-10  0.17130000000E+03  0.17130000000E+03 0.  1.
       11    1    1    2    0    0 -0.88664220069E-03  0.12039010528E-02  0.29131549991E-01  0.29174371250E-01  0.51109989000E-03 0.  1.
     -623    1    1    2    0    0 -0.20155773881E-03 -0.19717866060E-03  0.93433285355E-04  0.17130000000E+03  0.17130000000E+03 0.  1.
      622    1    1    2    0    0  0.10881999395E-02 -0.10067223921E-02  0.39707749841E+01  0.39708256285E+01  0.20000000000E-01 0.  1.
</event>
<event>
 5   0  0.3603037E+08  0.9118800E+02  0.7818608E-02  0.1180000E+00
       11   -1    0    0    0    0  0.00000000000E+00  0.00000000000E+00  0.39999999673E+01  0.40000000000E+01  0.51109989000E-03 0. -1.
     -623   -1    0    0    0    0  0.00000000000E+00  0.00000000000E+00  0.12525980253E-10  0.17130000000E+03  0.17130000000E+03 0. -1.
       11    1    1    2    0    0 -0.21692734854E-03  0.35670879716E-04  0.24927555862E-01  0.24933764090E-01  0.51109989000E-03 0. -1.
     -623    1    1    2    0    0  0.28635001222E-02  0.41508719729E-02  0.59649479927E-04  0.17130000007E+03  0.17130000000E+03 0. -1.
      622    1    1    2    0    0 -0.26465727737E-02 -0.41865428526E-02  0.39750127620E+01  0.39750661617E+01  0.20000000000E-01 0.  0.
</event>
<event>
 5   0  0.3603037E+08  0.9118800E+02  0.7818608E-02  0.1180000E+00
       11   -1    0    0    0    0  0.00000000000E+00  0.00000000000E+00  0.39999999673E+01  0.40000000000E+01  0.51109989000E-03 0.  1.
     -623   -1    0    0    0    0  0.00000000000E+00  0.00000000000E+00  0.12525980253E-10  0.17130000000E+03  0.17130000000E+03 0. -1.
       11    1    1    2    0    0 -0.55593556072E-03 -0.72674661935E-03  0.29312560407E-01  0.29331291192E-01  0.51109989000E-03 0.  1.
     -623    1    1    2    0    0  0.33116319110E-03  0.11039655296E-02  0.69095985193E-04  0.17130000000E+03  0.17130000000E+03 0. -1.
      622    1    1    2    0    0  0.22477236962E-03 -0.37721891021E-03  0.39706183110E+01  0.39706687049E+01  0.20000000000E-01 0.  1.
</event>
<event>
 5   0  0.3603037E+08  0.9118800E+02  0.7818608E-02  0.1180000E+00
       11   -1    0    0    0    0  0.00000000000E+00  0.00000000000E+00  0.39999999673E+01  0.40000000000E+01  0.51109989000E-03 0.  1.
     -623   -1    0    0    0    0  0.00000000000E+00  0.00000000000E+00  0.12525980253E-10  0.17130000000E+03  0.17130000000E+03 0.  1.
       11    1    1    2    0    0 -0.80181001458E-02  0.24053360912E-03  0.68167046467E+00  0.68171785323E+00  0.51109989000E-03 0.  1.
     -623    1    1    2    0    0 -0.33670934659E-03 -0.68371609717E-03  0.11817807479E-03  0.17130000000E+03  0.17130000000E+03 0.  1.
      622    1    1    2    0    0  0.83548094924E-02  0.44318248805E-03  0.33182113246E+01  0.33182821450E+01  0.20000000000E-01 0.  1.
</event>
<event>
 5   0  0.3603037E+08  0.9118800E+02  0.7818608E-02  0.1180000E+00
       11   -1    0    0    0    0  0.00000000000E+00  0.00000000000E+00  0.39999999673E+01  0.40000000000E+01  0.51109989000E-03 0.  1.
     -623   -1    0    0    0    0  0.00000000000E+00  0.00000000000E+00  0.12525980253E-10  0.17130000000E+03  0.17130000000E+03 0. -1.
       11    1    1    2    0    0 -0.66647829619E-03 -0.79233083987E-03  0.21612238440E+00  0.21612546874E+00  0.51109989000E-03 0.  1.
     -623    1    1    2    0    0  0.14854145728E-02 -0.56397465421E-03  0.56247032187E-04  0.17130000001E+03  0.17130000000E+03 0. -1.
      622    1    1    2    0    0 -0.81893627662E-03  0.13563054941E-02  0.37838213359E+01  0.37838745239E+01  0.20000000000E-01 0.  1.
</event>
<event>
 5   0  0.3603037E+08  0.9118800E+02  0.7818608E-02  0.1180000E+00
       11   -1    0    0    0    0  0.00000000000E+00  0.00000000000E+00  0.39999999673E+01  0.40000000000E+01  0.51109989000E-03 0.  1.
     -623   -1    0    0    0    0  0.00000000000E+00  0.00000000000E+00  0.12525980253E-10  0.17130000000E+03  0.17130000000E+03 0. -1.
       11    1    1    2    0    0  0.17229031862E-01 -0.17384827188E-01  0.27293221648E+01  0.27294319578E+01  0.51109989000E-03 0.  1.
     -623    1    1    2    0    0 -0.14158888859E-01  0.26240621175E-02  0.35725052278E-03  0.17130000061E+03  0.17130000000E+03 0. -1.
      622    1    1    2    0    0 -0.30701430024E-02  0.14760765071E-01  0.12703205521E+01  0.12705674366E+01  0.20000000000E-01 0. -1.
</event>
<event>
 5   0  0.3603037E+08  0.9118800E+02  0.7818608E-02  0.1180000E+00
       11   -1    0    0    0    0  0.00000000000E+00  0.00000000000E+00  0.39999999673E+01  0.40000000000E+01  0.51109989000E-03 0. -1.
     -623   -1    0    0    0    0  0.00000000000E+00  0.00000000000E+00  0.12525980253E-10  0.17130000000E+03  0.17130000000E+03 0.  1.
       11    1    1    2    0    0 -0.13788412644E-01  0.10261260885E-01  0.18733151647E+01  0.18733940806E+01  0.51109989000E-03 0. -1.
     -623    1    1    2    0    0  0.37649095819E-02 -0.55553060264E-02  0.20189417110E-03  0.17130000013E+03  0.17130000000E+03 0.  1.
      622    1    1    2    0    0  0.10023503062E-01 -0.47059548583E-02  0.21264829085E+01  0.21266057879E+01  0.20000000000E-01 0.  0.
</event>
<event>
 5   0  0.3603037E+08  0.9118800E+02  0.7818608E-02  0.1180000E+00
       11   -1    0    0    0    0  0.00000000000E+00  0.00000000000E+00  0.39999999673E+01  0.40000000000E+01  0.51109989000E-03 0. -1.
     -623   -1    0    0    0    0  0.00000000000E+00  0.00000000000E+00  0.12525980253E-10  0.17130000000E+03  0.17130000000E+03 0.  1.
       11    1    1    2    0    0  0.15471750617E-02  0.31377399398E-02  0.50788277154E+00  0.50789507776E+00  0.51109989000E-03 0. -1.
     -623    1    1    2    0    0 -0.24222605031E-02  0.62200939667E-03  0.71697999905E-04  0.17130000002E+03  0.17130000000E+03 0.  1.
      622    1    1    2    0    0  0.87508544148E-03 -0.37597493365E-02  0.34920454978E+01  0.34921049040E+01  0.20000000000E-01 0. -1.
</event>
<event>
 5   0  0.3603037E+08  0.9118800E+02  0.7818608E-02  0.1180000E+00
       11   -1    0    0    0    0  0.00000000000E+00  0.00000000000E+00  0.39999999673E+01  0.40000000000E+01  0.51109989000E-03 0. -1.
     -623   -1    0    0    0    0  0.00000000000E+00  0.00000000000E+00  0.12525980253E-10  0.17130000000E+03  0.17130000000E+03 0.  1.
       11    1    1    2    0    0  0.43644418155E-04 -0.31230929409E-02  0.15626192054E-01  0.15943485019E-01  0.51109989000E-03 0. -1.
     -623    1    1    2    0    0  0.23450913337E-03 -0.13968247408E-03  0.36880711270E-03  0.17130000000E+03  0.17130000000E+03 0.  1.
      622    1    1    2    0    0 -0.27815355153E-03  0.32627754149E-02  0.39840049682E+01  0.39840565144E+01  0.20000000000E-01 0. -1.
</event>
<event>
 5   0  0.3603037E+08  0.9118800E+02  0.7818608E-02  0.1180000E+00
       11   -1    0    0    0    0  0.00000000000E+00  0.00000000000E+00  0.39999999673E+01  0.40000000000E+01  0.51109989000E-03 0. -1.
     -623   -1    0    0    0    0  0.00000000000E+00  0.00000000000E+00  0.12525980253E-10  0.17130000000E+03  0.17130000000E+03 0.  1.
       11    1    1    2    0    0 -0.91760190978E-02  0.82120767719E-02  0.19325682030E+00  0.19364941865E+00  0.51109989000E-03 0. -1.
     -623    1    1    2    0    0 -0.71449487825E-03  0.82725663542E-04  0.46700025110E-03  0.17130000000E+03  0.17130000000E+03 0.  1.
      622    1    1    2    0    0  0.98905139760E-02 -0.82948024354E-02  0.38062761468E+01  0.38063505792E+01  0.20000000000E-01 0. -1.
</event>
<event>
 5   0  0.3603037E+08  0.9118800E+02  0.7818608E-02  0.1180000E+00
       11   -1    0    0    0    0  0.00000000000E+00  0.00000000000E+00  0.39999999673E+01  0.40000000000E+01  0.51109989000E-03 0. -1.
     -623   -1    0    0    0    0  0.00000000000E+00  0.00000000000E+00  0.12525980253E-10  0.17130000000E+03  0.17130000000E+03 0.  1.
       11    1    1    2    0    0  0.12541029439E-02 -0.60562103424E-03  0.18163882145E-01  0.18224362463E-01  0.51109989000E-03 0. -1.
     -623    1    1    2    0    0  0.68318628210E-04  0.65199900108E-04  0.11093318198E-03  0.17130000000E+03  0.17130000000E+03 0.  1.
      622    1    1    2    0    0 -0.13224215721E-02  0.54042113413E-03  0.39817251520E+01  0.39817756375E+01  0.20000000000E-01 0. -1.
</event>
<event>
 5   0  0.3603037E+08  0.9118800E+02  0.7818608E-02  0.1180000E+00
       11   -1    0    0    0    0  0.00000000000E+00  0.00000000000E+00  0.39999999673E+01  0.40000000000E+01  0.51109989000E-03 0. -1.
     -623   -1    0    0    0    0  0.00000000000E+00  0.00000000000E+00  0.12525980253E-10  0.17130000000E+03  0.17130000000E+03 0. -1.
       11    1    1    2    0    0  0.12414590693E-02  0.23776192365E-02  0.52977548962E+00  0.52978252606E+00  0.51109989000E-03 0. -1.
     -623    1    1    2    0    0  0.35464920632E-03 -0.37162147169E-03  0.65585206838E-04  0.17130000000E+03  0.17130000000E+03 0. -1.
      622    1    1    2    0    0 -0.15961082757E-02 -0.20059977648E-02  0.34701588925E+01  0.34702174732E+01  0.20000000000E-01 0. -1.
</event>
<event>
 5   0  0.3603037E+08  0.9118800E+02  0.7818608E-02  0.1180000E+00
       11   -1    0    0    0    0  0.00000000000E+00  0.00000000000E+00  0.39999999673E+01  0.40000000000E+01  0.51109989000E-03 0.  1.
     -623   -1    0    0    0    0  0.00000000000E+00  0.00000000000E+00  0.12525980253E-10  0.17130000000E+03  0.17130000000E+03 0. -1.
       11    1    1    2    0    0  0.45542574631E-02 -0.25981275008E-01  0.18302939728E+01  0.18304841042E+01  0.51109989000E-03 0.  1.
     -623    1    1    2    0    0 -0.52518576765E-02  0.87152280916E-02  0.35141175913E-03  0.17130000030E+03  0.17130000000E+03 0. -1.
      622    1    1    2    0    0  0.69760021342E-03  0.17266046916E-01  0.21693545828E+01  0.21695155932E+01  0.20000000000E-01 0.  1.
</event>
<event>
 5   0  0.3603037E+08  0.9118800E+02  0.7818608E-02  0.1180000E+00
       11   -1    0    0    0    0  0.00000000000E+00  0.00000000000E+00  0.39999999673E+01  0.40000000000E+01  0.51109989000E-03 0.  1.
     -623   -1    0    0    0    0  0.00000000000E+00  0.00000000000E+00  0.12525980253E-10  0.17130000000E+03  0.17130000000E+03 0.  1.
       11    1    1    2    0    0  0.23754962130E-02  0.83628256031E-03  0.90405708719E-02  0.93986964553E-02  0.51109989000E-03 0.  1.
     -623    1    1    2    0    0 -0.25514391136E-02  0.16601509751E-02  0.40902329890E-03  0.17130000003E+03  0.17130000000E+03 0.  1.
      622    1    1    2    0    0  0.17594290066E-03 -0.24964335354E-02  0.39905503732E+01  0.39906012760E+01  0.20000000000E-01 0.  1.
</event>
<event>
 5   0  0.3603037E+08  0.9118800E+02  0.7818608E-02  0.1180000E+00
       11   -1    0    0    0    0  0.00000000000E+00  0.00000000000E+00  0.39999999673E+01  0.40000000000E+01  0.51109989000E-03 0. -1.
     -623   -1    0    0    0    0  0.00000000000E+00  0.00000000000E+00  0.12525980253E-10  0.17130000000E+03  0.17130000000E+03 0.  1.
       11    1    1    2    0    0 -0.55517228418E-02  0.58164776905E-02  0.99736264635E+00  0.99739518878E+00  0.51109989000E-03 0. -1.
     -623    1    1    2    0    0 -0.48256717464E-03 -0.38712079972E-03  0.11009300821E-03  0.17130000000E+03  0.17130000000E+03 0.  1.
      622    1    1    2    0    0  0.60342900164E-02 -0.54293568908E-02  0.30025272280E+01  0.30026048101E+01  0.20000000000E-01 0. -1.
</event>
<event>
 5   0  0.3603037E+08  0.9118800E+02  0.7818608E-02  0.1180000E+00
       11   -1    0    0    0    0  0.00000000000E+00  0.00000000000E+00  0.39999999673E+01  0.40000000000E+01  0.51109989000E-03 0. -1.
     -623   -1    0    0    0    0  0.00000000000E+00  0.00000000000E+00  0.12525980253E-10  0.17130000000E+03  0.17130000000E+03 0.  1.
       11    1    1    2    0    0  0.18032786191E-02  0.16374491728E-02  0.28274332087E+00  0.28275427455E+00  0.51109989000E-03 0. -1.
     -623    1    1    2    0    0  0.23825052430E-04  0.20225800388E-03  0.65629120464E-04  0.17130000000E+03  0.17130000000E+03 0.  1.
      622    1    1    2    0    0 -0.18271036715E-02 -0.18397071767E-02  0.37171910174E+01  0.37172457253E+01  0.20000000000E-01 0. -1.
</event>
<event>
 5   0  0.3603037E+08  0.9118800E+02  0.7818608E-02  0.1180000E+00
       11   -1    0    0    0    0  0.00000000000E+00  0.00000000000E+00  0.39999999673E+01  0.40000000000E+01  0.51109989000E-03 0. -1.
     -623   -1    0    0    0    0  0.00000000000E+00  0.00000000000E+00  0.12525980253E-10  0.17130000000E+03  0.17130000000E+03 0. -1.
       11    1    1    2    0    0 -0.57226850688E-03 -0.35884507245E-03  0.53877121206E-01  0.53883779308E-01  0.51109989000E-03 0. -1.
     -623    1    1    2    0    0  0.14412062727E-03  0.10041337362E-03  0.57340321096E-04  0.17130000000E+03  0.17130000000E+03 0. -1.
      622    1    1    2    0    0  0.42814787962E-03  0.25843169883E-03  0.39460655058E+01  0.39461162206E+01  0.20000000000E-01 0. -1.
</event>
<event>
 5   0  0.3603037E+08  0.9118800E+02  0.7818608E-02  0.1180000E+00
       11   -1    0    0    0    0  0.00000000000E+00  0.00000000000E+00  0.39999999673E+01  0.40000000000E+01  0.51109989000E-03 0. -1.
     -623   -1    0    0    0    0  0.00000000000E+00  0.00000000000E+00  0.12525980253E-10  0.17130000000E+03  0.17130000000E+03 0. -1.
       11    1    1    2    0    0 -0.17525416539E-02  0.80713091540E-03  0.10790034225E-01  0.10973099975E-01  0.51109989000E-03 0. -1.
     -623    1    1    2    0    0  0.14065081469E-02  0.12845756449E-02  0.23374514188E-03  0.17130000001E+03  0.17130000000E+03 0. -1.
      622    1    1    2    0    0  0.34603350696E-03 -0.20917065603E-02  0.39889761880E+01  0.39890268893E+01  0.20000000000E-01 0. -1.
</event>
<event>
 5   0  0.3603037E+08  0.9118800E+02  0.7818608E-02  0.1180000E+00
       11   -1    0    0    0    0  0.00000000000E+00  0.00000000000E+00  0.39999999673E+01  0.40000000000E+01  0.51109989000E-03 0.  1.
     -623   -1    0    0    0    0  0.00000000000E+00  0.00000000000E+00  0.12525980253E-10  0.17130000000E+03  0.17130000000E+03 0.  1.
       11    1    1    2    0    0  0.36374080194E-02  0.21741800189E-02  0.57109403195E-01  0.57268690843E-01  0.51109989000E-03 0.  1.
     -623    1    1    2    0    0  0.12904923821E-02 -0.13849478421E-02  0.21315083322E-03  0.17130000001E+03  0.17130000000E+03 0.  1.
      622    1    1    2    0    0 -0.49279004016E-02 -0.78923217681E-03  0.39426774133E+01  0.39427312986E+01  0.20000000000E-01 0.  1.
</event>
<event>
 5   0  0.3603037E+08  0.9118800E+02  0.7818608E-02  0.1180000E+00
       11   -1    0    0    0    0  0.00000000000E+00  0.00000000000E+00  0.39999999673E+01  0.40000000000E+01  0.51109989000E-03 0.  1.
     -623   -1    0    0    0    0  0.00000000000E+00  0.00000000000E+00  0.12525980253E-10  0.17130000000E+03  0.17130000000E+03 0.  1.
       11    1    1    2    0    0  0.27349142829E-03 -0.30843920451E-02  0.73594873468E+00  0.73595542635E+00  0.51109989000E-03 0.  1.
     -623    1    1    2    0    0  0.17515597095E-02  0.29126180750E-02  0.68599721030E-04  0.17130000003E+03  0.17130000000E+03 0.  1.
      622    1    1    2    0    0 -0.20250511377E-02  0.17177397011E-03  0.32639826330E+01  0.32640445399E+01  0.20000000000E-01 0.  1.
</event>
<event>
 5   0  0.3603037E+08  0.9118800E+02  0.7818608E-02  0.1180000E+00
       11   -1    0    0    0    0  0.00000000000E+00  0.00000000000E+00  0.39999999673E+01  0.40000000000E+01  0.51109989000E-03 0.  1.
     -623   -1    0    0    0    0  0.00000000000E+00  0.00000000000E+00  0.12525980253E-10  0.17130000000E+03  0.17130000000E+03 0. -1.
       11    1    1    2    0    0  0.11343612183E-02  0.23476501688E-02  0.27076423672E-01  0.27206473055E-01  0.51109989000E-03 0. -1.
     -623    1    1    2    0    0  0.80717341370E-04  0.31322924655E-03  0.18143679894E-03  0.17130000000E+03  0.17130000000E+03 0. -1.
      622    1    1    2    0    0 -0.12150785597E-02 -0.26608794154E-02  0.39727421069E+01  0.39727935265E+01  0.20000000000E-01 0.  1.
</event>
<event>
 5   0  0.3603037E+08  0.9118800E+02  0.7818608E-02  0.1180000E+00
       11   -1    0    0    0    0  0.00000000000E+00  0.00000000000E+00  0.39999999673E+01  0.40000000000E+01  0.51109989000E-03 0. -1.
     -623   -1    0    0    0    0  0.00000000000E+00  0.00000000000E+00  0.12525980253E-10  0.17130000000E+03  0.17130000000E+03 0. -1.
       11    1    1    2    0    0 -0.54376350068E-02  0.26501898709E-02  0.21993807552E+00  0.22002183907E+00  0.51109989000E-03 0. -1.
     -623    1    1    2    0    0  0.89098444128E-03 -0.79883782208E-02  0.14333415567E-03  0.17130000019E+03  0.17130000000E+03 0. -1.
      622    1    1    2    0    0  0.45466505656E-02  0.53381883499E-02  0.37799185577E+01  0.37799779723E+01  0.20000000000E-01 0. -1.
</event>
<event>
 5   0  0.3603037E+08  0.9118800E+02  0.7818608E-02  0.1180000E+00
       11   -1    0    0    0    0  0.00000000000E+00  0.00000000000E+00  0.39999999673E+01  0.40000000000E+01  0.51109989000E-03 0.  1.
     -623   -1    0    0    0    0  0.00000000000E+00  0.00000000000E+00  0.12525980253E-10  0.17130000000E+03  0.17130000000E+03 0.  1.
       11    1    1    2    0    0  0.72370433537E-03 -0.14362986083E-01  0.15704477461E+00  0.15770269995E+00  0.51109989000E-03 0.  1.
     -623    1    1    2    0    0 -0.26316053448E-02 -0.69978792715E-02  0.76996188377E-03  0.17130000016E+03  0.17130000000E+03 0.  1.
      622    1    1    2    0    0  0.19079010094E-02  0.21360865354E-01  0.38421852309E+01  0.38422971352E+01  0.20000000000E-01 0.  1.
</event>
<event>
 5   0  0.3603037E+08  0.9118800E+02  0.7818608E-02  0.1180000E+00
       11   -1    0    0    0    0  0.00000000000E+00  0.00000000000E+00  0.39999999673E+01  0.40000000000E+01  0.51109989000E-03 0.  1.
     -623   -1    0    0    0    0  0.00000000000E+00  0.00000000000E+00  0.12525980253E-10  0.17130000000E+03  0.17130000000E+03 0.  1.
       11    1    1    2    0    0 -0.27056236942E-02 -0.17908374135E-02  0.82047796254E-01  0.82113516493E-01  0.51109989000E-03 0.  1.
     -623    1    1    2    0    0 -0.10394476949E-02  0.15641009734E-02  0.11854272263E-03  0.17130000001E+03  0.17130000000E+03 0.  1.
      622    1    1    2    0    0  0.37450713891E-02  0.22673644011E-03  0.39178336284E+01  0.39178864732E+01  0.20000000000E-01 0.  1.
</event>
<event>
 5   0  0.3603037E+08  0.9118800E+02  0.7818608E-02  0.1180000E+00
       11   -1    0    0    0    0  0.00000000000E+00  0.00000000000E+00  0.39999999673E+01  0.40000000000E+01  0.51109989000E-03 0.  1.
     -623   -1    0    0    0    0  0.00000000000E+00  0.00000000000E+00  0.12525980253E-10  0.17130000000E+03  0.17130000000E+03 0. -1.
       11    1    1    2    0    0  0.80829413131E-02 -0.25800316801E-02  0.13141102907E+01  0.13141377811E+01  0.51109989000E-03 0.  1.
     -623    1    1    2    0    0  0.72246787446E-03  0.36125847929E-03  0.11727565297E-03  0.17130000000E+03  0.17130000000E+03 0. -1.
      622    1    1    2    0    0 -0.88054091875E-02  0.22187732008E-02  0.26857724010E+01  0.26858622169E+01  0.20000000000E-01 0.  1.
</event>
<event>
 5   0  0.3603037E+08  0.9118800E+02  0.7818608E-02  0.1180000E+00
       11   -1    0    0    0    0  0.00000000000E+00  0.00000000000E+00  0.39999999673E+01  0.40000000000E+01  0.51109989000E-03 0.  1.
     -623   -1    0    0    0    0  0.00000000000E+00  0.00000000000E+00  0.12525980253E-10  0.17130000000E+03  0.17130000000E+03 0. -1.
       11    1    1    2    0    0  0.93473199200E-03 -0.49638402157E-03  0.34973988419E-01  0.34993730974E-01  0.51109989000E-03 0.  1.
     -623    1    1    2    0    0  0.13347375570E-03 -0.31171310446E-03  0.70378110741E-04  0.17130000000E+03  0.17130000000E+03 0. -1.
      622    1    1    2    0    0 -0.10682057477E-02  0.80809712603E-03  0.39649556008E+01  0.39650062687E+01  0.20000000000E-01 0.  1.
</event>
<event>
 5   0  0.3603037E+08  0.9118800E+02  0.7818608E-02  0.1180000E+00
       11   -1    0    0    0    0  0.00000000000E+00  0.00000000000E+00  0.39999999673E+01  0.40000000000E+01  0.51109989000E-03 0. -1.
     -623   -1    0    0    0    0  0.00000000000E+00  0.00000000000E+00  0.12525980253E-10  0.17130000000E+03  0.17130000000E+03 0.  1.
       11    1    1    2    0    0  0.46517234839E-02  0.63284912286E-02  0.19809434317E+00  0.19825064527E+00  0.51109989000E-03 0. -1.
     -623    1    1    2    0    0 -0.16445895577E-03 -0.98194943570E-03  0.21528802417E-03  0.17130000000E+03  0.17130000000E+03 0.  1.
      622    1    1    2    0    0 -0.44872645281E-02 -0.53465417929E-02  0.38016903362E+01  0.38017493517E+01  0.20000000000E-01 0. -1.
</event>
<event>
 5   0  0.3603037E+08  0.9118800E+02  0.7818608E-02  0.1180000E+00
       11   -1    0    0    0    0  0.00000000000E+00  0.00000000000E+00  0.39999999673E+01  0.40000000000E+01  0.51109989000E-03 0. -1.
     -623   -1    0    0    0    0  0.00000000000E+00  0.00000000000E+00  0.12525980253E-10  0.17130000000E+03  0.17130000000E+03 0. -1.
       11    1    1    2    0    0 -0.26825471614E-03 -0.84823961440E-03  0.32898418537E-02  0.34461212852E-02  0.51109989000E-03 0. -1.
     -623    1    1    2    0    0  0.23869911403E-02 -0.25188588453E-02  0.20830552631E-03  0.17130000004E+03  0.17130000000E+03 0. -1.
      622    1    1    2    0    0 -0.21187364242E-02  0.33670984597E-02  0.39965018200E+01  0.39965538434E+01  0.20000000000E-01 0. -1.
</event>
<event>
 5   0  0.3603037E+08  0.9118800E+02  0.7818608E-02  0.1180000E+00
       11   -1    0    0    0    0  0.00000000000E+00  0.00000000000E+00  0.39999999673E+01  0.40000000000E+01  0.51109989000E-03 0. -1.
     -623   -1    0    0    0    0  0.00000000000E+00  0.00000000000E+00  0.12525980253E-10  0.17130000000E+03  0.17130000000E+03 0.  1.
       11    1    1    2    0    0  0.34275768989E-03  0.30623747744E-02  0.26569081826E-01  0.26752064450E-01  0.51109989000E-03 0. -1.
     -623    1    1    2    0    0 -0.18385379666E-02  0.11260742135E-02  0.23578992245E-03  0.17130000001E+03  0.17130000000E+03 0.  1.
      622    1    1    2    0    0  0.14957802767E-02 -0.41884489879E-02  0.39731950956E+01  0.39732479218E+01  0.20000000000E-01 0. -1.
</event>
<event>
 5   0  0.3603037E+08  0.9118800E+02  0.7818608E-02  0.1180000E+00
       11   -1    0    0    0    0  0.00000000000E+00  0.00000000000E+00  0.39999999673E+01  0.40000000000E+01  0.51109989000E-03 0. -1.
     -623   -1    0    0    0    0  0.00000000000E+00  0.00000000000E+00  0.12525980253E-10  0.17130000000E+03  0.17130000000E+03 0.  1.
       11    1    1    2    0    0 -0.33874716350E-02  0.15336648434E-02  0.93489860681E+00  0.93490614146E+00  0.51109989000E-03 0. -1.
     -623    1    1    2    0    0  0.91531601915E-03  0.21616194690E-02  0.75994209230E-04  0.17130000002E+03  0.17130000000E+03 0.  1.
      622    1    1    2    0    0  0.24721556158E-02 -0.36952843123E-02  0.30650253663E+01  0.30650938424E+01  0.20000000000E-01 0. -1.
</event>
<event>
 5   0  0.3603037E+08  0.9118800E+02  0.7818608E-02  0.1180000E+00
       11   -1    0    0    0    0  0.00000000000E+00  0.00000000000E+00  0.39999999673E+01  0.40000000000E+01  0.51109989000E-03 0. -1.
     -623   -1    0    0    0    0  0.00000000000E+00  0.00000000000E+00  0.12525980253E-10  0.17130000000E+03  0.17130000000E+03 0.  1.
       11    1    1    2    0    0  0.29523016538E-03 -0.41926009745E-02  0.25530524321E+00  0.25534034835E+00  0.51109989000E-03 0. -1.
     -623    1    1    2    0    0  0.42413832459E-02 -0.14403437769E-02  0.95525709316E-04  0.17130000006E+03  0.17130000000E+03 0.  1.
      622    1    1    2    0    0 -0.45366134113E-02  0.56329447513E-02  0.37445991984E+01  0.37446595931E+01  0.20000000000E-01 0. -1.
</event>
<event>
 5   0  0.3603037E+08  0.9118800E+02  0.7818608E-02  0.1180000E+00
       11   -1    0    0    0    0  0.00000000000E+00  0.00000000000E+00  0.39999999673E+01  0.40000000000E+01  0.51109989000E-03 0. -1.
     -623   -1    0    0    0    0  0.00000000000E+00  0.00000000000E+00  0.12525980253E-10  0.17130000000E+03  0.17130000000E+03 0. -1.
       11    1    1    2    0    0  0.62941935822E-05  0.10295927878E-04  0.45639901515E-01  0.45642764800E-01  0.51109989000E-03 0. -1.
     -623    1    1    2    0    0 -0.14172725004E-02  0.55076362921E-03  0.53706380994E-04  0.17130000001E+03  0.17130000000E+03 0. -1.
      622    1    1    2    0    0  0.14109783068E-02 -0.56105955709E-03  0.39543063595E+01  0.39543572284E+01  0.20000000000E-01 0. -1.
</event>
<event>
 5   0  0.3603037E+08  0.9118800E+02  0.7818608E-02  0.1180000E+00
       11   -1    0    0    0    0  0.00000000000E+00  0.00000000000E+00  0.39999999673E+01  0.40000000000E+01  0.51109989000E-03 0. -1.
     -623   -1    0    0    0    0  0.00000000000E+00  0.00000000000E+00  0.12525980253E-10  0.17130000000E+03  0.17130000000E+03 0.  1.
       11    1    1    2    0    0  0.97772257106E-02  0.24286800438E-03  0.13406804842E+01  0.13407162545E+01  0.51109989000E-03 0. -1.
     -623    1    1    2    0    0 -0.26895802559E-02  0.47046617556E-03  0.12050986216E-03  0.17130000002E+03  0.17130000000E+03 0.  1.
      622    1    1    2    0    0 -0.70876454548E-02 -0.71333417995E-03  0.26591989733E+01  0.26592837237E+01  0.20000000000E-01 0.  0.
</event>
<event>
 5   0  0.3603037E+08  0.9118800E+02  0.7818608E-02  0.1180000E+00
       11   -1    0    0    0    0  0.00000000000E+00  0.00000000000E+00  0.39999999673E+01  0.40000000000E+01  0.51109989000E-03 0.  1.
     -623   -1    0    0    0    0  0.00000000000E+00  0.00000000000E+00  0.12525980253E-10  0.17130000000E+03  0.17130000000E+03 0. -1.
       11    1    1    2    0    0  0.49624079071E-02  0.31144835712E-01  0.44355441426E+00  0.44467449433E+00  0.51109989000E-03 0.  1.
     -623    1    1    2    0    0  0.15099265342E-01 -0.19724266399E-01  0.12530531119E-02  0.17130000181E+03  0.17130000000E+03 0. -1.
      622    1    1    2    0    0 -0.20061673249E-01 -0.11420569313E-01  0.35551925000E+01  0.35553237000E+01  0.20000000000E-01 0.  1.
</event>
<event>
 5   0  0.3603037E+08  0.9118800E+02  0.7818608E-02  0.1180000E+00
       11   -1    0    0    0    0  0.00000000000E+00  0.00000000000E+00  0.39999999673E+01  0.40000000000E+01  0.51109989000E-03 0. -1.
     -623   -1    0    0    0    0  0.00000000000E+00  0.00000000000E+00  0.12525980253E-10  0.17130000000E+03  0.17130000000E+03 0. -1.
       11    1    1    2    0    0  0.45132400307E-02  0.70274045660E-02  0.87509758135E+00  0.87513758453E+00  0.51109989000E-03 0. -1.
     -623    1    1    2    0    0 -0.85866356550E-03  0.41129065362E-03  0.11496784412E-03  0.17130000000E+03  0.17130000000E+03 0. -1.
      622    1    1    2    0    0 -0.36545764652E-02 -0.74386952196E-02  0.31247874182E+01  0.31248624128E+01  0.20000000000E-01 0. -1.
</event>
<event>
 5   0  0.3603037E+08  0.9118800E+02  0.7818608E-02  0.1180000E+00
       11   -1    0    0    0    0  0.00000000000E+00  0.00000000000E+00  0.39999999673E+01  0.40000000000E+01  0.51109989000E-03 0. -1.
     -623   -1    0    0    0    0  0.00000000000E+00  0.00000000000E+00  0.12525980253E-10  0.17130000000E+03  0.17130000000E+03 0.  1.
       11    1    1    2    0    0  0.53803727653E-02 -0.45121069609E-02  0.94853956511E+00  0.94856569373E+00  0.51109989000E-03 0. -1.
     -623    1    1    2    0    0 -0.28131895263E-02 -0.82070119766E-02  0.11944817536E-03  0.17130000022E+03  0.17130000000E+03 0.  1.
      622    1    1    2    0    0 -0.25671832390E-02  0.12719118938E-01  0.30513409541E+01  0.30514340865E+01  0.20000000000E-01 0.  0.
</event>
<event>
 5   0  0.3603037E+08  0.9118800E+02  0.7818608E-02  0.1180000E+00
       11   -1    0    0    0    0  0.00000000000E+00  0.00000000000E+00  0.39999999673E+01  0.40000000000E+01  0.51109989000E-03 0.  1.
     -623   -1    0    0    0    0  0.00000000000E+00  0.00000000000E+00  0.12525980253E-10  0.17130000000E+03  0.17130000000E+03 0. -1.
       11    1    1    2    0    0  0.46468647103E-02  0.12185448448E-01  0.52095150800E-01  0.53705162358E-01  0.51109989000E-03 0.  1.
     -623    1    1    2    0    0  0.28510979754E-02  0.19630426485E-02  0.16931896618E-02  0.17130000004E+03  0.17130000000E+03 0. -1.
      622    1    1    2    0    0 -0.74979626857E-02 -0.14148491097E-01  0.39462116269E+01  0.39462947943E+01  0.20000000000E-01 0.  1.
</event>
<event>
 5   0  0.3603037E+08  0.9118800E+02  0.7818608E-02  0.1180000E+00
       11   -1    0    0    0    0  0.00000000000E+00  0.00000000000E+00  0.39999999673E+01  0.40000000000E+01  0.51109989000E-03 0. -1.
     -623   -1    0    0    0    0  0.00000000000E+00  0.00000000000E+00  0.12525980253E-10  0.17130000000E+03  0.17130000000E+03 0. -1.
       11    1    1    2    0    0  0.61869862060E-03 -0.38302478469E-03  0.13151494936E-01  0.13181522568E-01  0.51109989000E-03 0. -1.
     -623    1    1    2    0    0 -0.44065171758E-03 -0.10980616826E-03  0.80195679591E-04  0.17130000000E+03  0.17130000000E+03 0. -1.
      622    1    1    2    0    0 -0.17804690302E-03  0.49283095295E-03  0.39867682767E+01  0.39868184768E+01  0.20000000000E-01 0. -1.
</event>
<event>
 5   0  0.3603037E+08  0.9118800E+02  0.7818608E-02  0.1180000E+00
       11   -1    0    0    0    0  0.00000000000E+00  0.00000000000E+00  0.39999999673E+01  0.40000000000E+01  0.51109989000E-03 0.  1.
     -623   -1    0    0    0    0  0.00000000000E+00  0.00000000000E+00  0.12525980253E-10  0.17130000000E+03  0.17130000000E+03 0.  1.
       11    1    1    2    0    0  0.10431291971E-02  0.65134559251E-02  0.39963644868E-01  0.40507620997E-01  0.51109989000E-03 0.  1.
     -623    1    1    2    0    0 -0.53576821538E-02 -0.96724779101E-02  0.59842421385E-03  0.17130000036E+03  0.17130000000E+03 0.  1.
      622    1    1    2    0    0  0.43145529567E-02  0.31590219850E-02  0.39594378983E+01  0.39594920211E+01  0.20000000000E-01 0.  1.
</event>
<event>
 5   0  0.3603037E+08  0.9118800E+02  0.7818608E-02  0.1180000E+00
       11   -1    0    0    0    0  0.00000000000E+00  0.00000000000E+00  0.39999999673E+01  0.40000000000E+01  0.51109989000E-03 0. -1.
     -623   -1    0    0    0    0  0.00000000000E+00  0.00000000000E+00  0.12525980253E-10  0.17130000000E+03  0.17130000000E+03 0. -1.
       11    1    1    2    0    0  0.58262783896E-03 -0.28913304187E-03  0.34692848332E-01  0.34702708835E-01  0.51109989000E-03 0. -1.
     -623    1    1    2    0    0  0.23725367618E-03  0.96253976412E-04  0.60355419568E-04  0.17130000000E+03  0.17130000000E+03 0. -1.
      622    1    1    2    0    0 -0.81988151514E-03  0.19287906545E-03  0.39652467636E+01  0.39652972910E+01  0.20000000000E-01 0. -1.
</event>
<event>
 5   0  0.3603037E+08  0.9118800E+02  0.7818608E-02  0.1180000E+00
       11   -1    0    0    0    0  0.00000000000E+00  0.00000000000E+00  0.39999999673E+01  0.40000000000E+01  0.51109989000E-03 0.  1.
     -623   -1    0    0    0    0  0.00000000000E+00  0.00000000000E+00  0.12525980253E-10  0.17130000000E+03  0.17130000000E+03 0. -1.
       11    1    1    2    0    0  0.68781608404E-02 -0.15031273693E-02  0.15488470424E+01  0.15488631284E+01  0.51109989000E-03 0.  1.
     -623    1    1    2    0    0  0.78399196857E-04  0.16274912168E-03  0.10788815774E-03  0.17130000000E+03  0.17130000000E+03 0. -1.
      622    1    1    2    0    0 -0.69565600373E-02  0.13403782476E-02  0.24510450368E+01  0.24511368715E+01  0.20000000000E-01 0.  1.
</event>
<event>
 5   0  0.3603037E+08  0.9118800E+02  0.7818608E-02  0.1180000E+00
       11   -1    0    0    0    0  0.00000000000E+00  0.00000000000E+00  0.39999999673E+01  0.40000000000E+01  0.51109989000E-03 0.  1.
     -623   -1    0    0    0    0  0.00000000000E+00  0.00000000000E+00  0.12525980253E-10  0.17130000000E+03  0.17130000000E+03 0. -1.
       11    1    1    2    0    0 -0.49624191398E-02 -0.62008030031E-02  0.18325234665E+00  0.18342507826E+00  0.51109989000E-03 0.  1.
     -623    1    1    2    0    0 -0.57717354807E-04  0.39794781148E-03  0.23281613475E-03  0.17130000000E+03  0.17130000000E+03 0. -1.
      622    1    1    2    0    0  0.50201364946E-02  0.58028551917E-02  0.38165148046E+01  0.38165749211E+01  0.20000000000E-01 0.  1.
</event>
<event>
 5   0  0.3603037E+08  0.9118800E+02  0.7818608E-02  0.1180000E+00
       11   -1    0    0    0    0  0.00000000000E+00  0.00000000000E+00  0.39999999673E+01  0.40000000000E+01  0.51109989000E-03 0. -1.
     -623   -1    0    0    0    0  0.00000000000E+00  0.00000000000E+00  0.12525980253E-10  0.17130000000E+03  0.17130000000E+03 0.  1.
       11    1    1    2    0    0  0.13528400492E-02 -0.50332312649E-03  0.45274475321E-02  0.47793842424E-02  0.51109989000E-03 0. -1.
     -623    1    1    2    0    0 -0.79747578573E-03 -0.92150836069E-03  0.30226147449E-03  0.17130000000E+03  0.17130000000E+03 0.  1.
      622    1    1    2    0    0 -0.55536426350E-03  0.14248314872E-02  0.39951702584E+01  0.39952206112E+01  0.20000000000E-01 0. -1.
</event>
<event>
 5   0  0.3603037E+08  0.9118800E+02  0.7818608E-02  0.1180000E+00
       11   -1    0    0    0    0  0.00000000000E+00  0.00000000000E+00  0.39999999673E+01  0.40000000000E+01  0.51109989000E-03 0. -1.
     -623   -1    0    0    0    0  0.00000000000E+00  0.00000000000E+00  0.12525980253E-10  0.17130000000E+03  0.17130000000E+03 0. -1.
       11    1    1    2    0    0  0.17591664944E-02  0.48903508916E-03  0.16061453007E-01  0.16172981032E-01  0.51109989000E-03 0.  1.
     -623    1    1    2    0    0 -0.86877900306E-03 -0.35159416573E-04  0.16182632538E-03  0.17130000000E+03  0.17130000000E+03 0. -1.
      622    1    1    2    0    0 -0.89038749138E-03 -0.45387567259E-03  0.39837766880E+01  0.39838270167E+01  0.20000000000E-01 0. -1.
</event>
<event>
 5   0  0.3603037E+08  0.9118800E+02  0.7818608E-02  0.1180000E+00
       11   -1    0    0    0    0  0.00000000000E+00  0.00000000000E+00  0.39999999673E+01  0.40000000000E+01  0.51109989000E-03 0. -1.
     -623   -1    0    0    0    0  0.00000000000E+00  0.00000000000E+00  0.12525980253E-10  0.17130000000E+03  0.17130000000E+03 0. -1.
       11    1    1    2    0    0 -0.40255623671E-03  0.33087027326E-03  0.32253962992E-01  0.32262220586E-01  0.51109989000E-03 0. -1.
     -623    1    1    2    0    0 -0.89974794197E-04 -0.26515409125E-03  0.58663184959E-04  0.17130000000E+03  0.17130000000E+03 0. -1.
      622    1    1    2    0    0  0.49253103091E-03 -0.65716182013E-04  0.39676873412E+01  0.39677377792E+01  0.20000000000E-01 0. -1.
</event>
<event>
 5   0  0.3603037E+08  0.9118800E+02  0.7818608E-02  0.1180000E+00
       11   -1    0    0    0    0  0.00000000000E+00  0.00000000000E+00  0.39999999673E+01  0.40000000000E+01  0.51109989000E-03 0.  1.
     -623   -1    0    0    0    0  0.00000000000E+00  0.00000000000E+00  0.12525980253E-10  0.17130000000E+03  0.17130000000E+03 0. -1.
       11    1    1    2    0    0 -0.40078593665E-03  0.15530261159E-02  0.13314032959E-01  0.13420030338E-01  0.51109989000E-03 0.  1.
     -623    1    1    2    0    0  0.41701736888E-03  0.22083973939E-04  0.15644515195E-03  0.17130000000E+03  0.17130000000E+03 0. -1.
      622    1    1    2    0    0 -0.16231432237E-04 -0.15751100899E-02  0.39865294892E+01  0.39865799691E+01  0.20000000000E-01 0.  1.
</event>
<event>
 5   0  0.3603037E+08  0.9118800E+02  0.7818608E-02  0.1180000E+00
       11   -1    0    0    0    0  0.00000000000E+00  0.00000000000E+00  0.39999999673E+01  0.40000000000E+01  0.51109989000E-03 0. -1.
     -623   -1    0    0    0    0  0.00000000000E+00  0.00000000000E+00  0.12525980253E-10  0.17130000000E+03  0.17130000000E+03 0. -1.
       11    1    1    2    0    0 -0.79162643790E-03  0.31798586500E-02  0.39286683000E-01  0.39426423304E-01  0.51109989000E-03 0. -1.
     -623    1    1    2    0    0  0.14788647557E-02 -0.30242101194E-03  0.19131737712E-03  0.17130000001E+03  0.17130000000E+03 0. -1.
      622    1    1    2    0    0 -0.68723831781E-03 -0.28774376381E-02  0.39605219670E+01  0.39605735699E+01  0.20000000000E-01 0. -1.
</event>
<event>
 5   0  0.3603037E+08  0.9118800E+02  0.7818608E-02  0.1180000E+00
       11   -1    0    0    0    0  0.00000000000E+00  0.00000000000E+00  0.39999999673E+01  0.40000000000E+01  0.51109989000E-03 0. -1.
     -623   -1    0    0    0    0  0.00000000000E+00  0.00000000000E+00  0.12525980253E-10  0.17130000000E+03  0.17130000000E+03 0. -1.
       11    1    1    2    0    0 -0.34652643164E-03  0.81343619340E-04  0.13807945702E+00  0.13808086171E+00  0.51109989000E-03 0. -1.
     -623    1    1    2    0    0 -0.65794047471E-04 -0.15224046958E-04  0.53182718488E-04  0.17130000000E+03  0.17130000000E+03 0. -1.
      622    1    1    2    0    0  0.41232047911E-03 -0.66119572382E-04  0.38618673276E+01  0.38619191383E+01  0.20000000000E-01 0. -1.
</event>
<event>
 5   0  0.3603037E+08  0.9118800E+02  0.7818608E-02  0.1180000E+00
       11   -1    0    0    0    0  0.00000000000E+00  0.00000000000E+00  0.39999999673E+01  0.40000000000E+01  0.51109989000E-03 0. -1.
     -623   -1    0    0    0    0  0.00000000000E+00  0.00000000000E+00  0.12525980253E-10  0.17130000000E+03  0.17130000000E+03 0.  1.
       11    1    1    2    0    0 -0.48540448135E-03  0.47778988959E-03  0.29809574726E-01  0.29821734803E-01  0.51109989000E-03 0. -1.
     -623    1    1    2    0    0 -0.88758268354E-04 -0.18841746641E-04  0.62571409717E-04  0.17130000000E+03  0.17130000000E+03 0.  1.
      622    1    1    2    0    0  0.57416274970E-03 -0.45894814295E-03  0.39701278212E+01  0.39701782652E+01  0.20000000000E-01 0. -1.
</event>
<event>
 5   0  0.3603037E+08  0.9118800E+02  0.7818608E-02  0.1180000E+00
       11   -1    0    0    0    0  0.00000000000E+00  0.00000000000E+00  0.39999999673E+01  0.40000000000E+01  0.51109989000E-03 0.  1.
     -623   -1    0    0    0    0  0.00000000000E+00  0.00000000000E+00  0.12525980253E-10  0.17130000000E+03  0.17130000000E+03 0.  1.
       11    1    1    2    0    0  0.14903538519E-01  0.14380633658E-01  0.28701354377E+01  0.28702102031E+01  0.51109989000E-03 0.  1.
     -623    1    1    2    0    0 -0.23906976297E-02  0.10763854152E-02  0.42686073480E-03  0.17130000002E+03  0.17130000000E+03 0.  1.
      622    1    1    2    0    0 -0.12512840889E-01 -0.15457019074E-01  0.11294376690E+01  0.11297897763E+01  0.20000000000E-01 0. -1.
</event>
<event>
 5   0  0.3603037E+08  0.9118800E+02  0.7818608E-02  0.1180000E+00
       11   -1    0    0    0    0  0.00000000000E+00  0.00000000000E+00  0.39999999673E+01  0.40000000000E+01  0.51109989000E-03 0.  1.
     -623   -1    0    0    0    0  0.00000000000E+00  0.00000000000E+00  0.12525980253E-10  0.17130000000E+03  0.17130000000E+03 0.  1.
       11    1    1    2    0    0  0.33573965482E-01  0.10636131020E-01  0.17847210406E+01  0.17850685680E+01  0.51109989000E-03 0.  1.
     -623    1    1    2    0    0 -0.90224419145E-02 -0.90988658303E-02  0.57488768473E-03  0.17130000048E+03  0.17130000000E+03 0.  1.
      622    1    1    2    0    0 -0.24551523568E-01 -0.15372651893E-02  0.22147040391E+01  0.22149309518E+01  0.20000000000E-01 0.  0.
</event>
<event>
 5   0  0.3603037E+08  0.9118800E+02  0.7818608E-02  0.1180000E+00
       11   -1    0    0    0    0  0.00000000000E+00  0.00000000000E+00  0.39999999673E+01  0.40000000000E+01  0.51109989000E-03 0. -1.
     -623   -1    0    0    0    0  0.00000000000E+00  0.00000000000E+00  0.12525980253E-10  0.17130000000E+03  0.17130000000E+03 0.  1.
       11    1    1    2    0    0 -0.19832147753E-02 -0.26264340600E-03  0.28176969701E+01  0.28176977266E+01  0.51109989000E-03 0. -1.
     -623    1    1    2    0    0  0.60859023735E-02 -0.71513116485E-02  0.20052371797E-03  0.17130000026E+03  0.17130000000E+03 0.  1.
      622    1    1    2    0    0 -0.41026875982E-02  0.74139550545E-02  0.11821024736E+01  0.11823020159E+01  0.20000000000E-01 0.  0.
</event>
<event>
 5   0  0.3603037E+08  0.9118800E+02  0.7818608E-02  0.1180000E+00
       11   -1    0    0    0    0  0.00000000000E+00  0.00000000000E+00  0.39999999673E+01  0.40000000000E+01  0.51109989000E-03 0. -1.
     -623   -1    0    0    0    0  0.00000000000E+00  0.00000000000E+00  0.12525980253E-10  0.17130000000E+03  0.17130000000E+03 0.  1.
       11    1    1    2    0    0  0.24874496902E-03 -0.70561482022E-03  0.23237576632E-01  0.23255235027E-01  0.51109989000E-03 0. -1.
     -623    1    1    2    0    0  0.61390925292E-03  0.13872038129E-02  0.68077170755E-04  0.17130000001E+03  0.17130000000E+03 0.  1.
      622    1    1    2    0    0 -0.86265422193E-03 -0.68158899272E-03  0.39766943136E+01  0.39767447582E+01  0.20000000000E-01 0. -1.
</event>
<event>
 5   0  0.3603037E+08  0.9118800E+02  0.7818608E-02  0.1180000E+00
       11   -1    0    0    0    0  0.00000000000E+00  0.00000000000E+00  0.39999999673E+01  0.40000000000E+01  0.51109989000E-03 0.  1.
     -623   -1    0    0    0    0  0.00000000000E+00  0.00000000000E+00  0.12525980253E-10  0.17130000000E+03  0.17130000000E+03 0. -1.
       11    1    1    2    0    0  0.13032290469E-01 -0.21605890597E-02  0.95606025393E+00  0.95615165068E+00  0.51109989000E-03 0.  1.
     -623    1    1    2    0    0 -0.16260828558E-02  0.23613477158E-02  0.17847359495E-03  0.17130000002E+03  0.17130000000E+03 0. -1.
      622    1    1    2    0    0 -0.11406207613E-01 -0.20075865613E-03  0.30437612398E+01  0.30438483252E+01  0.20000000000E-01 0.  1.
</event>
<event>
 5   0  0.3603037E+08  0.9118800E+02  0.7818608E-02  0.1180000E+00
       11   -1    0    0    0    0  0.00000000000E+00  0.00000000000E+00  0.39999999673E+01  0.40000000000E+01  0.51109989000E-03 0.  1.
     -623   -1    0    0    0    0  0.00000000000E+00  0.00000000000E+00  0.12525980253E-10  0.17130000000E+03  0.17130000000E+03 0. -1.
       11    1    1    2    0    0  0.51872802973E-02 -0.92456531396E-02  0.14244256181E+01  0.14244651602E+01  0.51109989000E-03 0.  1.
     -623    1    1    2    0    0 -0.20645242511E-03  0.48537309464E-03  0.13688054363E-03  0.17130000000E+03  0.17130000000E+03 0. -1.
      622    1    1    2    0    0 -0.49808278722E-02  0.87602800450E-02  0.25754374687E+01  0.25755348389E+01  0.20000000000E-01 0.  1.
</event>
<event>
 5   0  0.3603037E+08  0.9118800E+02  0.7818608E-02  0.1180000E+00
       11   -1    0    0    0    0  0.00000000000E+00  0.00000000000E+00  0.39999999673E+01  0.40000000000E+01  0.51109989000E-03 0. -1.
     -623   -1    0    0    0    0  0.00000000000E+00  0.00000000000E+00  0.12525980253E-10  0.17130000000E+03  0.17130000000E+03 0.  1.
       11    1    1    2    0    0  0.18389398101E-02 -0.82188399966E-03  0.69012343914E-01  0.69043624082E-01  0.51109989000E-03 0. -1.
     -623    1    1    2    0    0  0.32335827800E-02 -0.67291459943E-02  0.92814171743E-04  0.17130000016E+03  0.17130000000E+03 0.  1.
      622    1    1    2    0    0 -0.50725225901E-02  0.75510299940E-02  0.39308948093E+01  0.39309562132E+01  0.20000000000E-01 0. -1.
</event>
<event>
 5   0  0.3603037E+08  0.9118800E+02  0.7818608E-02  0.1180000E+00
       11   -1    0    0    0    0  0.00000000000E+00  0.00000000000E+00  0.39999999673E+01  0.40000000000E+01  0.51109989000E-03 0.  1.
     -623   -1    0    0    0    0  0.00000000000E+00  0.00000000000E+00  0.12525980253E-10  0.17130000000E+03  0.17130000000E+03 0.  1.
       11    1    1    2    0    0  0.11800833998E-01 -0.82275441237E-03  0.12101433547E+01  0.12102012795E+01  0.51109989000E-03 0.  1.
     -623    1    1    2    0    0 -0.61734551594E-04  0.73790193349E-03  0.15428476245E-03  0.17130000000E+03  0.17130000000E+03 0.  1.
      622    1    1    2    0    0 -0.11739099446E-01  0.84852478875E-04  0.27897023279E+01  0.27897987189E+01  0.20000000000E-01 0.  1.
</event>
<event>
 5   0  0.3603037E+08  0.9118800E+02  0.7818608E-02  0.1180000E+00
       11   -1    0    0    0    0  0.00000000000E+00  0.00000000000E+00  0.39999999673E+01  0.40000000000E+01  0.51109989000E-03 0.  1.
     -623   -1    0    0    0    0  0.00000000000E+00  0.00000000000E+00  0.12525980253E-10  0.17130000000E+03  0.17130000000E+03 0.  1.
       11    1    1    2    0    0  0.55823582555E-02 -0.14508185054E-02  0.26638663804E-02  0.63737747162E-02  0.51109989000E-03 0.  1.
     -623    1    1    2    0    0 -0.60908320139E-02  0.42363763045E-03  0.37602703606E-02  0.17130000015E+03  0.17130000000E+03 0.  1.
      622    1    1    2    0    0  0.50847375841E-03  0.10271808749E-02  0.39935758306E+01  0.39936260752E+01  0.20000000000E-01 0.  1.
</event>
<event>
 5   0  0.3603037E+08  0.9118800E+02  0.7818608E-02  0.1180000E+00
       11   -1    0    0    0    0  0.00000000000E+00  0.00000000000E+00  0.39999999673E+01  0.40000000000E+01  0.51109989000E-03 0.  1.
     -623   -1    0    0    0    0  0.00000000000E+00  0.00000000000E+00  0.12525980253E-10  0.17130000000E+03  0.17130000000E+03 0. -1.
       11    1    1    2    0    0  0.67644349948E-02  0.66771693297E-02  0.17742651186E-01  0.20134673145E-01  0.51109989000E-03 0.  1.
     -623    1    1    2    0    0 -0.53467175839E-02 -0.44238365761E-02  0.24432910072E-02  0.17130000016E+03  0.17130000000E+03 0. -1.
      622    1    1    2    0    0 -0.14177174109E-02 -0.22533327536E-02  0.39798140252E+01  0.39798651689E+01  0.20000000000E-01 0.  1.
</event>
<event>
 5   0  0.3603037E+08  0.9118800E+02  0.7818608E-02  0.1180000E+00
       11   -1    0    0    0    0  0.00000000000E+00  0.00000000000E+00  0.39999999673E+01  0.40000000000E+01  0.51109989000E-03 0. -1.
     -623   -1    0    0    0    0  0.00000000000E+00  0.00000000000E+00  0.12525980253E-10  0.17130000000E+03  0.17130000000E+03 0.  1.
       11    1    1    2    0    0  0.48733017008E-02 -0.87885540503E-02  0.11896303427E+00  0.11938782389E+00  0.51109989000E-03 0. -1.
     -623    1    1    2    0    0  0.41745595782E-02  0.17685437800E-01  0.49800698557E-03  0.17130000096E+03  0.17130000000E+03 0.  1.
      622    1    1    2    0    0 -0.90478612790E-02 -0.88968837497E-02  0.38805389261E+01  0.38806112116E+01  0.20000000000E-01 0. -1.
</event>
<event>
 5   0  0.3603037E+08  0.9118800E+02  0.7818608E-02  0.1180000E+00
       11   -1    0    0    0    0  0.00000000000E+00  0.00000000000E+00  0.39999999673E+01  0.40000000000E+01  0.51109989000E-03 0.  1.
     -623   -1    0    0    0    0  0.00000000000E+00  0.00000000000E+00  0.12525980253E-10  0.17130000000E+03  0.17130000000E+03 0. -1.
       11    1    1    2    0    0  0.14072112414E-02  0.88363244852E-03  0.47365006152E-01  0.47396899460E-01  0.51109989000E-03 0.  1.
     -623    1    1    2    0    0 -0.55813786157E-03  0.32151267076E-03  0.82736712736E-04  0.17130000000E+03  0.17130000000E+03 0. -1.
      622    1    1    2    0    0 -0.84907337979E-03 -0.12051451193E-02  0.39525522245E+01  0.39526030993E+01  0.20000000000E-01 0.  1.
</event>
<event>
 5   0  0.3603037E+08  0.9118800E+02  0.7818608E-02  0.1180000E+00
       11   -1    0    0    0    0  0.00000000000E+00  0.00000000000E+00  0.39999999673E+01  0.40000000000E+01  0.51109989000E-03 0. -1.
     -623   -1    0    0    0    0  0.00000000000E+00  0.00000000000E+00  0.12525980253E-10  0.17130000000E+03  0.17130000000E+03 0.  1.
       11    1    1    2    0    0 -0.91122060286E-02  0.84752963045E-02  0.52109238508E-01  0.53577018441E-01  0.51109989000E-03 0. -1.
     -623    1    1    2    0    0  0.48980956905E-02 -0.68636475454E-02  0.15212198102E-02  0.17130000021E+03  0.17130000000E+03 0.  1.
      622    1    1    2    0    0  0.42141103381E-02 -0.16116487591E-02  0.39463695090E+01  0.39464227673E+01  0.20000000000E-01 0. -1.
</event>
<event>
 5   0  0.3603037E+08  0.9118800E+02  0.7818608E-02  0.1180000E+00
       11   -1    0    0    0    0  0.00000000000E+00  0.00000000000E+00  0.39999999673E+01  0.40000000000E+01  0.51109989000E-03 0. -1.
     -623   -1    0    0    0    0  0.00000000000E+00  0.00000000000E+00  0.12525980253E-10  0.17130000000E+03  0.17130000000E+03 0.  1.
       11    1    1    2    0    0  0.38178055112E-04  0.59938946652E-02  0.24234030240E+01  0.24234104906E+01  0.51109989000E-03 0. -1.
     -623    1    1    2    0    0  0.92718057465E-03 -0.28732124287E-03  0.14492213210E-03  0.17130000000E+03  0.17130000000E+03 0.  1.
      622    1    1    2    0    0 -0.96535862976E-03 -0.57065734223E-02  0.15764520212E+01  0.15765895065E+01  0.20000000000E-01 0. -1.
</event>
<event>
 5   0  0.3603037E+08  0.9118800E+02  0.7818608E-02  0.1180000E+00
       11   -1    0    0    0    0  0.00000000000E+00  0.00000000000E+00  0.39999999673E+01  0.40000000000E+01  0.51109989000E-03 0.  1.
     -623   -1    0    0    0    0  0.00000000000E+00  0.00000000000E+00  0.12525980253E-10  0.17130000000E+03  0.17130000000E+03 0. -1.
       11    1    1    2    0    0  0.15779689154E-02 -0.34254924744E-02  0.14078072869E-01  0.14583461233E-01  0.51109989000E-03 0.  1.
     -623    1    1    2    0    0  0.19986550584E-02  0.28188750529E-02  0.55722582939E-03  0.17130000004E+03  0.17130000000E+03 0. -1.
      622    1    1    2    0    0 -0.35766239738E-02  0.60661742153E-03  0.39853646687E+01  0.39854165030E+01  0.20000000000E-01 0.  1.
</event>
<event>
 5   0  0.3603037E+08  0.9118800E+02  0.7818608E-02  0.1180000E+00
       11   -1    0    0    0    0  0.00000000000E+00  0.00000000000E+00  0.39999999673E+01  0.40000000000E+01  0.51109989000E-03 0.  1.
     -623   -1    0    0    0    0  0.00000000000E+00  0.00000000000E+00  0.12525980253E-10  0.17130000000E+03  0.17130000000E+03 0.  1.
       11    1    1    2    0    0  0.36108648465E-02 -0.15904908859E-04  0.11154153361E+01  0.11154212979E+01  0.51109989000E-03 0.  1.
     -623    1    1    2    0    0  0.72577485538E-03 -0.13469782056E-02  0.78852944112E-04  0.17130000001E+03  0.17130000000E+03 0.  1.
      622    1    1    2    0    0 -0.43366397018E-02  0.13628831144E-02  0.28845057783E+01  0.28845786952E+01  0.20000000000E-01 0.  0.
</event>
<event>
 5   0  0.3603037E+08  0.9118800E+02  0.7818608E-02  0.1180000E+00
       11   -1    0    0    0    0  0.00000000000E+00  0.00000000000E+00  0.39999999673E+01  0.40000000000E+01  0.51109989000E-03 0.  1.
     -623   -1    0    0    0    0  0.00000000000E+00  0.00000000000E+00  0.12525980253E-10  0.17130000000E+03  0.17130000000E+03 0. -1.
       11    1    1    2    0    0 -0.15951174518E-01 -0.13764951652E-01  0.13060852136E+01  0.13062552431E+01  0.51109989000E-03 0.  1.
     -623    1    1    2    0    0  0.59036309931E-02 -0.28919118251E-02  0.31461089246E-03  0.17130000013E+03  0.17130000000E+03 0. -1.
      622    1    1    2    0    0  0.10047543525E-01  0.16656863477E-01  0.26936001429E+01  0.26937446304E+01  0.20000000000E-01 0.  1.
</event>
<event>
 5   0  0.3603037E+08  0.9118800E+02  0.7818608E-02  0.1180000E+00
       11   -1    0    0    0    0  0.00000000000E+00  0.00000000000E+00  0.39999999673E+01  0.40000000000E+01  0.51109989000E-03 0. -1.
     -623   -1    0    0    0    0  0.00000000000E+00  0.00000000000E+00  0.12525980253E-10  0.17130000000E+03  0.17130000000E+03 0. -1.
       11    1    1    2    0    0 -0.21713534091E-03  0.16958052663E-03  0.20544474674E-01  0.20552677835E-01  0.51109989000E-03 0. -1.
     -623    1    1    2    0    0 -0.47678136097E-03 -0.12835301375E-04  0.58493337026E-04  0.17130000000E+03  0.17130000000E+03 0. -1.
      622    1    1    2    0    0  0.69391670188E-03 -0.15674522525E-03  0.39793969993E+01  0.39794473215E+01  0.20000000000E-01 0. -1.
</event>
<event>
 5   0  0.3603037E+08  0.9118800E+02  0.7818608E-02  0.1180000E+00
       11   -1    0    0    0    0  0.00000000000E+00  0.00000000000E+00  0.39999999673E+01  0.40000000000E+01  0.51109989000E-03 0.  1.
     -623   -1    0    0    0    0  0.00000000000E+00  0.00000000000E+00  0.12525980253E-10  0.17130000000E+03  0.17130000000E+03 0. -1.
       11    1    1    2    0    0 -0.15610668912E-01  0.16456980153E-01  0.50697208635E+00  0.50747953923E+00  0.51109989000E-03 0.  1.
     -623    1    1    2    0    0  0.96224667194E-02  0.32883322731E-03  0.61043041902E-03  0.17130000027E+03  0.17130000000E+03 0. -1.
      622    1    1    2    0    0  0.59882021925E-02 -0.16785813381E-01  0.34924174506E+01  0.34925201891E+01  0.20000000000E-01 0.  1.
</event>
<event>
 5   0  0.3603037E+08  0.9118800E+02  0.7818608E-02  0.1180000E+00
       11   -1    0    0    0    0  0.00000000000E+00  0.00000000000E+00  0.39999999673E+01  0.40000000000E+01  0.51109989000E-03 0.  1.
     -623   -1    0    0    0    0  0.00000000000E+00  0.00000000000E+00  0.12525980253E-10  0.17130000000E+03  0.17130000000E+03 0.  1.
       11    1    1    2    0    0 -0.10654019889E-03  0.28273319627E-02  0.75186140472E+00  0.75186690198E+00  0.51109989000E-03 0.  1.
     -623    1    1    2    0    0  0.17113574845E-03 -0.15330121529E-03  0.68140561726E-04  0.17130000000E+03  0.17130000000E+03 0.  1.
      622    1    1    2    0    0 -0.64595549567E-04 -0.26740307474E-02  0.32480704221E+01  0.32481330979E+01  0.20000000000E-01 0. -1.
</event>
<event>
 5   0  0.3603037E+08  0.9118800E+02  0.7818608E-02  0.1180000E+00
       11   -1    0    0    0    0  0.00000000000E+00  0.00000000000E+00  0.39999999673E+01  0.40000000000E+01  0.51109989000E-03 0.  1.
     -623   -1    0    0    0    0  0.00000000000E+00  0.00000000000E+00  0.12525980253E-10  0.17130000000E+03  0.17130000000E+03 0. -1.
       11    1    1    2    0    0 -0.57041939228E-02  0.72027444632E-02  0.81728085270E+00  0.81733265612E+00  0.51109989000E-03 0.  1.
     -623    1    1    2    0    0  0.21626518145E-03 -0.18573570869E-01  0.14066347068E-03  0.17130000101E+03  0.17130000000E+03 0. -1.
      622    1    1    2    0    0  0.54879287413E-02  0.11370826406E-01  0.31825784512E+01  0.31826663367E+01  0.20000000000E-01 0.  1.
</event>
<event>
 5   0  0.3603037E+08  0.9118800E+02  0.7818608E-02  0.1180000E+00
       11   -1    0    0    0    0  0.00000000000E+00  0.00000000000E+00  0.39999999673E+01  0.40000000000E+01  0.51109989000E-03 0. -1.
     -623   -1    0    0    0    0  0.00000000000E+00  0.00000000000E+00  0.12525980253E-10  0.17130000000E+03  0.17130000000E+03 0.  1.
       11    1    1    2    0    0  0.75457831970E-02 -0.87041661110E-03  0.12828270403E+01  0.12828496299E+01  0.51109989000E-03 0. -1.
     -623    1    1    2    0    0  0.53548010725E-02  0.50060351054E-02  0.13009476052E-03  0.17130000016E+03  0.17130000000E+03 0.  1.
      622    1    1    2    0    0 -0.12900584269E-01 -0.41356184943E-02  0.27170428323E+01  0.27171502132E+01  0.20000000000E-01 0.  1.
</event>
<event>
 5   0  0.3603037E+08  0.9118800E+02  0.7818608E-02  0.1180000E+00
       11   -1    0    0    0    0  0.00000000000E+00  0.00000000000E+00  0.39999999673E+01  0.40000000000E+01  0.51109989000E-03 0.  1.
     -623   -1    0    0    0    0  0.00000000000E+00  0.00000000000E+00  0.12525980253E-10  0.17130000000E+03  0.17130000000E+03 0. -1.
       11    1    1    2    0    0  0.15806544652E-02  0.10503107932E-02  0.22820135922E+00  0.22820982274E+00  0.51109989000E-03 0.  1.
     -623    1    1    2    0    0  0.10088878550E-02 -0.11581280693E-03  0.62464198479E-04  0.17130000000E+03  0.17130000000E+03 0. -1.
      622    1    1    2    0    0 -0.25895423202E-02 -0.93449798629E-03  0.37717361439E+01  0.37717901742E+01  0.20000000000E-01 0.  1.
</event>
<event>
 5   0  0.3603037E+08  0.9118800E+02  0.7818608E-02  0.1180000E+00
       11   -1    0    0    0    0  0.00000000000E+00  0.00000000000E+00  0.39999999673E+01  0.40000000000E+01  0.51109989000E-03 0. -1.
     -623   -1    0    0    0    0  0.00000000000E+00  0.00000000000E+00  0.12525980253E-10  0.17130000000E+03  0.17130000000E+03 0. -1.
       11    1    1    2    0    0 -0.49694863077E-02 -0.79342096894E-02  0.19225377094E+01  0.19225605719E+01  0.51109989000E-03 0. -1.
     -623    1    1    2    0    0 -0.22713853439E-03 -0.11474555772E-04  0.14080050626E-03  0.17130000000E+03  0.17130000000E+03 0. -1.
      622    1    1    2    0    0  0.51966248421E-02  0.79456842452E-02  0.20773214575E+01  0.20774394279E+01  0.20000000000E-01 0. -1.
</event>
<event>
 5   0  0.3603037E+08  0.9118800E+02  0.7818608E-02  0.1180000E+00
       11   -1    0    0    0    0  0.00000000000E+00  0.00000000000E+00  0.39999999673E+01  0.40000000000E+01  0.51109989000E-03 0.  1.
     -623   -1    0    0    0    0  0.00000000000E+00  0.00000000000E+00  0.12525980253E-10  0.17130000000E+03  0.17130000000E+03 0.  1.
       11    1    1    2    0    0 -0.60287109967E-03 -0.83663497510E-02  0.14683591884E+01  0.14683832356E+01  0.51109989000E-03 0.  1.
     -623    1    1    2    0    0 -0.41721279749E-02  0.12701388532E-02  0.11752139674E-03  0.17130000006E+03  0.17130000000E+03 0.  1.
      622    1    1    2    0    0  0.47749990746E-02  0.70962108978E-02  0.25315232576E+01  0.25316167088E+01  0.20000000000E-01 0.  1.
</event>
<event>
 5   0  0.3603037E+08  0.9118800E+02  0.7818608E-02  0.1180000E+00
       11   -1    0    0    0    0  0.00000000000E+00  0.00000000000E+00  0.39999999673E+01  0.40000000000E+01  0.51109989000E-03 0. -1.
     -623   -1    0    0    0    0  0.00000000000E+00  0.00000000000E+00  0.12525980253E-10  0.17130000000E+03  0.17130000000E+03 0. -1.
       11    1    1    2    0    0  0.35424256147E-02 -0.12234600520E-01  0.56075316111E-01  0.57505969485E-01  0.51109989000E-03 0. -1.
     -623    1    1    2    0    0  0.62081767952E-03  0.69966565377E-03  0.15004323986E-02  0.17130000001E+03  0.17130000000E+03 0. -1.
      622    1    1    2    0    0 -0.41632432942E-02  0.11534934866E-01  0.39424242189E+01  0.39424940214E+01  0.20000000000E-01 0. -1.
</event>
<event>
 5   0  0.3603037E+08  0.9118800E+02  0.7818608E-02  0.1180000E+00
       11   -1    0    0    0    0  0.00000000000E+00  0.00000000000E+00  0.39999999673E+01  0.40000000000E+01  0.51109989000E-03 0. -1.
     -623   -1    0    0    0    0  0.00000000000E+00  0.00000000000E+00  0.12525980253E-10  0.17130000000E+03  0.17130000000E+03 0.  1.
       11    1    1    2    0    0  0.63854457649E-02  0.22809274083E-02  0.32953264067E+01  0.32953334223E+01  0.51109989000E-03 0. -1.
     -623    1    1    2    0    0 -0.12031976170E-03 -0.26916055069E-03  0.32159902241E-03  0.17130000000E+03  0.17130000000E+03 0.  1.
      622    1    1    2    0    0 -0.62651260032E-02 -0.20117668576E-02  0.70435196166E+00  0.70466657712E+00  0.20000000000E-01 0. -1.
</event>
<event>
 5   0  0.3603037E+08  0.9118800E+02  0.7818608E-02  0.1180000E+00
       11   -1    0    0    0    0  0.00000000000E+00  0.00000000000E+00  0.39999999673E+01  0.40000000000E+01  0.51109989000E-03 0.  1.
     -623   -1    0    0    0    0  0.00000000000E+00  0.00000000000E+00  0.12525980253E-10  0.17130000000E+03  0.17130000000E+03 0. -1.
       11    1    1    2    0    0  0.22173354056E-02  0.77085923408E-03  0.35403632286E+00  0.35404447450E+00  0.51109989000E-03 0.  1.
     -623    1    1    2    0    0 -0.49947347773E-03 -0.77577326935E-02  0.70250541229E-04  0.17130000018E+03  0.17130000000E+03 0. -1.
      622    1    1    2    0    0 -0.17178619279E-02  0.69868734594E-02  0.36458933940E+01  0.36459553491E+01  0.20000000000E-01 0.  1.
</event>
<event>
 5   0  0.3603037E+08  0.9118800E+02  0.7818608E-02  0.1180000E+00
       11   -1    0    0    0    0  0.00000000000E+00  0.00000000000E+00  0.39999999673E+01  0.40000000000E+01  0.51109989000E-03 0.  1.
     -623   -1    0    0    0    0  0.00000000000E+00  0.00000000000E+00  0.12525980253E-10  0.17130000000E+03  0.17130000000E+03 0. -1.
       11    1    1    2    0    0  0.17443673356E-02 -0.52487654222E-03  0.26264995238E+00  0.26265676656E+00  0.51109989000E-03 0.  1.
     -623    1    1    2    0    0 -0.35049252215E-02 -0.10759053881E-02  0.61092629065E-04  0.17130000004E+03  0.17130000000E+03 0. -1.
      622    1    1    2    0    0  0.17605578859E-02  0.16007819304E-02  0.37372889223E+01  0.37373431942E+01  0.20000000000E-01 0.  1.
</event>
<event>
 5   0  0.3603037E+08  0.9118800E+02  0.7818608E-02  0.1180000E+00
       11   -1    0    0    0    0  0.00000000000E+00  0.00000000000E+00  0.39999999673E+01  0.40000000000E+01  0.51109989000E-03 0.  1.
     -623   -1    0    0    0    0  0.00000000000E+00  0.00000000000E+00  0.12525980253E-10  0.17130000000E+03  0.17130000000E+03 0. -1.
       11    1    1    2    0    0 -0.24125664619E-02  0.73698545939E-02  0.58997888550E+00  0.59003006855E+00  0.51109989000E-03 0.  1.
     -623    1    1    2    0    0 -0.86329599061E-02 -0.10034411794E-01  0.12924463014E-03  0.17130000051E+03  0.17130000000E+03 0. -1.
      622    1    1    2    0    0  0.11045526368E-01  0.26645572000E-02  0.34098918372E+01  0.34099694200E+01  0.20000000000E-01 0.  1.
</event>
<event>
 5   0  0.3603037E+08  0.9118800E+02  0.7818608E-02  0.1180000E+00
       11   -1    0    0    0    0  0.00000000000E+00  0.00000000000E+00  0.39999999673E+01  0.40000000000E+01  0.51109989000E-03 0. -1.
     -623   -1    0    0    0    0  0.00000000000E+00  0.00000000000E+00  0.12525980253E-10  0.17130000000E+03  0.17130000000E+03 0.  1.
       11    1    1    2    0    0  0.27204250402E-03 -0.12362519195E-02  0.30879607196E-01  0.30909766887E-01  0.51109989000E-03 0. -1.
     -623    1    1    2    0    0 -0.11771736922E-02  0.86695928990E-03  0.80643396481E-04  0.17130000001E+03  0.17130000000E+03 0.  1.
      622    1    1    2    0    0  0.90513118822E-03  0.36929262962E-03  0.39690397168E+01  0.39690902269E+01  0.20000000000E-01 0. -1.
</event>
<event>
 5   0  0.3603037E+08  0.9118800E+02  0.7818608E-02  0.1180000E+00
       11   -1    0    0    0    0  0.00000000000E+00  0.00000000000E+00  0.39999999673E+01  0.40000000000E+01  0.51109989000E-03 0.  1.
     -623   -1    0    0    0    0  0.00000000000E+00  0.00000000000E+00  0.12525980253E-10  0.17130000000E+03  0.17130000000E+03 0.  1.
       11    1    1    2    0    0 -0.15333831479E-02  0.75482560836E-02  0.15515374306E+00  0.15534565536E+00  0.51109989000E-03 0.  1.
     -623    1    1    2    0    0 -0.27873359008E-02 -0.70598786528E-02  0.24652755325E-03  0.17130000017E+03  0.17130000000E+03 0.  1.
      622    1    1    2    0    0  0.43207190487E-02 -0.48837743078E-03  0.38445996967E+01  0.38446541763E+01  0.20000000000E-01 0.  1.
</event>
<event>
 5   0  0.3603037E+08  0.9118800E+02  0.7818608E-02  0.1180000E+00
       11   -1    0    0    0    0  0.00000000000E+00  0.00000000000E+00  0.39999999673E+01  0.40000000000E+01  0.51109989000E-03 0. -1.
     -623   -1    0    0    0    0  0.00000000000E+00  0.00000000000E+00  0.12525980253E-10  0.17130000000E+03  0.17130000000E+03 0. -1.
       11    1    1    2    0    0 -0.79698657098E-03  0.87742657871E-03  0.54201185914E-01  0.54216555043E-01  0.51109989000E-03 0. -1.
     -623    1    1    2    0    0 -0.17216817499E-03  0.41882567774E-04  0.66250054687E-04  0.17130000000E+03  0.17130000000E+03 0. -1.
      622    1    1    2    0    0  0.96915474598E-03 -0.91930914649E-03  0.39457325314E+01  0.39457834449E+01  0.20000000000E-01 0. -1.
</event>
<event>
 5   0  0.3603037E+08  0.9118800E+02  0.7818608E-02  0.1180000E+00
       11   -1    0    0    0    0  0.00000000000E+00  0.00000000000E+00  0.39999999673E+01  0.40000000000E+01  0.51109989000E-03 0.  1.
     -623   -1    0    0    0    0  0.00000000000E+00  0.00000000000E+00  0.12525980253E-10  0.17130000000E+03  0.17130000000E+03 0. -1.
       11    1    1    2    0    0  0.45573050282E-03  0.53066793772E-04  0.14869451531E-01  0.14885305374E-01  0.51109989000E-03 0.  1.
     -623    1    1    2    0    0 -0.88921501181E-03 -0.38326914723E-03  0.66048286293E-04  0.17130000000E+03  0.17130000000E+03 0. -1.
      622    1    1    2    0    0  0.43348450900E-03  0.33020235346E-03  0.39850644675E+01  0.39851146919E+01  0.20000000000E-01 0.  1.
</event>
<event>
 5   0  0.3603037E+08  0.9118800E+02  0.7818608E-02  0.1180000E+00
       11   -1    0    0    0    0  0.00000000000E+00  0.00000000000E+00  0.39999999673E+01  0.40000000000E+01  0.51109989000E-03 0.  1.
     -623   -1    0    0    0    0  0.00000000000E+00  0.00000000000E+00  0.12525980253E-10  0.17130000000E+03  0.17130000000E+03 0. -1.
       11    1    1    2    0    0  0.11402999963E-02 -0.35438269976E-03  0.30589196675E+00  0.30589472440E+00  0.51109989000E-03 0.  1.
     -623    1    1    2    0    0  0.54534870302E-04  0.57502443263E-04  0.57070904461E-04  0.17130000000E+03  0.17130000000E+03 0. -1.
      622    1    1    2    0    0 -0.11948348666E-02  0.29688025650E-03  0.36940509297E+01  0.36941052756E+01  0.20000000000E-01 0.  1.
</event>
<event>
 5   0  0.3603037E+08  0.9118800E+02  0.7818608E-02  0.1180000E+00
       11   -1    0    0    0    0  0.00000000000E+00  0.00000000000E+00  0.39999999673E+01  0.40000000000E+01  0.51109989000E-03 0. -1.
     -623   -1    0    0    0    0  0.00000000000E+00  0.00000000000E+00  0.12525980253E-10  0.17130000000E+03  0.17130000000E+03 0.  1.
       11    1    1    2    0    0 -0.20486578925E-02 -0.14901940335E-04  0.10641009913E+00  0.10643104641E+00  0.51109989000E-03 0. -1.
     -623    1    1    2    0    0 -0.17554854858E-04 -0.64957057446E-04  0.72830833231E-04  0.17130000000E+03  0.17130000000E+03 0.  1.
      622    1    1    2    0    0  0.20662127474E-02  0.79858997781E-04  0.38935170374E+01  0.38935689536E+01  0.20000000000E-01 0. -1.
</event>
<event>
 5   0  0.3603037E+08  0.9118800E+02  0.7818608E-02  0.1180000E+00
       11   -1    0    0    0    0  0.00000000000E+00  0.00000000000E+00  0.39999999673E+01  0.40000000000E+01  0.51109989000E-03 0. -1.
     -623   -1    0    0    0    0  0.00000000000E+00  0.00000000000E+00  0.12525980253E-10  0.17130000000E+03  0.17130000000E+03 0. -1.
       11    1    1    2    0    0 -0.21429442416E-02  0.82185918149E-02  0.15163580322E+01  0.15163819046E+01  0.51109989000E-03 0. -1.
     -623    1    1    2    0    0  0.17610770501E-02 -0.42546712286E-03  0.11663479432E-03  0.17130000001E+03  0.17130000000E+03 0. -1.
      622    1    1    2    0    0  0.38186719156E-03 -0.77931246921E-02  0.24835253003E+01  0.24836180858E+01  0.20000000000E-01 0. -1.
</event>
<event>
 5   0  0.3603037E+08  0.9118800E+02  0.7818608E-02  0.1180000E+00
       11   -1    0    0    0    0  0.00000000000E+00  0.00000000000E+00  0.39999999673E+01  0.40000000000E+01  0.51109989000E-03 0.  1.
     -623   -1    0    0    0    0  0.00000000000E+00  0.00000000000E+00  0.12525980253E-10  0.17130000000E+03  0.17130000000E+03 0.  1.
       11    1    1    2    0    0 -0.10096323753E-01 -0.49931621900E-02  0.36214906003E-01  0.37929514366E-01  0.51109989000E-03 0.  1.
     -623    1    1    2    0    0  0.11289669134E-01  0.28395917638E-02  0.17662243814E-02  0.17130000040E+03  0.17130000000E+03 0.  1.
      622    1    1    2    0    0 -0.11933453817E-02  0.21535704261E-02  0.39620188370E+01  0.39620700810E+01  0.20000000000E-01 0.  1.
</event>
<event>
 5   0  0.3603037E+08  0.9118800E+02  0.7818608E-02  0.1180000E+00
       11   -1    0    0    0    0  0.00000000000E+00  0.00000000000E+00  0.39999999673E+01  0.40000000000E+01  0.51109989000E-03 0. -1.
     -623   -1    0    0    0    0  0.00000000000E+00  0.00000000000E+00  0.12525980253E-10  0.17130000000E+03  0.17130000000E+03 0.  1.
       11    1    1    2    0    0  0.10044406009E-01 -0.75407737002E-02  0.49081974222E+00  0.49098068591E+00  0.51109989000E-03 0. -1.
     -623    1    1    2    0    0 -0.10113689116E-01 -0.11285907166E-01  0.26908462808E-03  0.17130000067E+03  0.17130000000E+03 0.  1.
      622    1    1    2    0    0  0.69283107845E-04  0.18826680866E-01  0.35089111405E+01  0.35090186435E+01  0.20000000000E-01 0. -1.
</event>
<event>
 5   0  0.3603037E+08  0.9118800E+02  0.7818608E-02  0.1180000E+00
       11   -1    0    0    0    0  0.00000000000E+00  0.00000000000E+00  0.39999999673E+01  0.40000000000E+01  0.51109989000E-03 0.  1.
     -623   -1    0    0    0    0  0.00000000000E+00  0.00000000000E+00  0.12525980253E-10  0.17130000000E+03  0.17130000000E+03 0. -1.
       11    1    1    2    0    0 -0.56822278383E-02 -0.31584938833E-02  0.52694068405E-01  0.53096043773E-01  0.51109989000E-03 0.  1.
     -623    1    1    2    0    0  0.89340145766E-03  0.20282716552E-02  0.45569766012E-03  0.17130000001E+03  0.17130000000E+03 0. -1.
      622    1    1    2    0    0  0.47888263806E-02  0.11302222281E-02  0.39468502013E+01  0.39469039413E+01  0.20000000000E-01 0.  1.
</event>
<event>
 5   0  0.3603037E+08  0.9118800E+02  0.7818608E-02  0.1180000E+00
       11   -1    0    0    0    0  0.00000000000E+00  0.00000000000E+00  0.39999999673E+01  0.40000000000E+01  0.51109989000E-03 0. -1.
     -623   -1    0    0    0    0  0.00000000000E+00  0.00000000000E+00  0.12525980253E-10  0.17130000000E+03  0.17130000000E+03 0.  1.
       11    1    1    2    0    0 -0.29385547038E-02 -0.47658717288E-03  0.15533470554E-01  0.15824416810E-01  0.51109989000E-03 0. -1.
     -623    1    1    2    0    0  0.30044137315E-02  0.29016534189E-02  0.34190237816E-03  0.17130000005E+03  0.17130000000E+03 0.  1.
      622    1    1    2    0    0 -0.65859027673E-04 -0.24250662461E-02  0.39841245944E+01  0.39841755319E+01  0.20000000000E-01 0. -1.
</event>
<event>
 5   0  0.3603037E+08  0.9118800E+02  0.7818608E-02  0.1180000E+00
       11   -1    0    0    0    0  0.00000000000E+00  0.00000000000E+00  0.39999999673E+01  0.40000000000E+01  0.51109989000E-03 0.  1.
     -623   -1    0    0    0    0  0.00000000000E+00  0.00000000000E+00  0.12525980253E-10  0.17130000000E+03  0.17130000000E+03 0.  1.
       11    1    1    2    0    0 -0.10277578862E-02 -0.15517479300E-02  0.23067665511E-01  0.23148274695E-01  0.51109989000E-03 0.  1.
     -623    1    1    2    0    0 -0.10409925758E-03  0.10640571420E-02  0.13106226140E-03  0.17130000000E+03  0.17130000000E+03 0.  1.
      622    1    1    2    0    0  0.11318571438E-02  0.48769078796E-03  0.39768012396E+01  0.39768517219E+01  0.20000000000E-01 0.  1.
</event>
<event>
 5   0  0.3603037E+08  0.9118800E+02  0.7818608E-02  0.1180000E+00
       11   -1    0    0    0    0  0.00000000000E+00  0.00000000000E+00  0.39999999673E+01  0.40000000000E+01  0.51109989000E-03 0. -1.
     -623   -1    0    0    0    0  0.00000000000E+00  0.00000000000E+00  0.12525980253E-10  0.17130000000E+03  0.17130000000E+03 0.  1.
       11    1    1    2    0    0  0.67643192455E-02  0.98609842722E-02  0.23188312387E+00  0.23219181592E+00  0.51109989000E-03 0. -1.
     -623    1    1    2    0    0  0.14347608704E-02 -0.79364301032E-02  0.37134393155E-03  0.17130000019E+03  0.17130000000E+03 0.  1.
      622    1    1    2    0    0 -0.81990801159E-02 -0.19245541690E-02  0.37677454996E+01  0.37678079938E+01  0.20000000000E-01 0. -1.
</event>
<event>
 5   0  0.3603037E+08  0.9118800E+02  0.7818608E-02  0.1180000E+00
       11   -1    0    0    0    0  0.00000000000E+00  0.00000000000E+00  0.39999999673E+01  0.40000000000E+01  0.51109989000E-03 0. -1.
     -623   -1    0    0    0    0  0.00000000000E+00  0.00000000000E+00  0.12525980253E-10  0.17130000000E+03  0.17130000000E+03 0. -1.
       11    1    1    2    0    0 -0.56072495934E-03 -0.22353301507E-02  0.28392995410E-01  0.28490955106E-01  0.51109989000E-03 0. -1.
     -623    1    1    2    0    0  0.25540765777E-03  0.71595534607E-04  0.14888749740E-03  0.17130000000E+03  0.17130000000E+03 0. -1.
      622    1    1    2    0    0  0.30531730157E-03  0.21637346161E-02  0.39714580845E+01  0.39715090446E+01  0.20000000000E-01 0. -1.
</event>
<event>
 5   0  0.3603037E+08  0.9118800E+02  0.7818608E-02  0.1180000E+00
       11   -1    0    0    0    0  0.00000000000E+00  0.00000000000E+00  0.39999999673E+01  0.40000000000E+01  0.51109989000E-03 0.  1.
     -623   -1    0    0    0    0  0.00000000000E+00  0.00000000000E+00  0.12525980253E-10  0.17130000000E+03  0.17130000000E+03 0. -1.
       11    1    1    2    0    0  0.55158612846E-03  0.82080830671E-03  0.32542483660E+01  0.32542485564E+01  0.51109989000E-03 0.  1.
     -623    1    1    2    0    0  0.79887579568E-03 -0.15202199692E-02  0.26995198418E-03  0.17130000001E+03  0.17130000000E+03 0. -1.
      622    1    1    2    0    0 -0.13504619241E-02  0.69941166247E-03  0.74548164936E+00  0.74575143477E+00  0.20000000000E-01 0. -1.
</event>
<event>
 5   0  0.3603037E+08  0.9118800E+02  0.7818608E-02  0.1180000E+00
       11   -1    0    0    0    0  0.00000000000E+00  0.00000000000E+00  0.39999999673E+01  0.40000000000E+01  0.51109989000E-03 0.  1.
     -623   -1    0    0    0    0  0.00000000000E+00  0.00000000000E+00  0.12525980253E-10  0.17130000000E+03  0.17130000000E+03 0. -1.
       11    1    1    2    0    0 -0.25912592390E-03 -0.33341854161E-02  0.61586287289E+00  0.61587216479E+00  0.51109989000E-03 0.  1.
     -623    1    1    2    0    0 -0.45860855636E-04  0.29618735930E-03  0.69736877885E-04  0.17130000000E+03  0.17130000000E+03 0. -1.
      622    1    1    2    0    0  0.30498677954E-03  0.30379980568E-02  0.33840673576E+01  0.33841278349E+01  0.20000000000E-01 0.  1.
</event>
<event>
 5   0  0.3603037E+08  0.9118800E+02  0.7818608E-02  0.1180000E+00
       11   -1    0    0    0    0  0.00000000000E+00  0.00000000000E+00  0.39999999673E+01  0.40000000000E+01  0.51109989000E-03 0. -1.
     -623   -1    0    0    0    0  0.00000000000E+00  0.00000000000E+00  0.12525980253E-10  0.17130000000E+03  0.17130000000E+03 0.  1.
       11    1    1    2    0    0 -0.21198563744E-02 -0.22757316450E-02  0.38882122412E+00  0.38883399837E+00  0.51109989000E-03 0. -1.
     -623    1    1    2    0    0  0.13550446535E-03  0.40668631854E-03  0.69155271119E-04  0.17130000000E+03  0.17130000000E+03 0.  1.
      622    1    1    2    0    0  0.19843519091E-02  0.18690453264E-02  0.36111095880E+01  0.36111660011E+01  0.20000000000E-01 0. -1.
</event>
<event>
 5   0  0.3603037E+08  0.9118800E+02  0.7818608E-02  0.1180000E+00
       11   -1    0    0    0    0  0.00000000000E+00  0.00000000000E+00  0.39999999673E+01  0.40000000000E+01  0.51109989000E-03 0.  1.
     -623   -1    0    0    0    0  0.00000000000E+00  0.00000000000E+00  0.12525980253E-10  0.17130000000E+03  0.17130000000E+03 0. -1.
       11    1    1    2    0    0 -0.16217478459E-02  0.44833180707E-02  0.62953902890E+00  0.62955728916E+00  0.51109989000E-03 0.  1.
     -623    1    1    2    0    0 -0.20687217101E-02 -0.75236523308E-02  0.81137049098E-04  0.17130000018E+03  0.17130000000E+03 0. -1.
      622    1    1    2    0    0  0.36904695561E-02  0.30403342601E-02  0.33703798014E+01  0.33704425331E+01  0.20000000000E-01 0.  1.
</event>
<event>
 5   0  0.3603037E+08  0.9118800E+02  0.7818608E-02  0.1180000E+00
       11   -1    0    0    0    0  0.00000000000E+00  0.00000000000E+00  0.39999999673E+01  0.40000000000E+01  0.51109989000E-03 0.  1.
     -623   -1    0    0    0    0  0.00000000000E+00  0.00000000000E+00  0.12525980253E-10  0.17130000000E+03  0.17130000000E+03 0.  1.
       11    1    1    2    0    0  0.25450790778E-03  0.39641444677E-02  0.92109356752E-01  0.92196388425E-01  0.51109989000E-03 0.  1.
     -623    1    1    2    0    0  0.21733114415E-02 -0.11445794091E-02  0.13996806395E-03  0.17130000002E+03  0.17130000000E+03 0.  1.
      622    1    1    2    0    0 -0.24278193493E-02 -0.28195650586E-02  0.39077506425E+01  0.39078035939E+01  0.20000000000E-01 0.  1.
</event>
<event>
 5   0  0.3603037E+08  0.9118800E+02  0.7818608E-02  0.1180000E+00
       11   -1    0    0    0    0  0.00000000000E+00  0.00000000000E+00  0.39999999673E+01  0.40000000000E+01  0.51109989000E-03 0.  1.
     -623   -1    0    0    0    0  0.00000000000E+00  0.00000000000E+00  0.12525980253E-10  0.17130000000E+03  0.17130000000E+03 0. -1.
       11    1    1    2    0    0  0.27349010874E-02 -0.91833379918E-02  0.11837958761E+00  0.11876784651E+00  0.51109989000E-03 0.  1.
     -623    1    1    2    0    0 -0.71776919343E-02  0.15752282997E-01  0.44873372693E-03  0.17130000088E+03  0.17130000000E+03 0. -1.
      622    1    1    2    0    0  0.44427908469E-02 -0.65689450053E-02  0.38811716460E+01  0.38812312783E+01  0.20000000000E-01 0.  1.
</event>
<event>
 5   0  0.3603037E+08  0.9118800E+02  0.7818608E-02  0.1180000E+00
       11   -1    0    0    0    0  0.00000000000E+00  0.00000000000E+00  0.39999999673E+01  0.40000000000E+01  0.51109989000E-03 0. -1.
     -623   -1    0    0    0    0  0.00000000000E+00  0.00000000000E+00  0.12525980253E-10  0.17130000000E+03  0.17130000000E+03 0.  1.
       11    1    1    2    0    0  0.17421506175E-01  0.16290978970E-01  0.26735908032E+01  0.26736972433E+01  0.51109989000E-03 0. -1.
     -623    1    1    2    0    0 -0.86804061522E-02 -0.25857983205E-01  0.32270138201E-03  0.17130000217E+03  0.17130000000E+03 0.  1.
      622    1    1    2    0    0 -0.87411000225E-02  0.95670042352E-02  0.13260864628E+01  0.13263005848E+01  0.20000000000E-01 0. -1.
</event>
<event>
 5   0  0.3603037E+08  0.9118800E+02  0.7818608E-02  0.1180000E+00
       11   -1    0    0    0    0  0.00000000000E+00  0.00000000000E+00  0.39999999673E+01  0.40000000000E+01  0.51109989000E-03 0.  1.
     -623   -1    0    0    0    0  0.00000000000E+00  0.00000000000E+00  0.12525980253E-10  0.17130000000E+03  0.17130000000E+03 0. -1.
       11    1    1    2    0    0  0.44950321767E-02  0.20941061900E-02  0.54426429178E+00  0.54428712195E+00  0.51109989000E-03 0.  1.
     -623    1    1    2    0    0  0.70974649360E-03 -0.53252681627E-03  0.84947971549E-04  0.17130000000E+03  0.17130000000E+03 0. -1.
      622    1    1    2    0    0 -0.52047786703E-02 -0.15615793738E-02  0.34556507276E+01  0.34557128757E+01  0.20000000000E-01 0.  1.
</event>
<event>
 5   0  0.3603037E+08  0.9118800E+02  0.7818608E-02  0.1180000E+00
       11   -1    0    0    0    0  0.00000000000E+00  0.00000000000E+00  0.39999999673E+01  0.40000000000E+01  0.51109989000E-03 0.  1.
     -623   -1    0    0    0    0  0.00000000000E+00  0.00000000000E+00  0.12525980253E-10  0.17130000000E+03  0.17130000000E+03 0.  1.
       11    1    1    2    0    0 -0.13571319422E-02 -0.10221082371E-02  0.19706255918E-02  0.26516220674E-02  0.51109989000E-03 0.  1.
     -623    1    1    2    0    0  0.18974481898E-02 -0.15016690873E-02  0.73184920753E-03  0.17130000002E+03  0.17130000000E+03 0.  1.
      622    1    1    2    0    0 -0.54031624756E-03  0.25237773244E-02  0.39972974926E+01  0.39973483593E+01  0.20000000000E-01 0.  1.
</event>
<event>
 5   0  0.3603037E+08  0.9118800E+02  0.7818608E-02  0.1180000E+00
       11   -1    0    0    0    0  0.00000000000E+00  0.00000000000E+00  0.39999999673E+01  0.40000000000E+01  0.51109989000E-03 0.  1.
     -623   -1    0    0    0    0  0.00000000000E+00  0.00000000000E+00  0.12525980253E-10  0.17130000000E+03  0.17130000000E+03 0.  1.
       11    1    1    2    0    0 -0.52382847878E-03  0.15176646224E-03  0.25231154397E-01  0.25242222623E-01  0.51109989000E-03 0.  1.
     -623    1    1    2    0    0 -0.41610145842E-04  0.19490799713E-03  0.61408901037E-04  0.17130000000E+03  0.17130000000E+03 0.  1.
      622    1    1    2    0    0  0.56543862462E-03 -0.34667445937E-03  0.39747074041E+01  0.39747577772E+01  0.20000000000E-01 0.  1.
</event>
<event>
 5   0  0.3603037E+08  0.9118800E+02  0.7818608E-02  0.1180000E+00
       11   -1    0    0    0    0  0.00000000000E+00  0.00000000000E+00  0.39999999673E+01  0.40000000000E+01  0.51109989000E-03 0.  1.
     -623   -1    0    0    0    0  0.00000000000E+00  0.00000000000E+00  0.12525980253E-10  0.17130000000E+03  0.17130000000E+03 0. -1.
       11    1    1    2    0    0 -0.74714089026E-03 -0.12665600715E-03  0.11400809641E-01  0.11437392319E-01  0.51109989000E-03 0.  1.
     -623    1    1    2    0    0  0.25668218072E-02  0.21154651599E-02  0.87636987477E-04  0.17130000003E+03  0.17130000000E+03 0. -1.
      622    1    1    2    0    0 -0.18196809170E-02 -0.19888091528E-02  0.39885115207E+01  0.39885625754E+01  0.20000000000E-01 0.  1.
</event>
<event>
 5   0  0.3603037E+08  0.9118800E+02  0.7818608E-02  0.1180000E+00
       11   -1    0    0    0    0  0.00000000000E+00  0.00000000000E+00  0.39999999673E+01  0.40000000000E+01  0.51109989000E-03 0. -1.
     -623   -1    0    0    0    0  0.00000000000E+00  0.00000000000E+00  0.12525980253E-10  0.17130000000E+03  0.17130000000E+03 0. -1.
       11    1    1    2    0    0 -0.24601372287E-02 -0.22177624129E-01  0.11813878430E+01  0.11815986612E+01  0.51109989000E-03 0. -1.
     -623    1    1    2    0    0 -0.69636802972E-02  0.27805313483E-02  0.36441986564E-03  0.17130000016E+03  0.17130000000E+03 0. -1.
      622    1    1    2    0    0  0.94238175259E-02  0.19397092781E-01  0.28182477045E+01  0.28184011743E+01  0.20000000000E-01 0.  1.
</event>
<event>
 5   0  0.3603037E+08  0.9118800E+02  0.7818608E-02  0.1180000E+00
       11   -1    0    0    0    0  0.00000000000E+00  0.00000000000E+00  0.39999999673E+01  0.40000000000E+01  0.51109989000E-03 0. -1.
     -623   -1    0    0    0    0  0.00000000000E+00  0.00000000000E+00  0.12525980253E-10  0.17130000000E+03  0.17130000000E+03 0. -1.
       11    1    1    2    0    0 -0.95812140996E-03 -0.31644170641E-02  0.26026284205E+00  0.26028434395E+00  0.51109989000E-03 0. -1.
     -623    1    1    2    0    0 -0.83077410306E-03  0.19842079977E-02  0.75577265620E-04  0.17130000001E+03  0.17130000000E+03 0. -1.
      622    1    1    2    0    0  0.17888955130E-02  0.11802090663E-02  0.37396615480E+01  0.37397156425E+01  0.20000000000E-01 0. -1.
</event>
<event>
 5   0  0.3603037E+08  0.9118800E+02  0.7818608E-02  0.1180000E+00
       11   -1    0    0    0    0  0.00000000000E+00  0.00000000000E+00  0.39999999673E+01  0.40000000000E+01  0.51109989000E-03 0.  1.
     -623   -1    0    0    0    0  0.00000000000E+00  0.00000000000E+00  0.12525980253E-10  0.17130000000E+03  0.17130000000E+03 0.  1.
       11    1    1    2    0    0  0.64324289449E-02 -0.18949688885E-02  0.11690230016E+01  0.11690423459E+01  0.51109989000E-03 0.  1.
     -623    1    1    2    0    0 -0.10844976714E-01 -0.32653901599E-02  0.98476801308E-04  0.17130000037E+03  0.17130000000E+03 0.  1.
      622    1    1    2    0    0  0.44125477691E-02  0.51603590484E-02  0.28308784890E+01  0.28309572796E+01  0.20000000000E-01 0.  1.
</event>
<event>
 5   0  0.3603037E+08  0.9118800E+02  0.7818608E-02  0.1180000E+00
       11   -1    0    0    0    0  0.00000000000E+00  0.00000000000E+00  0.39999999673E+01  0.40000000000E+01  0.51109989000E-03 0. -1.
     -623   -1    0    0    0    0  0.00000000000E+00  0.00000000000E+00  0.12525980253E-10  0.17130000000E+03  0.17130000000E+03 0. -1.
       11    1    1    2    0    0 -0.25523711434E-02  0.31309623480E-02  0.34056013597E-01  0.34298554004E-01  0.51109989000E-03 0. -1.
     -623    1    1    2    0    0  0.41260116401E-03 -0.78998495594E-02  0.29656813682E-03  0.17130000018E+03  0.17130000000E+03 0. -1.
      622    1    1    2    0    0  0.21397699794E-02  0.47688872114E-02  0.39656473856E+01  0.39657012631E+01  0.20000000000E-01 0. -1.
</event>
<event>
 5   0  0.3603037E+08  0.9118800E+02  0.7818608E-02  0.1180000E+00
       11   -1    0    0    0    0  0.00000000000E+00  0.00000000000E+00  0.39999999673E+01  0.40000000000E+01  0.51109989000E-03 0. -1.
     -623   -1    0    0    0    0  0.00000000000E+00  0.00000000000E+00  0.12525980253E-10  0.17130000000E+03  0.17130000000E+03 0.  1.
       11    1    1    2    0    0 -0.27129472884E-02 -0.38536071306E-02  0.46590500024E+00  0.46592911568E+00  0.51109989000E-03 0. -1.
     -623    1    1    2    0    0  0.14530604658E-03 -0.14445075059E-03  0.83869639203E-04  0.17130000000E+03  0.17130000000E+03 0.  1.
      622    1    1    2    0    0  0.25676412418E-02  0.39980578812E-02  0.35340110975E+01  0.35340708842E+01  0.20000000000E-01 0. -1.
</event>
<event>
 5   0  0.3603037E+08  0.9118800E+02  0.7818608E-02  0.1180000E+00
       11   -1    0    0    0    0  0.00000000000E+00  0.00000000000E+00  0.39999999673E+01  0.40000000000E+01  0.51109989000E-03 0.  1.
     -623   -1    0    0    0    0  0.00000000000E+00  0.00000000000E+00  0.12525980253E-10  0.17130000000E+03  0.17130000000E+03 0. -1.
       11    1    1    2    0    0  0.57871827473E-03  0.24678354679E-03  0.46136113344E+00  0.46136184550E+00  0.51109989000E-03 0.  1.
     -623    1    1    2    0    0 -0.69537608945E-03 -0.18892323077E-02  0.57593730137E-04  0.17130000001E+03  0.17130000000E+03 0. -1.
      622    1    1    2    0    0  0.11665781472E-03  0.16424487609E-02  0.35385812402E+01  0.35386381427E+01  0.20000000000E-01 0.  1.
</event>
<event>
 5   0  0.3603037E+08  0.9118800E+02  0.7818608E-02  0.1180000E+00
       11   -1    0    0    0    0  0.00000000000E+00  0.00000000000E+00  0.39999999673E+01  0.40000000000E+01  0.51109989000E-03 0. -1.
     -623   -1    0    0    0    0  0.00000000000E+00  0.00000000000E+00  0.12525980253E-10  0.17130000000E+03  0.17130000000E+03 0. -1.
       11    1    1    2    0    0  0.55643196566E-03 -0.59076863380E-03  0.16142364856E-01  0.16170831454E-01  0.51109989000E-03 0. -1.
     -623    1    1    2    0    0  0.23781631964E-03  0.59307804955E-04  0.78752049076E-04  0.17130000000E+03  0.17130000000E+03 0. -1.
      622    1    1    2    0    0 -0.79424828530E-03  0.53146082885E-03  0.39837788505E+01  0.39838291684E+01  0.20000000000E-01 0. -1.
</event>
<event>
 5   0  0.3603037E+08  0.9118800E+02  0.7818608E-02  0.1180000E+00
       11   -1    0    0    0    0  0.00000000000E+00  0.00000000000E+00  0.39999999673E+01  0.40000000000E+01  0.51109989000E-03 0. -1.
     -623   -1    0    0    0    0  0.00000000000E+00  0.00000000000E+00  0.12525980253E-10  0.17130000000E+03  0.17130000000E+03 0.  1.
       11    1    1    2    0    0 -0.44692844457E-02  0.26309706108E-01  0.87936209057E+00  0.87976708434E+00  0.51109989000E-03 0. -1.
     -623    1    1    2    0    0  0.18257380378E-01 -0.21034722673E-01  0.50624892669E-03  0.17130000227E+03  0.17130000000E+03 0.  1.
      622    1    1    2    0    0 -0.13788095932E-01 -0.52749834351E-02  0.31201316279E+01  0.31202306505E+01  0.20000000000E-01 0. -1.
</event>
<event>
 5   0  0.3603037E+08  0.9118800E+02  0.7818608E-02  0.1180000E+00
       11   -1    0    0    0    0  0.00000000000E+00  0.00000000000E+00  0.39999999673E+01  0.40000000000E+01  0.51109989000E-03 0. -1.
     -623   -1    0    0    0    0  0.00000000000E+00  0.00000000000E+00  0.12525980253E-10  0.17130000000E+03  0.17130000000E+03 0. -1.
       11    1    1    2    0    0 -0.10263042920E-02  0.66643141298E-03  0.11638623183E-01  0.11713931901E-01  0.51109989000E-03 0. -1.
     -623    1    1    2    0    0  0.58527523980E-03  0.90334131138E-03  0.12575999215E-03  0.17130000000E+03  0.17130000000E+03 0. -1.
      622    1    1    2    0    0  0.44102905224E-03 -0.15697727244E-02  0.39882355842E+01  0.39882860647E+01  0.20000000000E-01 0. -1.
</event>
<event>
 5   0  0.3603037E+08  0.9118800E+02  0.7818608E-02  0.1180000E+00
       11   -1    0    0    0    0  0.00000000000E+00  0.00000000000E+00  0.39999999673E+01  0.40000000000E+01  0.51109989000E-03 0. -1.
     -623   -1    0    0    0    0  0.00000000000E+00  0.00000000000E+00  0.12525980253E-10  0.17130000000E+03  0.17130000000E+03 0.  1.
       11    1    1    2    0    0 -0.12930846922E-02  0.65139882844E-02  0.70442678636E+00  0.70445827604E+00  0.51109989000E-03 0. -1.
     -623    1    1    2    0    0  0.71054428503E-03  0.20421834669E-03  0.99046670371E-04  0.17130000000E+03  0.17130000000E+03 0.  1.
      622    1    1    2    0    0  0.58254040719E-03 -0.67182066311E-02  0.32954741343E+01  0.32955417223E+01  0.20000000000E-01 0. -1.
</event>
<event>
 5   0  0.3603037E+08  0.9118800E+02  0.7818608E-02  0.1180000E+00
       11   -1    0    0    0    0  0.00000000000E+00  0.00000000000E+00  0.39999999673E+01  0.40000000000E+01  0.51109989000E-03 0. -1.
     -623   -1    0    0    0    0  0.00000000000E+00  0.00000000000E+00  0.12525980253E-10  0.17130000000E+03  0.17130000000E+03 0. -1.
       11    1    1    2    0    0 -0.45327987458E-02 -0.13153410751E-01  0.44356675059E+00  0.44378517543E+00  0.51109989000E-03 0. -1.
     -623    1    1    2    0    0 -0.21820628625E-03  0.15321652083E-02  0.29680184373E-03  0.17130000001E+03  0.17130000000E+03 0. -1.
      622    1    1    2    0    0  0.47510050320E-02  0.11621245543E-01  0.35561364149E+01  0.35562148173E+01  0.20000000000E-01 0. -1.
</event>
<event>
 5   0  0.3603037E+08  0.9118800E+02  0.7818608E-02  0.1180000E+00
       11   -1    0    0    0    0  0.00000000000E+00  0.00000000000E+00  0.39999999673E+01  0.40000000000E+01  0.51109989000E-03 0.  1.
     -623   -1    0    0    0    0  0.00000000000E+00  0.00000000000E+00  0.12525980253E-10  0.17130000000E+03  0.17130000000E+03 0.  1.
       11    1    1    2    0    0 -0.46667749811E-02  0.14595180702E-02  0.83656368790E+00  0.83657813390E+00  0.51109989000E-03 0.  1.
     -623    1    1    2    0    0  0.57570320200E-03 -0.17778131334E-03  0.80542841567E-04  0.17130000000E+03  0.17130000000E+03 0.  1.
      622    1    1    2    0    0  0.40910717791E-02 -0.12817367568E-02  0.31633557366E+01  0.31634218650E+01  0.20000000000E-01 0.  1.
</event>
<event>
 5   0  0.3603037E+08  0.9118800E+02  0.7818608E-02  0.1180000E+00
       11   -1    0    0    0    0  0.00000000000E+00  0.00000000000E+00  0.39999999673E+01  0.40000000000E+01  0.51109989000E-03 0. -1.
     -623   -1    0    0    0    0  0.00000000000E+00  0.00000000000E+00  0.12525980253E-10  0.17130000000E+03  0.17130000000E+03 0. -1.
       11    1    1    2    0    0 -0.48290625776E-02 -0.37736049751E-02  0.40404326894E+00  0.40409006958E+00  0.51109989000E-03 0. -1.
     -623    1    1    2    0    0  0.92441595001E-02  0.52108930910E-02  0.10571364589E-03  0.17130000033E+03  0.17130000000E+03 0. -1.
      622    1    1    2    0    0 -0.44150969225E-02 -0.14372881159E-02  0.35958509848E+01  0.35959096017E+01  0.20000000000E-01 0. -1.
</event>
<event>
 5   0  0.3603037E+08  0.9118800E+02  0.7818608E-02  0.1180000E+00
       11   -1    0    0    0    0  0.00000000000E+00  0.00000000000E+00  0.39999999673E+01  0.40000000000E+01  0.51109989000E-03 0.  1.
     -623   -1    0    0    0    0  0.00000000000E+00  0.00000000000E+00  0.12525980253E-10  0.17130000000E+03  0.17130000000E+03 0.  1.
       11    1    1    2    0    0  0.47769166353E-02 -0.35465585000E-02  0.52307568302E+00  0.52310976706E+00  0.51109989000E-03 0.  1.
     -623    1    1    2    0    0  0.36548140192E-02 -0.40027678639E-02  0.11008037372E-03  0.17130000009E+03  0.17130000000E+03 0.  1.
      622    1    1    2    0    0 -0.84317306545E-02  0.75493263639E-02  0.34768142040E+01  0.34768901471E+01  0.20000000000E-01 0.  0.
</event>
<event>
 5   0  0.3603037E+08  0.9118800E+02  0.7818608E-02  0.1180000E+00
       11   -1    0    0    0    0  0.00000000000E+00  0.00000000000E+00  0.39999999673E+01  0.40000000000E+01  0.51109989000E-03 0.  1.
     -623   -1    0    0    0    0  0.00000000000E+00  0.00000000000E+00  0.12525980253E-10  0.17130000000E+03  0.17130000000E+03 0.  1.
       11    1    1    2    0    0 -0.10931027383E-01 -0.15982532369E-02  0.57706599573E-01  0.58756741140E-01  0.51109989000E-03 0.  1.
     -623    1    1    2    0    0  0.39599109904E-02  0.96698714033E-03  0.11071224993E-02  0.17130000005E+03  0.17130000000E+03 0.  1.
      622    1    1    2    0    0  0.69711163926E-02  0.63126609662E-03  0.39411862453E+01  0.39412432068E+01  0.20000000000E-01 0.  1.
</event>
<event>
 5   0  0.3603037E+08  0.9118800E+02  0.7818608E-02  0.1180000E+00
       11   -1    0    0    0    0  0.00000000000E+00  0.00000000000E+00  0.39999999673E+01  0.40000000000E+01  0.51109989000E-03 0. -1.
     -623   -1    0    0    0    0  0.00000000000E+00  0.00000000000E+00  0.12525980253E-10  0.17130000000E+03  0.17130000000E+03 0. -1.
       11    1    1    2    0    0 -0.96543969407E-02  0.29565546975E-02  0.32505608189E+00  0.32521326264E+00  0.51109989000E-03 0. -1.
     -623    1    1    2    0    0  0.10522236851E-02  0.14569359204E-02  0.22430181692E-03  0.17130000001E+03  0.17130000000E+03 0. -1.
      622    1    1    2    0    0  0.86021732556E-02 -0.44134906179E-02  0.36747195836E+01  0.36747867278E+01  0.20000000000E-01 0. -1.
</event>
<event>
 5   0  0.3603037E+08  0.9118800E+02  0.7818608E-02  0.1180000E+00
       11   -1    0    0    0    0  0.00000000000E+00  0.00000000000E+00  0.39999999673E+01  0.40000000000E+01  0.51109989000E-03 0.  1.
     -623   -1    0    0    0    0  0.00000000000E+00  0.00000000000E+00  0.12525980253E-10  0.17130000000E+03  0.17130000000E+03 0. -1.
       11    1    1    2    0    0 -0.80502648719E-02 -0.26294909916E-02  0.34028822813E+01  0.34028928579E+01  0.51109989000E-03 0.  1.
     -623    1    1    2    0    0  0.61852925968E-03 -0.47739720496E-03  0.39995298379E-03  0.17130000000E+03  0.17130000000E+03 0. -1.
      622    1    1    2    0    0  0.74317356122E-02  0.31068881966E-02  0.59671773311E+00  0.59710713985E+00  0.20000000000E-01 0.  1.
</event>
<event>
 5   0  0.3603037E+08  0.9118800E+02  0.7818608E-02  0.1180000E+00
       11   -1    0    0    0    0  0.00000000000E+00  0.00000000000E+00  0.39999999673E+01  0.40000000000E+01  0.51109989000E-03 0.  1.
     -623   -1    0    0    0    0  0.00000000000E+00  0.00000000000E+00  0.12525980253E-10  0.17130000000E+03  0.17130000000E+03 0. -1.
       11    1    1    2    0    0 -0.29766472156E-02 -0.16849738775E-03  0.82171238056E-01  0.82226895869E-01  0.51109989000E-03 0.  1.
     -623    1    1    2    0    0  0.59986653389E-04 -0.73328431885E-04  0.10776813433E-03  0.17130000000E+03  0.17130000000E+03 0. -1.
      622    1    1    2    0    0  0.29166605622E-02  0.24182581963E-03  0.39177209612E+01  0.39177731041E+01  0.20000000000E-01 0.  1.
</event>
<event>
 5   0  0.3603037E+08  0.9118800E+02  0.7818608E-02  0.1180000E+00
       11   -1    0    0    0    0  0.00000000000E+00  0.00000000000E+00  0.39999999673E+01  0.40000000000E+01  0.51109989000E-03 0.  1.
     -623   -1    0    0    0    0  0.00000000000E+00  0.00000000000E+00  0.12525980253E-10  0.17130000000E+03  0.17130000000E+03 0.  1.
       11    1    1    2    0    0  0.15612945397E-02 -0.14064571958E-01  0.35986128694E+00  0.36013977409E+00  0.51109989000E-03 0.  1.
     -623    1    1    2    0    0  0.10892028727E-02  0.55434007526E-03  0.35944561055E-03  0.17130000000E+03  0.17130000000E+03 0.  1.
      622    1    1    2    0    0 -0.26504974124E-02  0.13510231883E-01  0.36397792348E+01  0.36398602212E+01  0.20000000000E-01 0.  1.
</event>
<event>
 5   0  0.3603037E+08  0.9118800E+02  0.7818608E-02  0.1180000E+00
       11   -1    0    0    0    0  0.00000000000E+00  0.00000000000E+00  0.39999999673E+01  0.40000000000E+01  0.51109989000E-03 0. -1.
     -623   -1    0    0    0    0  0.00000000000E+00  0.00000000000E+00  0.12525980253E-10  0.17130000000E+03  0.17130000000E+03 0.  1.
       11    1    1    2    0    0 -0.21954290369E-01  0.45136578037E-01  0.59305389341E+00  0.59517433014E+00  0.51109989000E-03 0. -1.
     -623    1    1    2    0    0  0.29307421116E-01 -0.31700930049E-01  0.22190493475E-02  0.17130000545E+03  0.17130000000E+03 0.  1.
      622    1    1    2    0    0 -0.73531307469E-02 -0.13435647988E-01  0.34047270246E+01  0.34048202151E+01  0.20000000000E-01 0. -1.
</event>
<event>
 5   0  0.3603037E+08  0.9118800E+02  0.7818608E-02  0.1180000E+00
       11   -1    0    0    0    0  0.00000000000E+00  0.00000000000E+00  0.39999999673E+01  0.40000000000E+01  0.51109989000E-03 0.  1.
     -623   -1    0    0    0    0  0.00000000000E+00  0.00000000000E+00  0.12525980253E-10  0.17130000000E+03  0.17130000000E+03 0. -1.
       11    1    1    2    0    0 -0.72643169701E-03  0.79572977932E-03  0.19964778869E+00  0.19965135021E+00  0.51109989000E-03 0.  1.
     -623    1    1    2    0    0  0.96700060394E-04 -0.11560824403E-03  0.56269099313E-04  0.17130000000E+03  0.17130000000E+03 0. -1.
      622    1    1    2    0    0  0.62973163661E-03 -0.68012153528E-03  0.38002959096E+01  0.38003486497E+01  0.20000000000E-01 0.  1.
</event>
<event>
 5   0  0.3603037E+08  0.9118800E+02  0.7818608E-02  0.1180000E+00
       11   -1    0    0    0    0  0.00000000000E+00  0.00000000000E+00  0.39999999673E+01  0.40000000000E+01  0.51109989000E-03 0. -1.
     -623   -1    0    0    0    0  0.00000000000E+00  0.00000000000E+00  0.12525980253E-10  0.17130000000E+03  0.17130000000E+03 0. -1.
       11    1    1    2    0    0 -0.81487153700E-02 -0.48079758775E-02  0.11153419587E+01  0.11153822054E+01  0.51109989000E-03 0. -1.
     -623    1    1    2    0    0  0.91747650602E-02 -0.59144168880E-02  0.13000718812E-03  0.17130000035E+03  0.17130000000E+03 0. -1.
      622    1    1    2    0    0 -0.10260496902E-02  0.10722392765E-01  0.28845280015E+01  0.28846174467E+01  0.20000000000E-01 0. -1.
</event>
<event>
 5   0  0.3603037E+08  0.9118800E+02  0.7818608E-02  0.1180000E+00
       11   -1    0    0    0    0  0.00000000000E+00  0.00000000000E+00  0.39999999673E+01  0.40000000000E+01  0.51109989000E-03 0.  1.
     -623   -1    0    0    0    0  0.00000000000E+00  0.00000000000E+00  0.12525980253E-10  0.17130000000E+03  0.17130000000E+03 0.  1.
       11    1    1    2    0    0 -0.10168069328E-02 -0.84491784383E-03  0.23226187132E-01  0.23269395616E-01  0.51109989000E-03 0.  1.
     -623    1    1    2    0    0  0.82099555586E-04 -0.58883888292E-04  0.93681342031E-04  0.17130000000E+03  0.17130000000E+03 0.  1.
      622    1    1    2    0    0  0.93470737725E-03  0.90380173212E-03  0.39766800989E+01  0.39767306043E+01  0.20000000000E-01 0.  1.
</event>
<event>
 5   0  0.3603037E+08  0.9118800E+02  0.7818608E-02  0.1180000E+00
       11   -1    0    0    0    0  0.00000000000E+00  0.00000000000E+00  0.39999999673E+01  0.40000000000E+01  0.51109989000E-03 0.  1.
     -623   -1    0    0    0    0  0.00000000000E+00  0.00000000000E+00  0.12525980253E-10  0.17130000000E+03  0.17130000000E+03 0.  1.
       11    1    1    2    0    0 -0.20279390417E-02 -0.14783237794E-03  0.12488993482E-01  0.12663750321E-01  0.51109989000E-03 0.  1.
     -623    1    1    2    0    0 -0.16432002712E-04 -0.47818228930E-03  0.22545737050E-03  0.17130000000E+03  0.17130000000E+03 0.  1.
      622    1    1    2    0    0  0.20443710444E-02  0.62601466724E-03  0.39872855165E+01  0.39873362489E+01  0.20000000000E-01 0.  1.
</event>
<event>
 5   0  0.3603037E+08  0.9118800E+02  0.7818608E-02  0.1180000E+00
       11   -1    0    0    0    0  0.00000000000E+00  0.00000000000E+00  0.39999999673E+01  0.40000000000E+01  0.51109989000E-03 0. -1.
     -623   -1    0    0    0    0  0.00000000000E+00  0.00000000000E+00  0.12525980253E-10  0.17130000000E+03  0.17130000000E+03 0. -1.
       11    1    1    2    0    0  0.31987744362E-02  0.74412894611E-03  0.11593298855E+00  0.11598062314E+00  0.51109989000E-03 0. -1.
     -623    1    1    2    0    0 -0.12306832773E-03 -0.59007557853E-03  0.10031730141E-03  0.17130000000E+03  0.17130000000E+03 0. -1.
      622    1    1    2    0    0 -0.30757061085E-02 -0.15405336758E-03  0.38839666615E+01  0.38840193758E+01  0.20000000000E-01 0. -1.
</event>
<event>
 5   0  0.3603037E+08  0.9118800E+02  0.7818608E-02  0.1180000E+00
       11   -1    0    0    0    0  0.00000000000E+00  0.00000000000E+00  0.39999999673E+01  0.40000000000E+01  0.51109989000E-03 0. -1.
     -623   -1    0    0    0    0  0.00000000000E+00  0.00000000000E+00  0.12525980253E-10  0.17130000000E+03  0.17130000000E+03 0.  1.
       11    1    1    2    0    0 -0.17489230069E-03  0.17263500807E-02  0.44944788903E-01  0.44981175419E-01  0.51109989000E-03 0. -1.
     -623    1    1    2    0    0 -0.11002898055E-02 -0.11576333289E-02  0.87176791816E-04  0.17130000001E+03  0.17130000000E+03 0.  1.
      622    1    1    2    0    0  0.12751821062E-02 -0.56871675182E-03  0.39549680017E+01  0.39550188171E+01  0.20000000000E-01 0. -1.
</event>
<event>
 5   0  0.3603037E+08  0.9118800E+02  0.7818608E-02  0.1180000E+00
       11   -1    0    0    0    0  0.00000000000E+00  0.00000000000E+00  0.39999999673E+01  0.40000000000E+01  0.51109989000E-03 0. -1.
     -623   -1    0    0    0    0  0.00000000000E+00  0.00000000000E+00  0.12525980253E-10  0.17130000000E+03  0.17130000000E+03 0.  1.
       11    1    1    2    0    0  0.94352498248E-02 -0.53612083579E-02  0.11885626529E+01  0.11886123033E+01  0.51109989000E-03 0. -1.
     -623    1    1    2    0    0  0.15656808575E-02 -0.69056269768E-03  0.14880413915E-03  0.17130000001E+03  0.17130000000E+03 0.  1.
      622    1    1    2    0    0 -0.11000930682E-01  0.60517710556E-02  0.28112885103E+01  0.28113876881E+01  0.20000000000E-01 0.  0.
</event>
<event>
 5   0  0.3603037E+08  0.9118800E+02  0.7818608E-02  0.1180000E+00
       11   -1    0    0    0    0  0.00000000000E+00  0.00000000000E+00  0.39999999673E+01  0.40000000000E+01  0.51109989000E-03 0.  1.
     -623   -1    0    0    0    0  0.00000000000E+00  0.00000000000E+00  0.12525980253E-10  0.17130000000E+03  0.17130000000E+03 0.  1.
       11    1    1    2    0    0  0.33771728883E-02  0.17869700163E-02  0.11804541406E+01  0.11804604347E+01  0.51109989000E-03 0.  1.
     -623    1    1    2    0    0 -0.34367182916E-02 -0.12033655516E-01  0.96273346146E-04  0.17130000046E+03  0.17130000000E+03 0.  1.
      622    1    1    2    0    0  0.59545403258E-04  0.10246685500E-01  0.28194495534E+01  0.28195391081E+01  0.20000000000E-01 0.  1.
</event>
<event>
 5   0  0.3603037E+08  0.9118800E+02  0.7818608E-02  0.1180000E+00
       11   -1    0    0    0    0  0.00000000000E+00  0.00000000000E+00  0.39999999673E+01  0.40000000000E+01  0.51109989000E-03 0. -1.
     -623   -1    0    0    0    0  0.00000000000E+00  0.00000000000E+00  0.12525980253E-10  0.17130000000E+03  0.17130000000E+03 0.  1.
       11    1    1    2    0    0  0.15305432942E-01  0.63926324135E-02  0.20647597287E+00  0.20714176455E+00  0.51109989000E-03 0. -1.
     -623    1    1    2    0    0  0.45839808011E-02 -0.27083314339E-02  0.77251430095E-03  0.17130000008E+03  0.17130000000E+03 0.  1.
      622    1    1    2    0    0 -0.19889413744E-01 -0.36843009795E-02  0.37927514802E+01  0.37928581510E+01  0.20000000000E-01 0. -1.
</event>
<event>
 5   0  0.3603037E+08  0.9118800E+02  0.7818608E-02  0.1180000E+00
       11   -1    0    0    0    0  0.00000000000E+00  0.00000000000E+00  0.39999999673E+01  0.40000000000E+01  0.51109989000E-03 0. -1.
     -623   -1    0    0    0    0  0.00000000000E+00  0.00000000000E+00  0.12525980253E-10  0.17130000000E+03  0.17130000000E+03 0.  1.
       11    1    1    2    0    0 -0.19558752204E-02 -0.30973058017E-02  0.14383490721E-01  0.14851423423E-01  0.51109989000E-03 0. -1.
     -623    1    1    2    0    0  0.99283251881E-03  0.21341395354E-02  0.51833642836E-03  0.17130000002E+03  0.17130000000E+03 0.  1.
      622    1    1    2    0    0  0.96304270158E-03  0.96316626633E-03  0.39850981402E+01  0.39851485596E+01  0.20000000000E-01 0. -1.
</event>
<event>
 5   0  0.3603037E+08  0.9118800E+02  0.7818608E-02  0.1180000E+00
       11   -1    0    0    0    0  0.00000000000E+00  0.00000000000E+00  0.39999999673E+01  0.40000000000E+01  0.51109989000E-03 0. -1.
     -623   -1    0    0    0    0  0.00000000000E+00  0.00000000000E+00  0.12525980253E-10  0.17130000000E+03  0.17130000000E+03 0. -1.
       11    1    1    2    0    0  0.52600635966E-02 -0.71506850467E-02  0.43904000086E+00  0.43913003102E+00  0.51109989000E-03 0. -1.
     -623    1    1    2    0    0 -0.41406366305E-02  0.63638445139E-02  0.14659522364E-03  0.17130000017E+03  0.17130000000E+03 0. -1.
      622    1    1    2    0    0 -0.11194269661E-02  0.78684053284E-03  0.35608133713E+01  0.35608698007E+01  0.20000000000E-01 0.  0.
</event>
<event>
 5   0  0.3603037E+08  0.9118800E+02  0.7818608E-02  0.1180000E+00
       11   -1    0    0    0    0  0.00000000000E+00  0.00000000000E+00  0.39999999673E+01  0.40000000000E+01  0.51109989000E-03 0. -1.
     -623   -1    0    0    0    0  0.00000000000E+00  0.00000000000E+00  0.12525980253E-10  0.17130000000E+03  0.17130000000E+03 0. -1.
       11    1    1    2    0    0  0.21159006883E-01 -0.26636847701E-02  0.10246442466E+01  0.10248662801E+01  0.51109989000E-03 0. -1.
     -623    1    1    2    0    0  0.11589237706E-02 -0.48539239365E-02  0.38250882952E-03  0.17130000007E+03  0.17130000000E+03 0. -1.
      622    1    1    2    0    0 -0.22317930653E-01  0.75176087067E-02  0.29749732120E+01  0.29751336468E+01  0.20000000000E-01 0. -1.
</event>
<event>
 5   0  0.3603037E+08  0.9118800E+02  0.7818608E-02  0.1180000E+00
       11   -1    0    0    0    0  0.00000000000E+00  0.00000000000E+00  0.39999999673E+01  0.40000000000E+01  0.51109989000E-03 0.  1.
     -623   -1    0    0    0    0  0.00000000000E+00  0.00000000000E+00  0.12525980253E-10  0.17130000000E+03  0.17130000000E+03 0.  1.
       11    1    1    2    0    0 -0.12772554097E-03  0.23789930401E-03  0.40702235059E-01  0.40706339425E-01  0.51109989000E-03 0.  1.
     -623    1    1    2    0    0  0.47170361625E-03  0.27833559652E-03  0.54635590901E-04  0.17130000000E+03  0.17130000000E+03 0.  1.
      622    1    1    2    0    0 -0.34397807528E-03 -0.51623490053E-03  0.39592430967E+01  0.39592936597E+01  0.20000000000E-01 0.  1.
</event>
<event>
 5   0  0.3603037E+08  0.9118800E+02  0.7818608E-02  0.1180000E+00
       11   -1    0    0    0    0  0.00000000000E+00  0.00000000000E+00  0.39999999673E+01  0.40000000000E+01  0.51109989000E-03 0.  1.
     -623   -1    0    0    0    0  0.00000000000E+00  0.00000000000E+00  0.12525980253E-10  0.17130000000E+03  0.17130000000E+03 0. -1.
       11    1    1    2    0    0  0.36763700903E-01 -0.46763064648E-01  0.84766643395E+00  0.84975113909E+00  0.51109989000E-03 0.  1.
     -623    1    1    2    0    0  0.81431632889E-02 -0.19047411371E-02  0.28444845490E-02  0.17130000023E+03  0.17130000000E+03 0. -1.
      622    1    1    2    0    0 -0.44906864192E-01  0.48667805786E-01  0.31494890489E+01  0.31502486332E+01  0.20000000000E-01 0.  1.
</event>
<event>
 5   0  0.3603037E+08  0.9118800E+02  0.7818608E-02  0.1180000E+00
       11   -1    0    0    0    0  0.00000000000E+00  0.00000000000E+00  0.39999999673E+01  0.40000000000E+01  0.51109989000E-03 0.  1.
     -623   -1    0    0    0    0  0.00000000000E+00  0.00000000000E+00  0.12525980253E-10  0.17130000000E+03  0.17130000000E+03 0.  1.
       11    1    1    2    0    0 -0.90643990739E-02 -0.97547215077E-02  0.18478206199E+00  0.18526194854E+00  0.51109989000E-03 0.  1.
     -623    1    1    2    0    0 -0.69713225512E-03  0.20338407303E-03  0.55673207103E-03  0.17130000000E+03  0.17130000000E+03 0.  1.
      622    1    1    2    0    0  0.97615313290E-02  0.95513374347E-02  0.38146611733E+01  0.38147380490E+01  0.20000000000E-01 0.  1.
</event>
<event>
 5   0  0.3603037E+08  0.9118800E+02  0.7818608E-02  0.1180000E+00
       11   -1    0    0    0    0  0.00000000000E+00  0.00000000000E+00  0.39999999673E+01  0.40000000000E+01  0.51109989000E-03 0. -1.
     -623   -1    0    0    0    0  0.00000000000E+00  0.00000000000E+00  0.12525980253E-10  0.17130000000E+03  0.17130000000E+03 0. -1.
       11    1    1    2    0    0  0.37448996719E-02 -0.28926131478E-02  0.49603038656E+00  0.49605322002E+00  0.51109989000E-03 0. -1.
     -623    1    1    2    0    0  0.41687739433E-04  0.68637707607E-04  0.83063865504E-04  0.17130000000E+03  0.17130000000E+03 0. -1.
      622    1    1    2    0    0 -0.37865874113E-02  0.28239754402E-02  0.35038865169E+01  0.35039467799E+01  0.20000000000E-01 0. -1.
</event>
<event>
 5   0  0.3603037E+08  0.9118800E+02  0.7818608E-02  0.1180000E+00
       11   -1    0    0    0    0  0.00000000000E+00  0.00000000000E+00  0.39999999673E+01  0.40000000000E+01  0.51109989000E-03 0.  1.
     -623   -1    0    0    0    0  0.00000000000E+00  0.00000000000E+00  0.12525980253E-10  0.17130000000E+03  0.17130000000E+03 0. -1.
       11    1    1    2    0    0  0.12927625538E-02 -0.25077837162E-03  0.24405649935E-01  0.24446494536E-01  0.51109989000E-03 0.  1.
     -623    1    1    2    0    0 -0.25742873307E-02  0.12963727462E-02  0.91488066127E-04  0.17130000002E+03  0.17130000000E+03 0. -1.
      622    1    1    2    0    0  0.12815247769E-02 -0.10455943746E-02  0.39755028294E+01  0.39755534812E+01  0.20000000000E-01 0.  1.
</event>
<event>
 5   0  0.3603037E+08  0.9118800E+02  0.7818608E-02  0.1180000E+00
       11   -1    0    0    0    0  0.00000000000E+00  0.00000000000E+00  0.39999999673E+01  0.40000000000E+01  0.51109989000E-03 0. -1.
     -623   -1    0    0    0    0  0.00000000000E+00  0.00000000000E+00  0.12525980253E-10  0.17130000000E+03  0.17130000000E+03 0.  1.
       11    1    1    2    0    0 -0.53434544017E-03 -0.13614436206E-01  0.19809063365E+00  0.19855930791E+00  0.51109989000E-03 0. -1.
     -623    1    1    2    0    0 -0.72062115899E-03  0.57120119256E-03  0.54384099612E-03  0.17130000000E+03  0.17130000000E+03 0.  1.
      622    1    1    2    0    0  0.12549665992E-02  0.13043235014E-01  0.38013654927E+01  0.38014406888E+01  0.20000000000E-01 0. -1.
</event>
<event>
 5   0  0.3603037E+08  0.9118800E+02  0.7818608E-02  0.1180000E+00
       11   -1    0    0    0    0  0.00000000000E+00  0.00000000000E+00  0.39999999673E+01  0.40000000000E+01  0.51109989000E-03 0.  1.
     -623   -1    0    0    0    0  0.00000000000E+00  0.00000000000E+00  0.12525980253E-10  0.17130000000E+03  0.17130000000E+03 0.  1.
       11    1    1    2    0    0  0.19116670345E-04 -0.17305335841E-02  0.77374847277E-01  0.77395887004E-01  0.51109989000E-03 0.  1.
     -623    1    1    2    0    0  0.12641492521E-03  0.50804677320E-03  0.72187968058E-04  0.17130000000E+03  0.17130000000E+03 0.  1.
      622    1    1    2    0    0 -0.14553159555E-03  0.12224868109E-02  0.39225529321E+01  0.39226041122E+01  0.20000000000E-01 0.  1.
</event>
<event>
 5   0  0.3603037E+08  0.9118800E+02  0.7818608E-02  0.1180000E+00
       11   -1    0    0    0    0  0.00000000000E+00  0.00000000000E+00  0.39999999673E+01  0.40000000000E+01  0.51109989000E-03 0. -1.
     -623   -1    0    0    0    0  0.00000000000E+00  0.00000000000E+00  0.12525980253E-10  0.17130000000E+03  0.17130000000E+03 0.  1.
       11    1    1    2    0    0  0.33937823471E-02 -0.33620626469E-02  0.29175090668E+00  0.29179046248E+00  0.51109989000E-03 0. -1.
     -623    1    1    2    0    0 -0.18527469876E-02  0.48297275133E-02  0.94146727144E-04  0.17130000008E+03  0.17130000000E+03 0.  1.
      622    1    1    2    0    0 -0.15410353595E-02 -0.14676648664E-02  0.37081549140E+01  0.37082094594E+01  0.20000000000E-01 0. -1.
</event>
<event>
 5   0  0.3603037E+08  0.9118800E+02  0.7818608E-02  0.1180000E+00
       11   -1    0    0    0    0  0.00000000000E+00  0.00000000000E+00  0.39999999673E+01  0.40000000000E+01  0.51109989000E-03 0. -1.
     -623   -1    0    0    0    0  0.00000000000E+00  0.00000000000E+00  0.12525980253E-10  0.17130000000E+03  0.17130000000E+03 0.  1.
       11    1    1    2    0    0 -0.42401010315E-02 -0.70418484204E-03  0.99940568662E+00  0.99941505993E+00  0.51109989000E-03 0. -1.
     -623    1    1    2    0    0 -0.54359235316E-03  0.22275348351E-03  0.79848020655E-04  0.17130000000E+03  0.17130000000E+03 0.  1.
      622    1    1    2    0    0  0.47836933847E-02  0.48143135854E-03  0.30005144327E+01  0.30005849390E+01  0.20000000000E-01 0. -1.
</event>
<event>
 5   0  0.3603037E+08  0.9118800E+02  0.7818608E-02  0.1180000E+00
       11   -1    0    0    0    0  0.00000000000E+00  0.00000000000E+00  0.39999999673E+01  0.40000000000E+01  0.51109989000E-03 0. -1.
     -623   -1    0    0    0    0  0.00000000000E+00  0.00000000000E+00  0.12525980253E-10  0.17130000000E+03  0.17130000000E+03 0.  1.
       11    1    1    2    0    0 -0.98666170474E-02  0.93189067877E-02  0.25343126468E+00  0.25379491581E+00  0.51109989000E-03 0. -1.
     -623    1    1    2    0    0  0.13700512583E-01 -0.60957943022E-03  0.42964165909E-03  0.17130000055E+03  0.17130000000E+03 0.  1.
      622    1    1    2    0    0 -0.38338955354E-02 -0.87093273575E-02  0.37461390610E+01  0.37462045347E+01  0.20000000000E-01 0. -1.
</event>
<event>
 5   0  0.3603037E+08  0.9118800E+02  0.7818608E-02  0.1180000E+00
       11   -1    0    0    0    0  0.00000000000E+00  0.00000000000E+00  0.39999999673E+01  0.40000000000E+01  0.51109989000E-03 0. -1.
     -623   -1    0    0    0    0  0.00000000000E+00  0.00000000000E+00  0.12525980253E-10  0.17130000000E+03  0.17130000000E+03 0.  1.
       11    1    1    2    0    0  0.52758676210E-02  0.27895485674E-02  0.75381484595E+00  0.75383864292E+00  0.51109989000E-03 0. -1.
     -623    1    1    2    0    0 -0.70016927601E-04 -0.10882680417E-03  0.90657506359E-04  0.17130000000E+03  0.17130000000E+03 0.  1.
      622    1    1    2    0    0 -0.52058506934E-02 -0.26807217632E-02  0.32460944639E+01  0.32461613570E+01  0.20000000000E-01 0. -1.
</event>
<event>
 5   0  0.3603037E+08  0.9118800E+02  0.7818608E-02  0.1180000E+00
       11   -1    0    0    0    0  0.00000000000E+00  0.00000000000E+00  0.39999999673E+01  0.40000000000E+01  0.51109989000E-03 0. -1.
     -623   -1    0    0    0    0  0.00000000000E+00  0.00000000000E+00  0.12525980253E-10  0.17130000000E+03  0.17130000000E+03 0.  1.
       11    1    1    2    0    0 -0.50298122078E-03  0.44972391568E-03  0.52315919107E-01  0.52322766121E-01  0.51109989000E-03 0. -1.
     -623    1    1    2    0    0 -0.25609926672E-02  0.48784921553E-03  0.58797650568E-04  0.17130000002E+03  0.17130000000E+03 0.  1.
      622    1    1    2    0    0  0.30639738880E-02 -0.93757313121E-03  0.39476252506E+01  0.39476772140E+01  0.20000000000E-01 0. -1.
</event>
<event>
 5   0  0.3603037E+08  0.9118800E+02  0.7818608E-02  0.1180000E+00
       11   -1    0    0    0    0  0.00000000000E+00  0.00000000000E+00  0.39999999673E+01  0.40000000000E+01  0.51109989000E-03 0.  1.
     -623   -1    0    0    0    0  0.00000000000E+00  0.00000000000E+00  0.12525980253E-10  0.17130000000E+03  0.17130000000E+03 0.  1.
       11    1    1    2    0    0 -0.15858153625E-02  0.46850556474E-02  0.81730252917E+00  0.81731765549E+00  0.51109989000E-03 0.  1.
     -623    1    1    2    0    0  0.24463277676E-03 -0.10750336016E-02  0.80267942247E-04  0.17130000000E+03  0.17130000000E+03 0.  1.
      622    1    1    2    0    0  0.13411825857E-02 -0.36100220458E-02  0.31826171702E+01  0.31826823409E+01  0.20000000000E-01 0.  0.
</event>
<event>
 5   0  0.3603037E+08  0.9118800E+02  0.7818608E-02  0.1180000E+00
       11   -1    0    0    0    0  0.00000000000E+00  0.00000000000E+00  0.39999999673E+01  0.40000000000E+01  0.51109989000E-03 0.  1.
     -623   -1    0    0    0    0  0.00000000000E+00  0.00000000000E+00  0.12525980253E-10  0.17130000000E+03  0.17130000000E+03 0.  1.
       11    1    1    2    0    0  0.20364555800E-02  0.29779178292E-02  0.13743037653E+01  0.13743085955E+01  0.51109989000E-03 0.  1.
     -623    1    1    2    0    0  0.23574484253E-02 -0.76248907243E-02  0.88943841007E-04  0.17130000019E+03  0.17130000000E+03 0.  1.
      622    1    1    2    0    0 -0.43939040052E-02  0.46469728951E-02  0.26256072582E+01  0.26256912185E+01  0.20000000000E-01 0.  1.
</event>
<event>
 5   0  0.3603037E+08  0.9118800E+02  0.7818608E-02  0.1180000E+00
       11   -1    0    0    0    0  0.00000000000E+00  0.00000000000E+00  0.39999999673E+01  0.40000000000E+01  0.51109989000E-03 0. -1.
     -623   -1    0    0    0    0  0.00000000000E+00  0.00000000000E+00  0.12525980253E-10  0.17130000000E+03  0.17130000000E+03 0. -1.
       11    1    1    2    0    0  0.99488882146E-02 -0.88420912604E-02  0.25823009922E+01  0.25823353459E+01  0.51109989000E-03 0. -1.
     -623    1    1    2    0    0 -0.16177275702E-03  0.72660734872E-04  0.23631945251E-03  0.17130000000E+03  0.17130000000E+03 0. -1.
      622    1    1    2    0    0 -0.97871154576E-02  0.87694305256E-02  0.14174626557E+01  0.14176646539E+01  0.20000000000E-01 0.  0.
</event>
<event>
 5   0  0.3603037E+08  0.9118800E+02  0.7818608E-02  0.1180000E+00
       11   -1    0    0    0    0  0.00000000000E+00  0.00000000000E+00  0.39999999673E+01  0.40000000000E+01  0.51109989000E-03 0. -1.
     -623   -1    0    0    0    0  0.00000000000E+00  0.00000000000E+00  0.12525980253E-10  0.17130000000E+03  0.17130000000E+03 0.  1.
       11    1    1    2    0    0  0.46923273012E-02 -0.56509260605E-02  0.42730143344E+00  0.42736486419E+00  0.51109989000E-03 0. -1.
     -623    1    1    2    0    0 -0.98079881544E-02 -0.18745763181E-01  0.20765091402E-03  0.17130000131E+03  0.17130000000E+03 0.  1.
      622    1    1    2    0    0  0.51156608532E-02  0.24396689242E-01  0.35724908830E+01  0.35726338292E+01  0.20000000000E-01 0.  0.
</event>
<event>
 5   0  0.3603037E+08  0.9118800E+02  0.7818608E-02  0.1180000E+00
       11   -1    0    0    0    0  0.00000000000E+00  0.00000000000E+00  0.39999999673E+01  0.40000000000E+01  0.51109989000E-03 0. -1.
     -623   -1    0    0    0    0  0.00000000000E+00  0.00000000000E+00  0.12525980253E-10  0.17130000000E+03  0.17130000000E+03 0.  1.
       11    1    1    2    0    0  0.17763598873E-01 -0.28140915197E-02  0.33900249514E-01  0.38379065832E-01  0.51109989000E-03 0. -1.
     -623    1    1    2    0    0 -0.13357027858E-01  0.16167437975E-02  0.45324884626E-02  0.17130000059E+03  0.17130000000E+03 0.  1.
      622    1    1    2    0    0 -0.44065710142E-02  0.11973477222E-02  0.39615672294E+01  0.39616203458E+01  0.20000000000E-01 0. -1.
</event>
<event>
 5   0  0.3603037E+08  0.9118800E+02  0.7818608E-02  0.1180000E+00
       11   -1    0    0    0    0  0.00000000000E+00  0.00000000000E+00  0.39999999673E+01  0.40000000000E+01  0.51109989000E-03 0.  1.
     -623   -1    0    0    0    0  0.00000000000E+00  0.00000000000E+00  0.12525980253E-10  0.17130000000E+03  0.17130000000E+03 0. -1.
       11    1    1    2    0    0 -0.37378300144E-02 -0.55036218926E-02  0.40439990558E+00  0.40445494939E+00  0.51109989000E-03 0.  1.
     -623    1    1    2    0    0  0.19038811176E-02  0.11109690661E-01  0.11584507256E-03  0.17130000037E+03  0.17130000000E+03 0. -1.
      622    1    1    2    0    0  0.18339488967E-02 -0.56060687686E-02  0.35954842167E+01  0.35955446797E+01  0.20000000000E-01 0.  1.
</event>
<event>
 5   0  0.3603037E+08  0.9118800E+02  0.7818608E-02  0.1180000E+00
       11   -1    0    0    0    0  0.00000000000E+00  0.00000000000E+00  0.39999999673E+01  0.40000000000E+01  0.51109989000E-03 0. -1.
     -623   -1    0    0    0    0  0.00000000000E+00  0.00000000000E+00  0.12525980253E-10  0.17130000000E+03  0.17130000000E+03 0. -1.
       11    1    1    2    0    0 -0.31795114611E-03  0.59199482949E-03  0.18426573210E-01  0.18445903978E-01  0.51109989000E-03 0. -1.
     -623    1    1    2    0    0 -0.12409918637E-03 -0.78370307551E-05  0.69597539002E-04  0.17130000000E+03  0.17130000000E+03 0. -1.
      622    1    1    2    0    0  0.44205033248E-03 -0.58415779873E-03  0.39815037966E+01  0.39815540960E+01  0.20000000000E-01 0. -1.
</event>
<event>
 5   0  0.3603037E+08  0.9118800E+02  0.7818608E-02  0.1180000E+00
       11   -1    0    0    0    0  0.00000000000E+00  0.00000000000E+00  0.39999999673E+01  0.40000000000E+01  0.51109989000E-03 0.  1.
     -623   -1    0    0    0    0  0.00000000000E+00  0.00000000000E+00  0.12525980253E-10  0.17130000000E+03  0.17130000000E+03 0. -1.
       11    1    1    2    0    0 -0.71329857565E-03  0.69173732634E-03  0.50701606207E-01  0.50713917106E-01  0.51109989000E-03 0.  1.
     -623    1    1    2    0    0 -0.23914797587E-02 -0.54973367322E-03  0.64161233852E-04  0.17130000002E+03  0.17130000000E+03 0. -1.
      622    1    1    2    0    0  0.31047783343E-02 -0.14200365312E-03  0.39492341999E+01  0.39492860653E+01  0.20000000000E-01 0.  1.
</event>
<event>
 5   0  0.3603037E+08  0.9118800E+02  0.7818608E-02  0.1180000E+00
       11   -1    0    0    0    0  0.00000000000E+00  0.00000000000E+00  0.39999999673E+01  0.40000000000E+01  0.51109989000E-03 0.  1.
     -623   -1    0    0    0    0  0.00000000000E+00  0.00000000000E+00  0.12525980253E-10  0.17130000000E+03  0.17130000000E+03 0.  1.
       11    1    1    2    0    0  0.44633983745E-03 -0.24123418531E-02  0.12248835005E-01  0.12502551381E-01  0.51109989000E-03 0.  1.
     -623    1    1    2    0    0 -0.10160519948E-02  0.17213784371E-02  0.30395332146E-03  0.17130000001E+03  0.17130000000E+03 0.  1.
      622    1    1    2    0    0  0.56971215732E-03  0.69096341604E-03  0.39874471790E+01  0.39874974367E+01  0.20000000000E-01 0.  1.
</event>
<event>
 5   0  0.3603037E+08  0.9118800E+02  0.7818608E-02  0.1180000E+00
       11   -1    0    0    0    0  0.00000000000E+00  0.00000000000E+00  0.39999999673E+01  0.40000000000E+01  0.51109989000E-03 0. -1.
     -623   -1    0    0    0    0  0.00000000000E+00  0.00000000000E+00  0.12525980253E-10  0.17130000000E+03  0.17130000000E+03 0.  1.
       11    1    1    2    0    0 -0.14310139522E-03 -0.78520566044E-03  0.54303816427E-01  0.54312086380E-01  0.51109989000E-03 0. -1.
     -623    1    1    2    0    0  0.12230040081E-02  0.49216109596E-03  0.59089632516E-04  0.17130000001E+03  0.17130000000E+03 0.  1.
      622    1    1    2    0    0 -0.10799026129E-02  0.29304456448E-03  0.39456370613E+01  0.39456879085E+01  0.20000000000E-01 0. -1.
</event>
<event>
 5   0  0.3603037E+08  0.9118800E+02  0.7818608E-02  0.1180000E+00
       11   -1    0    0    0    0  0.00000000000E+00  0.00000000000E+00  0.39999999673E+01  0.40000000000E+01  0.51109989000E-03 0.  1.
     -623   -1    0    0    0    0  0.00000000000E+00  0.00000000000E+00  0.12525980253E-10  0.17130000000E+03  0.17130000000E+03 0. -1.
       11    1    1    2    0    0  0.47487490281E-03 -0.42261948067E-03  0.18025537548E+00  0.18025722100E+00  0.51109989000E-03 0.  1.
     -623    1    1    2    0    0 -0.54256526452E-04 -0.33123740263E-03  0.54270674857E-04  0.17130000000E+03  0.17130000000E+03 0. -1.
      622    1    1    2    0    0 -0.42061837636E-03  0.75385688330E-03  0.38196903212E+01  0.38197427787E+01  0.20000000000E-01 0.  1.
</event>
<event>
 5   0  0.3603037E+08  0.9118800E+02  0.7818608E-02  0.1180000E+00
       11   -1    0    0    0    0  0.00000000000E+00  0.00000000000E+00  0.39999999673E+01  0.40000000000E+01  0.51109989000E-03 0.  1.
     -623   -1    0    0    0    0  0.00000000000E+00  0.00000000000E+00  0.12525980253E-10  0.17130000000E+03  0.17130000000E+03 0. -1.
       11    1    1    2    0    0  0.18470083559E-02  0.26131887574E-02  0.43979426570E-01  0.44098655060E-01  0.51109989000E-03 0.  1.
     -623    1    1    2    0    0  0.86844309281E-03 -0.83081713068E-03  0.17109138769E-03  0.17130000000E+03  0.17130000000E+03 0. -1.
      622    1    1    2    0    0 -0.27154514487E-02 -0.17823716267E-02  0.39558494494E+01  0.39559013406E+01  0.20000000000E-01 0.  1.
</event>
<event>
 5   0  0.3603037E+08  0.9118800E+02  0.7818608E-02  0.1180000E+00
       11   -1    0    0    0    0  0.00000000000E+00  0.00000000000E+00  0.39999999673E+01  0.40000000000E+01  0.51109989000E-03 0. -1.
     -623   -1    0    0    0    0  0.00000000000E+00  0.00000000000E+00  0.12525980253E-10  0.17130000000E+03  0.17130000000E+03 0.  1.
       11    1    1    2    0    0  0.95691868759E-03  0.55669914171E-03  0.43847697522E+00  0.43847867066E+00  0.51109989000E-03 0. -1.
     -623    1    1    2    0    0 -0.11838054653E-02 -0.52952184483E-03  0.57831273644E-04  0.17130000000E+03  0.17130000000E+03 0.  1.
      622    1    1    2    0    0  0.22688677768E-03 -0.27177296881E-04  0.35614651609E+01  0.35615213244E+01  0.20000000000E-01 0. -1.
</event>
<event>
 5   0  0.3603037E+08  0.9118800E+02  0.7818608E-02  0.1180000E+00
       11   -1    0    0    0    0  0.00000000000E+00  0.00000000000E+00  0.39999999673E+01  0.40000000000E+01  0.51109989000E-03 0.  1.
     -623   -1    0    0    0    0  0.00000000000E+00  0.00000000000E+00  0.12525980253E-10  0.17130000000E+03  0.17130000000E+03 0. -1.
       11    1    1    2    0    0  0.68205865616E-02  0.32322013749E-02  0.27443762354E+00  0.27454186923E+00  0.51109989000E-03 0.  1.
     -623    1    1    2    0    0  0.11900739364E-02  0.31140436317E-03  0.16820054560E-03  0.17130000000E+03  0.17130000000E+03 0. -1.
      622    1    1    2    0    0 -0.80106604980E-02 -0.35436057380E-02  0.37253941433E+01  0.37254581263E+01  0.20000000000E-01 0.  1.
</event>
<event>
 5   0  0.3603037E+08  0.9118800E+02  0.7818608E-02  0.1180000E+00
       11   -1    0    0    0    0  0.00000000000E+00  0.00000000000E+00  0.39999999673E+01  0.40000000000E+01  0.51109989000E-03 0.  1.
     -623   -1    0    0    0    0  0.00000000000E+00  0.00000000000E+00  0.12525980253E-10  0.17130000000E+03  0.17130000000E+03 0.  1.
       11    1    1    2    0    0 -0.77169130131E-03 -0.43290842951E-04  0.17010795377E+00  0.17011047745E+00  0.51109989000E-03 0.  1.
     -623    1    1    2    0    0  0.11060261347E-03 -0.27765865315E-04  0.54769986777E-04  0.17130000000E+03  0.17130000000E+03 0.  1.
      622    1    1    2    0    0  0.66108868784E-03  0.71056708266E-04  0.38298372436E+01  0.38298895225E+01  0.20000000000E-01 0.  1.
</event>
<event>
 5   0  0.3603037E+08  0.9118800E+02  0.7818608E-02  0.1180000E+00
       11   -1    0    0    0    0  0.00000000000E+00  0.00000000000E+00  0.39999999673E+01  0.40000000000E+01  0.51109989000E-03 0. -1.
     -623   -1    0    0    0    0  0.00000000000E+00  0.00000000000E+00  0.12525980253E-10  0.17130000000E+03  0.17130000000E+03 0. -1.
       11    1    1    2    0    0 -0.25486889201E-02 -0.34559272702E-02  0.27501957278E+00  0.27505356911E+00  0.51109989000E-03 0. -1.
     -623    1    1    2    0    0 -0.35878639532E-02 -0.46467695103E-02  0.10162442922E-03  0.17130000010E+03  0.17130000000E+03 0. -1.
      622    1    1    2    0    0  0.61365528733E-02  0.81026967805E-02  0.37248787702E+01  0.37249463303E+01  0.20000000000E-01 0.  0.
</event>
<event>
 5   0  0.3603037E+08  0.9118800E+02  0.7818608E-02  0.1180000E+00
       11   -1    0    0    0    0  0.00000000000E+00  0.00000000000E+00  0.39999999673E+01  0.40000000000E+01  0.51109989000E-03 0.  1.
     -623   -1    0    0    0    0  0.00000000000E+00  0.00000000000E+00  0.12525980253E-10  0.17130000000E+03  0.17130000000E+03 0. -1.
       11    1    1    2    0    0  0.52513779852E-02 -0.48908379423E-02  0.38951357747E+00  0.38958001170E+00  0.51109989000E-03 0.  1.
     -623    1    1    2    0    0  0.82787002184E-04 -0.10572305914E-02  0.13064080132E-03  0.17130000000E+03  0.17130000000E+03 0. -1.
      622    1    1    2    0    0 -0.53341649874E-02  0.59480685337E-02  0.36103557491E+01  0.36104199850E+01  0.20000000000E-01 0.  1.
</event>
<event>
 5   0  0.3603037E+08  0.9118800E+02  0.7818608E-02  0.1180000E+00
       11   -1    0    0    0    0  0.00000000000E+00  0.00000000000E+00  0.39999999673E+01  0.40000000000E+01  0.51109989000E-03 0. -1.
     -623   -1    0    0    0    0  0.00000000000E+00  0.00000000000E+00  0.12525980253E-10  0.17130000000E+03  0.17130000000E+03 0. -1.
       11    1    1    2    0    0 -0.13275041591E-01 -0.15338570689E-01  0.11286110504E+01  0.11287934544E+01  0.51109989000E-03 0. -1.
     -623    1    1    2    0    0 -0.25736388023E-01  0.25583592028E-01  0.53919994447E-03  0.17130000384E+03  0.17130000000E+03 0. -1.
      622    1    1    2    0    0  0.39011429614E-01 -0.10245021339E-01  0.28708497170E+01  0.28712027009E+01  0.20000000000E-01 0. -1.
</event>
<event>
 5   0  0.3603037E+08  0.9118800E+02  0.7818608E-02  0.1180000E+00
       11   -1    0    0    0    0  0.00000000000E+00  0.00000000000E+00  0.39999999673E+01  0.40000000000E+01  0.51109989000E-03 0.  1.
     -623   -1    0    0    0    0  0.00000000000E+00  0.00000000000E+00  0.12525980253E-10  0.17130000000E+03  0.17130000000E+03 0. -1.
       11    1    1    2    0    0 -0.33482957679E-02  0.16063758202E-02  0.61831011642E+00  0.61832148015E+00  0.51109989000E-03 0.  1.
     -623    1    1    2    0    0  0.36792077854E-04 -0.14647205013E-03  0.72410471728E-04  0.17130000000E+03  0.17130000000E+03 0. -1.
      622    1    1    2    0    0  0.33115036900E-02 -0.14599037700E-02  0.33816174405E+01  0.33816785198E+01  0.20000000000E-01 0.  1.
</event>
<event>
 5   0  0.3603037E+08  0.9118800E+02  0.7818608E-02  0.1180000E+00
       11   -1    0    0    0    0  0.00000000000E+00  0.00000000000E+00  0.39999999673E+01  0.40000000000E+01  0.51109989000E-03 0.  1.
     -623   -1    0    0    0    0  0.00000000000E+00  0.00000000000E+00  0.12525980253E-10  0.17130000000E+03  0.17130000000E+03 0. -1.
       11    1    1    2    0    0 -0.52174735025E-04 -0.55825310196E-03  0.37297054066E-01  0.37304769570E-01  0.51109989000E-03 0.  1.
     -623    1    1    2    0    0 -0.11081925068E-03 -0.17391293166E-03  0.58225010561E-04  0.17130000000E+03  0.17130000000E+03 0. -1.
      622    1    1    2    0    0  0.16299398571E-03  0.73216603362E-03  0.39626446883E+01  0.39626952303E+01  0.20000000000E-01 0.  1.
</event>
<event>
 5   0  0.3603037E+08  0.9118800E+02  0.7818608E-02  0.1180000E+00
       11   -1    0    0    0    0  0.00000000000E+00  0.00000000000E+00  0.39999999673E+01  0.40000000000E+01  0.51109989000E-03 0. -1.
     -623   -1    0    0    0    0  0.00000000000E+00  0.00000000000E+00  0.12525980253E-10  0.17130000000E+03  0.17130000000E+03 0.  1.
       11    1    1    2    0    0  0.23157258360E-02  0.12522761109E-02  0.58429418257E+00  0.58430033697E+00  0.51109989000E-03 0. -1.
     -623    1    1    2    0    0  0.12719657932E-02 -0.21607425230E-02  0.66698806015E-04  0.17130000002E+03  0.17130000000E+03 0.  1.
      622    1    1    2    0    0 -0.35876916291E-02  0.90846641210E-03  0.34156390860E+01  0.34156996447E+01  0.20000000000E-01 0. -1.
</event>
<event>
 5   0  0.3603037E+08  0.9118800E+02  0.7818608E-02  0.1180000E+00
       11   -1    0    0    0    0  0.00000000000E+00  0.00000000000E+00  0.39999999673E+01  0.40000000000E+01  0.51109989000E-03 0.  1.
     -623   -1    0    0    0    0  0.00000000000E+00  0.00000000000E+00  0.12525980253E-10  0.17130000000E+03  0.17130000000E+03 0.  1.
       11    1    1    2    0    0 -0.25384080675E-02 -0.10558369341E-01  0.18396413216E+01  0.18396734428E+01  0.51109989000E-03 0.  1.
     -623    1    1    2    0    0  0.15218213331E-02  0.43594756094E-02  0.13386462700E-03  0.17130000006E+03  0.17130000000E+03 0.  1.
      622    1    1    2    0    0  0.10165867344E-02  0.61988937320E-02  0.21602247811E+01  0.21603264949E+01  0.20000000000E-01 0.  1.
</event>
<event>
 5   0  0.3603037E+08  0.9118800E+02  0.7818608E-02  0.1180000E+00
       11   -1    0    0    0    0  0.00000000000E+00  0.00000000000E+00  0.39999999673E+01  0.40000000000E+01  0.51109989000E-03 0.  1.
     -623   -1    0    0    0    0  0.00000000000E+00  0.00000000000E+00  0.12525980253E-10  0.17130000000E+03  0.17130000000E+03 0.  1.
       11    1    1    2    0    0 -0.10638061430E-02 -0.36531585206E-03  0.29268233378E-01  0.29294297145E-01  0.51109989000E-03 0.  1.
     -623    1    1    2    0    0 -0.13418556026E-02  0.58774943184E-03  0.77141585998E-04  0.17130000001E+03  0.17130000000E+03 0.  1.
      622    1    1    2    0    0  0.24056617456E-02 -0.22243357978E-03  0.39706545924E+01  0.39707056966E+01  0.20000000000E-01 0.  1.
</event>
<event>
 5   0  0.3603037E+08  0.9118800E+02  0.7818608E-02  0.1180000E+00
       11   -1    0    0    0    0  0.00000000000E+00  0.00000000000E+00  0.39999999673E+01  0.40000000000E+01  0.51109989000E-03 0. -1.
     -623   -1    0    0    0    0  0.00000000000E+00  0.00000000000E+00  0.12525980253E-10  0.17130000000E+03  0.17130000000E+03 0.  1.
       11    1    1    2    0    0 -0.20653033279E-02 -0.18972829125E-02  0.53254867750E+00  0.53255630715E+00  0.51109989000E-03 0. -1.
     -623    1    1    2    0    0 -0.19186360442E-03  0.14029224306E-02  0.66052653950E-04  0.17130000001E+03  0.17130000000E+03 0.  1.
      622    1    1    2    0    0  0.22571669323E-02  0.49436048183E-03  0.34673852372E+01  0.34674436870E+01  0.20000000000E-01 0. -1.
</event>
<event>
 5   0  0.3603037E+08  0.9118800E+02  0.7818608E-02  0.1180000E+00
       11   -1    0    0    0    0  0.00000000000E+00  0.00000000000E+00  0.39999999673E+01  0.40000000000E+01  0.51109989000E-03 0.  1.
     -623   -1    0    0    0    0  0.00000000000E+00  0.00000000000E+00  0.12525980253E-10  0.17130000000E+03  0.17130000000E+03 0.  1.
       11    1    1    2    0    0 -0.29513248950E-02 -0.72604990939E-03  0.11870502741E+01  0.11870542751E+01  0.51109989000E-03 0.  1.
     -623    1    1    2    0    0  0.45235854991E-02  0.23748227521E-02  0.76067891086E-04  0.17130000008E+03  0.17130000000E+03 0.  1.
      622    1    1    2    0    0 -0.15722606041E-02 -0.16487728427E-02  0.28128736254E+01  0.28129456487E+01  0.20000000000E-01 0.  1.
</event>
<event>
 5   0  0.3603037E+08  0.9118800E+02  0.7818608E-02  0.1180000E+00
       11   -1    0    0    0    0  0.00000000000E+00  0.00000000000E+00  0.39999999673E+01  0.40000000000E+01  0.51109989000E-03 0. -1.
     -623   -1    0    0    0    0  0.00000000000E+00  0.00000000000E+00  0.12525980253E-10  0.17130000000E+03  0.17130000000E+03 0. -1.
       11    1    1    2    0    0  0.23633710170E-02 -0.75976240583E-03  0.60336480555E+00  0.60337012900E+00  0.51109989000E-03 0. -1.
     -623    1    1    2    0    0  0.32742554900E-03 -0.25303825290E-04  0.65330099061E-04  0.17130000000E+03  0.17130000000E+03 0. -1.
      622    1    1    2    0    0 -0.26907965660E-02  0.78506623112E-03  0.33965698317E+01  0.33966298707E+01  0.20000000000E-01 0. -1.
</event>
<event>
 5   0  0.3603037E+08  0.9118800E+02  0.7818608E-02  0.1180000E+00
       11   -1    0    0    0    0  0.00000000000E+00  0.00000000000E+00  0.39999999673E+01  0.40000000000E+01  0.51109989000E-03 0.  1.
     -623   -1    0    0    0    0  0.00000000000E+00  0.00000000000E+00  0.12525980253E-10  0.17130000000E+03  0.17130000000E+03 0. -1.
       11    1    1    2    0    0  0.50232486369E-02 -0.53887486389E-02  0.64947522667E+00  0.64951720756E+00  0.51109989000E-03 0.  1.
     -623    1    1    2    0    0 -0.27881452574E-02 -0.23721763152E-02  0.11141507867E-03  0.17130000004E+03  0.17130000000E+03 0. -1.
      622    1    1    2    0    0 -0.22351033795E-02  0.77609249541E-02  0.33504133256E+01  0.33504827533E+01  0.20000000000E-01 0.  1.
</event>
<event>
 5   0  0.3603037E+08  0.9118800E+02  0.7818608E-02  0.1180000E+00
       11   -1    0    0    0    0  0.00000000000E+00  0.00000000000E+00  0.39999999673E+01  0.40000000000E+01  0.51109989000E-03 0.  1.
     -623   -1    0    0    0    0  0.00000000000E+00  0.00000000000E+00  0.12525980253E-10  0.17130000000E+03  0.17130000000E+03 0.  1.
       11    1    1    2    0    0 -0.94104012701E-03  0.97647020995E-03  0.31865013289E-01  0.31897952019E-01  0.51109989000E-03 0.  1.
     -623    1    1    2    0    0  0.74564556274E-03 -0.10203775814E-04  0.83432442458E-04  0.17130000000E+03  0.17130000000E+03 0.  1.
      622    1    1    2    0    0  0.19539456427E-03 -0.96626643413E-03  0.39680515216E+01  0.39681020463E+01  0.20000000000E-01 0.  1.
</event>
<event>
 5   0  0.3603037E+08  0.9118800E+02  0.7818608E-02  0.1180000E+00
       11   -1    0    0    0    0  0.00000000000E+00  0.00000000000E+00  0.39999999673E+01  0.40000000000E+01  0.51109989000E-03 0.  1.
     -623   -1    0    0    0    0  0.00000000000E+00  0.00000000000E+00  0.12525980253E-10  0.17130000000E+03  0.17130000000E+03 0.  1.
       11    1    1    2    0    0 -0.12050730472E-02 -0.29474768476E-02  0.39811388565E+00  0.39812694834E+00  0.51109989000E-03 0.  1.
     -623    1    1    2    0    0  0.60792826117E-03 -0.10589456851E-03  0.69901981310E-04  0.17130000000E+03  0.17130000000E+03 0.  1.
      622    1    1    2    0    0  0.59714478604E-03  0.30533714161E-02  0.36018161797E+01  0.36018730505E+01  0.20000000000E-01 0.  1.
</event>
<event>
 5   0  0.3603037E+08  0.9118800E+02  0.7818608E-02  0.1180000E+00
       11   -1    0    0    0    0  0.00000000000E+00  0.00000000000E+00  0.39999999673E+01  0.40000000000E+01  0.51109989000E-03 0. -1.
     -623   -1    0    0    0    0  0.00000000000E+00  0.00000000000E+00  0.12525980253E-10  0.17130000000E+03  0.17130000000E+03 0. -1.
       11    1    1    2    0    0 -0.11616959865E-01 -0.10617461611E-01  0.61486504477E-01  0.63470746817E-01  0.51109989000E-03 0. -1.
     -623    1    1    2    0    0  0.94870326745E-02 -0.21778082561E-02  0.20566764905E-02  0.17130000029E+03  0.17130000000E+03 0. -1.
      622    1    1    2    0    0  0.21299271907E-02  0.12795269867E-01  0.39364567864E+01  0.39365289643E+01  0.20000000000E-01 0. -1.
</event>
<event>
 5   0  0.3603037E+08  0.9118800E+02  0.7818608E-02  0.1180000E+00
       11   -1    0    0    0    0  0.00000000000E+00  0.00000000000E+00  0.39999999673E+01  0.40000000000E+01  0.51109989000E-03 0.  1.
     -623   -1    0    0    0    0  0.00000000000E+00  0.00000000000E+00  0.12525980253E-10  0.17130000000E+03  0.17130000000E+03 0.  1.
       11    1    1    2    0    0  0.23755757049E-02 -0.37541627295E-02  0.73729241648E-01  0.73864737144E-01  0.51109989000E-03 0.  1.
     -623    1    1    2    0    0 -0.18970438761E-02  0.54552543441E-03  0.18775565334E-03  0.17130000001E+03  0.17130000000E+03 0.  1.
      622    1    1    2    0    0 -0.47853182879E-03  0.32086372951E-02  0.39260829701E+01  0.39261352514E+01  0.20000000000E-01 0.  1.
</event>
<event>
 5   0  0.3603037E+08  0.9118800E+02  0.7818608E-02  0.1180000E+00
       11   -1    0    0    0    0  0.00000000000E+00  0.00000000000E+00  0.39999999673E+01  0.40000000000E+01  0.51109989000E-03 0.  1.
     -623   -1    0    0    0    0  0.00000000000E+00  0.00000000000E+00  0.12525980253E-10  0.17130000000E+03  0.17130000000E+03 0.  1.
       11    1    1    2    0    0  0.19788511367E-03  0.11599331522E-03  0.30907666614E-01  0.30912743171E-01  0.51109989000E-03 0.  1.
     -623    1    1    2    0    0  0.41504477512E-04  0.95540437440E-04  0.55446552624E-04  0.17130000000E+03  0.17130000000E+03 0.  1.
      622    1    1    2    0    0 -0.23938959118E-03 -0.21153375266E-03  0.39690368542E+01  0.39690872568E+01  0.20000000000E-01 0.  1.
</event>
<event>
 5   0  0.3603037E+08  0.9118800E+02  0.7818608E-02  0.1180000E+00
       11   -1    0    0    0    0  0.00000000000E+00  0.00000000000E+00  0.39999999673E+01  0.40000000000E+01  0.51109989000E-03 0. -1.
     -623   -1    0    0    0    0  0.00000000000E+00  0.00000000000E+00  0.12525980253E-10  0.17130000000E+03  0.17130000000E+03 0. -1.
       11    1    1    2    0    0  0.40992517740E-02  0.11853741909E-01  0.46118619026E-01  0.47796477948E-01  0.51109989000E-03 0. -1.
     -623    1    1    2    0    0 -0.50111623359E-02 -0.11424066682E-01  0.17290228183E-02  0.17130000046E+03  0.17130000000E+03 0. -1.
      622    1    1    2    0    0  0.91191056189E-03 -0.42967522739E-03  0.39521523255E+01  0.39522030591E+01  0.20000000000E-01 0. -1.
</event>
<event>
 5   0  0.3603037E+08  0.9118800E+02  0.7818608E-02  0.1180000E+00
       11   -1    0    0    0    0  0.00000000000E+00  0.00000000000E+00  0.39999999673E+01  0.40000000000E+01  0.51109989000E-03 0. -1.
     -623   -1    0    0    0    0  0.00000000000E+00  0.00000000000E+00  0.12525980253E-10  0.17130000000E+03  0.17130000000E+03 0.  1.
       11    1    1    2    0    0  0.14728493258E-02 -0.47574482081E-03  0.38742370536E-02  0.42031599206E-02  0.51109989000E-03 0. -1.
     -623    1    1    2    0    0 -0.10244283621E-03 -0.60763821096E-03  0.37932653631E-03  0.17130000000E+03  0.17130000000E+03 0.  1.
      622    1    1    2    0    0 -0.13704064896E-02  0.10833830318E-02  0.39957464038E+01  0.39957968386E+01  0.20000000000E-01 0. -1.
</event>
<event>
 5   0  0.3603037E+08  0.9118800E+02  0.7818608E-02  0.1180000E+00
       11   -1    0    0    0    0  0.00000000000E+00  0.00000000000E+00  0.39999999673E+01  0.40000000000E+01  0.51109989000E-03 0. -1.
     -623   -1    0    0    0    0  0.00000000000E+00  0.00000000000E+00  0.12525980253E-10  0.17130000000E+03  0.17130000000E+03 0. -1.
       11    1    1    2    0    0 -0.98722705892E-02  0.25181359826E-01  0.67220710359E+00  0.67275122738E+00  0.51109989000E-03 0. -1.
     -623    1    1    2    0    0 -0.11736399582E-02 -0.38326610256E-02  0.69107776378E-03  0.17130000005E+03  0.17130000000E+03 0. -1.
      622    1    1    2    0    0  0.11045910547E-01 -0.21348698800E-01  0.33271017860E+01  0.33272487243E+01  0.20000000000E-01 0. -1.
</event>
<event>
 5   0  0.3603037E+08  0.9118800E+02  0.7818608E-02  0.1180000E+00
       11   -1    0    0    0    0  0.00000000000E+00  0.00000000000E+00  0.39999999673E+01  0.40000000000E+01  0.51109989000E-03 0.  1.
     -623   -1    0    0    0    0  0.00000000000E+00  0.00000000000E+00  0.12525980253E-10  0.17130000000E+03  0.17130000000E+03 0. -1.
       11    1    1    2    0    0  0.80085199473E-02  0.19440980122E-02  0.71841678767E-01  0.72314617735E-01  0.51109989000E-03 0.  1.
     -623    1    1    2    0    0  0.12880157032E-02  0.20091849825E-02  0.53683651378E-03  0.17130000002E+03  0.17130000000E+03 0. -1.
      622    1    1    2    0    0 -0.92965356505E-02 -0.39532829947E-02  0.39276214521E+01  0.39276853648E+01  0.20000000000E-01 0.  1.
</event>
<event>
 5   0  0.3603037E+08  0.9118800E+02  0.7818608E-02  0.1180000E+00
       11   -1    0    0    0    0  0.00000000000E+00  0.00000000000E+00  0.39999999673E+01  0.40000000000E+01  0.51109989000E-03 0.  1.
     -623   -1    0    0    0    0  0.00000000000E+00  0.00000000000E+00  0.12525980253E-10  0.17130000000E+03  0.17130000000E+03 0. -1.
       11    1    1    2    0    0  0.67763455292E-02  0.66984958589E-02  0.38852500908E+00  0.38864216525E+00  0.51109989000E-03 0.  1.
     -623    1    1    2    0    0 -0.77756158500E-02 -0.11913399967E-01  0.17699917690E-03  0.17130000059E+03  0.17130000000E+03 0. -1.
      622    1    1    2    0    0  0.99927032082E-03  0.52149041081E-02  0.36112979591E+01  0.36113572439E+01  0.20000000000E-01 0.  1.
</event>
<event>
 5   0  0.3603037E+08  0.9118800E+02  0.7818608E-02  0.1180000E+00
       11   -1    0    0    0    0  0.00000000000E+00  0.00000000000E+00  0.39999999673E+01  0.40000000000E+01  0.51109989000E-03 0.  1.
     -623   -1    0    0    0    0  0.00000000000E+00  0.00000000000E+00  0.12525980253E-10  0.17130000000E+03  0.17130000000E+03 0.  1.
       11    1    1    2    0    0  0.55881496893E-03  0.56706611474E-03  0.13724682589E-01  0.13757251603E-01  0.51109989000E-03 0.  1.
     -623    1    1    2    0    0  0.55758399169E-04 -0.96851718152E-04  0.82784414806E-04  0.17130000000E+03  0.17130000000E+03 0.  1.
      622    1    1    2    0    0 -0.61457336810E-03 -0.47021439659E-03  0.39861925004E+01  0.39862427483E+01  0.20000000000E-01 0.  1.
</event>
<event>
 5   0  0.3603037E+08  0.9118800E+02  0.7818608E-02  0.1180000E+00
       11   -1    0    0    0    0  0.00000000000E+00  0.00000000000E+00  0.39999999673E+01  0.40000000000E+01  0.51109989000E-03 0.  1.
     -623   -1    0    0    0    0  0.00000000000E+00  0.00000000000E+00  0.12525980253E-10  0.17130000000E+03  0.17130000000E+03 0. -1.
       11    1    1    2    0    0  0.16569332023E-01 -0.11807264889E-01  0.50257904483E+00  0.50299096591E+00  0.51109989000E-03 0.  1.
     -623    1    1    2    0    0 -0.20335068690E-01  0.14820478426E-01  0.47425522721E-03  0.17130000185E+03  0.17130000000E+03 0. -1.
      622    1    1    2    0    0  0.37657366665E-02 -0.30132135362E-02  0.34969466673E+01  0.34970071853E+01  0.20000000000E-01 0.  1.
</event>
<event>
 5   0  0.3603037E+08  0.9118800E+02  0.7818608E-02  0.1180000E+00
       11   -1    0    0    0    0  0.00000000000E+00  0.00000000000E+00  0.39999999673E+01  0.40000000000E+01  0.51109989000E-03 0.  1.
     -623   -1    0    0    0    0  0.00000000000E+00  0.00000000000E+00  0.12525980253E-10  0.17130000000E+03  0.17130000000E+03 0.  1.
       11    1    1    2    0    0  0.48190141156E-02  0.13142613198E-02  0.82975827627E-01  0.83127608965E-01  0.51109989000E-03 0.  1.
     -623    1    1    2    0    0 -0.19096999163E-02  0.41590413667E-02  0.20777607633E-03  0.17130000006E+03  0.17130000000E+03 0.  1.
      622    1    1    2    0    0 -0.29093141994E-02 -0.54733026865E-02  0.39168163637E+01  0.39168723298E+01  0.20000000000E-01 0.  1.
</event>
<event>
 5   0  0.3603037E+08  0.9118800E+02  0.7818608E-02  0.1180000E+00
       11   -1    0    0    0    0  0.00000000000E+00  0.00000000000E+00  0.39999999673E+01  0.40000000000E+01  0.51109989000E-03 0.  1.
     -623   -1    0    0    0    0  0.00000000000E+00  0.00000000000E+00  0.12525980253E-10  0.17130000000E+03  0.17130000000E+03 0. -1.
       11    1    1    2    0    0  0.36817193912E-02 -0.77686153636E-02  0.25989238580E+01  0.25989381269E+01  0.51109989000E-03 0.  1.
     -623    1    1    2    0    0 -0.13640631193E-02  0.84489039306E-03  0.17602673281E-03  0.17130000001E+03  0.17130000000E+03 0. -1.
      622    1    1    2    0    0 -0.23176562719E-02  0.69237249705E-02  0.14009000826E+01  0.14010618655E+01  0.20000000000E-01 0.  0.
</event>
<event>
 5   0  0.3603037E+08  0.9118800E+02  0.7818608E-02  0.1180000E+00
       11   -1    0    0    0    0  0.00000000000E+00  0.00000000000E+00  0.39999999673E+01  0.40000000000E+01  0.51109989000E-03 0.  1.
     -623   -1    0    0    0    0  0.00000000000E+00  0.00000000000E+00  0.12525980253E-10  0.17130000000E+03  0.17130000000E+03 0. -1.
       11    1    1    2    0    0  0.91296565473E-02  0.71526560810E-02  0.21115701665E+01  0.21116020791E+01  0.51109989000E-03 0.  1.
     -623    1    1    2    0    0  0.28708074050E-03 -0.58518180225E-03  0.17269547140E-03  0.17130000000E+03  0.17130000000E+03 0. -1.
      622    1    1    2    0    0 -0.94167372878E-02 -0.65674742787E-02  0.18882571054E+01  0.18883979196E+01  0.20000000000E-01 0. -1.
</event>
<event>
 5   0  0.3603037E+08  0.9118800E+02  0.7818608E-02  0.1180000E+00
       11   -1    0    0    0    0  0.00000000000E+00  0.00000000000E+00  0.39999999673E+01  0.40000000000E+01  0.51109989000E-03 0. -1.
     -623   -1    0    0    0    0  0.00000000000E+00  0.00000000000E+00  0.12525980253E-10  0.17130000000E+03  0.17130000000E+03 0.  1.
       11    1    1    2    0    0  0.43422421346E-02 -0.40225751123E-02  0.10141865173E+01  0.10142039190E+01  0.51109989000E-03 0. -1.
     -623    1    1    2    0    0 -0.60188519332E-02  0.95854463491E-03  0.86504982558E-04  0.17130000011E+03  0.17130000000E+03 0.  1.
      622    1    1    2    0    0  0.16766097987E-02  0.30640304774E-02  0.29857269451E+01  0.29857959726E+01  0.20000000000E-01 0. -1.
</event>
<event>
 5   0  0.3603037E+08  0.9118800E+02  0.7818608E-02  0.1180000E+00
       11   -1    0    0    0    0  0.00000000000E+00  0.00000000000E+00  0.39999999673E+01  0.40000000000E+01  0.51109989000E-03 0.  1.
     -623   -1    0    0    0    0  0.00000000000E+00  0.00000000000E+00  0.12525980253E-10  0.17130000000E+03  0.17130000000E+03 0.  1.
       11    1    1    2    0    0  0.25416113849E-01  0.38130595376E-01  0.13057431609E+01  0.13065471230E+01  0.51109989000E-03 0.  1.
     -623    1    1    2    0    0 -0.35576264801E-02  0.42782003777E-02  0.13008863208E-02  0.17130000010E+03  0.17130000000E+03 0.  1.
      622    1    1    2    0    0 -0.21858487369E-01 -0.42408795754E-01  0.26929559201E+01  0.26934527817E+01  0.20000000000E-01 0.  1.
</event>
<event>
 5   0  0.3603037E+08  0.9118800E+02  0.7818608E-02  0.1180000E+00
       11   -1    0    0    0    0  0.00000000000E+00  0.00000000000E+00  0.39999999673E+01  0.40000000000E+01  0.51109989000E-03 0. -1.
     -623   -1    0    0    0    0  0.00000000000E+00  0.00000000000E+00  0.12525980253E-10  0.17130000000E+03  0.17130000000E+03 0.  1.
       11    1    1    2    0    0  0.73473785070E-03 -0.17495375883E-03  0.11689869569E-01  0.11725387834E-01  0.51109989000E-03 0. -1.
     -623    1    1    2    0    0 -0.11312005518E-02 -0.52405636197E-03  0.85718459875E-04  0.17130000000E+03  0.17130000000E+03 0.  1.
      622    1    1    2    0    0  0.39646270108E-03  0.69901012080E-03  0.39882243793E+01  0.39882746076E+01  0.20000000000E-01 0. -1.
</event>
<event>
 5   0  0.3603037E+08  0.9118800E+02  0.7818608E-02  0.1180000E+00
       11   -1    0    0    0    0  0.00000000000E+00  0.00000000000E+00  0.39999999673E+01  0.40000000000E+01  0.51109989000E-03 0.  1.
     -623   -1    0    0    0    0  0.00000000000E+00  0.00000000000E+00  0.12525980253E-10  0.17130000000E+03  0.17130000000E+03 0.  1.
       11    1    1    2    0    0  0.73962374829E-03 -0.29036618568E-02  0.53477103170E+00  0.53477967039E+00  0.51109989000E-03 0.  1.
     -623    1    1    2    0    0 -0.16626421927E-03 -0.50292912473E-03  0.68045692251E-04  0.17130000000E+03  0.17130000000E+03 0.  1.
      622    1    1    2    0    0 -0.57335952902E-03  0.34065909815E-02  0.34651608900E+01  0.34652203288E+01  0.20000000000E-01 0.  1.
</event>
<event>
 5   0  0.3603037E+08  0.9118800E+02  0.7818608E-02  0.1180000E+00
       11   -1    0    0    0    0  0.00000000000E+00  0.00000000000E+00  0.39999999673E+01  0.40000000000E+01  0.51109989000E-03 0.  1.
     -623   -1    0    0    0    0  0.00000000000E+00  0.00000000000E+00  0.12525980253E-10  0.17130000000E+03  0.17130000000E+03 0.  1.
       11    1    1    2    0    0  0.30264866059E-02  0.26563896161E-02  0.28341807840E+00  0.28344714571E+00  0.51109989000E-03 0.  1.
     -623    1    1    2    0    0  0.64357922768E-03 -0.35345017753E-03  0.85375583233E-04  0.17130000000E+03  0.17130000000E+03 0.  1.
      622    1    1    2    0    0 -0.36700658336E-02 -0.23029394386E-02  0.37164965134E+01  0.37165528527E+01  0.20000000000E-01 0.  1.
</event>
<event>
 5   0  0.3603037E+08  0.9118800E+02  0.7818608E-02  0.1180000E+00
       11   -1    0    0    0    0  0.00000000000E+00  0.00000000000E+00  0.39999999673E+01  0.40000000000E+01  0.51109989000E-03 0. -1.
     -623   -1    0    0    0    0  0.00000000000E+00  0.00000000000E+00  0.12525980253E-10  0.17130000000E+03  0.17130000000E+03 0.  1.
       11    1    1    2    0    0 -0.26372967947E-02 -0.34551524971E-02  0.36876477507E+00  0.36879074550E+00  0.51109989000E-03 0. -1.
     -623    1    1    2    0    0 -0.26752985928E-02 -0.17512677303E-01  0.14635793706E-03  0.17130000092E+03  0.17130000000E+03 0.  1.
      622    1    1    2    0    0  0.53125953875E-02  0.20967829801E-01  0.36310888344E+01  0.36312083384E+01  0.20000000000E-01 0.  0.
</event>
<event>
 5   0  0.3603037E+08  0.9118800E+02  0.7818608E-02  0.1180000E+00
       11   -1    0    0    0    0  0.00000000000E+00  0.00000000000E+00  0.39999999673E+01  0.40000000000E+01  0.51109989000E-03 0.  1.
     -623   -1    0    0    0    0  0.00000000000E+00  0.00000000000E+00  0.12525980253E-10  0.17130000000E+03  0.17130000000E+03 0.  1.
       11    1    1    2    0    0 -0.11011074621E-02  0.46515019491E-02  0.95623660384E+00  0.95624868766E+00  0.51109989000E-03 0.  1.
     -623    1    1    2    0    0  0.11591619203E-02  0.10748264149E-02  0.83154851933E-04  0.17130000001E+03  0.17130000000E+03 0.  1.
      622    1    1    2    0    0 -0.58054458218E-04 -0.57263283640E-02  0.30436802087E+01  0.30437513050E+01  0.20000000000E-01 0.  0.
</event>
<event>
 5   0  0.3603037E+08  0.9118800E+02  0.7818608E-02  0.1180000E+00
       11   -1    0    0    0    0  0.00000000000E+00  0.00000000000E+00  0.39999999673E+01  0.40000000000E+01  0.51109989000E-03 0. -1.
     -623   -1    0    0    0    0  0.00000000000E+00  0.00000000000E+00  0.12525980253E-10  0.17130000000E+03  0.17130000000E+03 0. -1.
       11    1    1    2    0    0 -0.14203936537E-02 -0.14932901478E-02  0.21362143596E+00  0.21363198861E+00  0.51109989000E-03 0. -1.
     -623    1    1    2    0    0  0.40593127430E-04 -0.11708302017E-02  0.64534136541E-04  0.17130000000E+03  0.17130000000E+03 0. -1.
      622    1    1    2    0    0  0.13798005263E-02  0.26641203496E-02  0.37863139973E+01  0.37863680074E+01  0.20000000000E-01 0. -1.
</event>
<event>
 5   0  0.3603037E+08  0.9118800E+02  0.7818608E-02  0.1180000E+00
       11   -1    0    0    0    0  0.00000000000E+00  0.00000000000E+00  0.39999999673E+01  0.40000000000E+01  0.51109989000E-03 0.  1.
     -623   -1    0    0    0    0  0.00000000000E+00  0.00000000000E+00  0.12525980253E-10  0.17130000000E+03  0.17130000000E+03 0. -1.
       11    1    1    2    0    0  0.66718956553E-02 -0.17042600629E-02  0.86244965856E-01  0.86520945729E-01  0.51109989000E-03 0.  1.
     -623    1    1    2    0    0  0.15030110959E-03 -0.56422393681E-03  0.33365829332E-03  0.17130000000E+03  0.17130000000E+03 0. -1.
      622    1    1    2    0    0 -0.68221967649E-02  0.22684839997E-02  0.39134213432E+01  0.39134790530E+01  0.20000000000E-01 0.  1.
</event>
<event>
 5   0  0.3603037E+08  0.9118800E+02  0.7818608E-02  0.1180000E+00
       11   -1    0    0    0    0  0.00000000000E+00  0.00000000000E+00  0.39999999673E+01  0.40000000000E+01  0.51109989000E-03 0. -1.
     -623   -1    0    0    0    0  0.00000000000E+00  0.00000000000E+00  0.12525980253E-10  0.17130000000E+03  0.17130000000E+03 0.  1.
       11    1    1    2    0    0 -0.97499758583E-03  0.44032510240E-02  0.36040049516E-01  0.36324724768E-01  0.51109989000E-03 0. -1.
     -623    1    1    2    0    0 -0.14687099846E-02 -0.33649944531E-02  0.33603012917E-03  0.17130000004E+03  0.17130000000E+03 0.  1.
      622    1    1    2    0    0  0.24437075705E-02 -0.10382565709E-02  0.39636238877E+01  0.39636752356E+01  0.20000000000E-01 0. -1.
</event>
<event>
 5   0  0.3603037E+08  0.9118800E+02  0.7818608E-02  0.1180000E+00
       11   -1    0    0    0    0  0.00000000000E+00  0.00000000000E+00  0.39999999673E+01  0.40000000000E+01  0.51109989000E-03 0. -1.
     -623   -1    0    0    0    0  0.00000000000E+00  0.00000000000E+00  0.12525980253E-10  0.17130000000E+03  0.17130000000E+03 0. -1.
       11    1    1    2    0    0  0.83972990173E-03  0.12963314675E-02  0.14774627617E+01  0.14774636574E+01  0.51109989000E-03 0. -1.
     -623    1    1    2    0    0 -0.11378319127E-02 -0.16554935639E-03  0.80424574395E-04  0.17130000000E+03  0.17130000000E+03 0. -1.
      622    1    1    2    0    0  0.29810201099E-03 -0.11307821111E-02  0.25224567811E+01  0.25225363387E+01  0.20000000000E-01 0. -1.
</event>
<event>
 5   0  0.3603037E+08  0.9118800E+02  0.7818608E-02  0.1180000E+00
       11   -1    0    0    0    0  0.00000000000E+00  0.00000000000E+00  0.39999999673E+01  0.40000000000E+01  0.51109989000E-03 0. -1.
     -623   -1    0    0    0    0  0.00000000000E+00  0.00000000000E+00  0.12525980253E-10  0.17130000000E+03  0.17130000000E+03 0. -1.
       11    1    1    2    0    0 -0.99077272863E-03  0.14576453443E-02  0.13744675369E+00  0.13745900364E+00  0.51109989000E-03 0. -1.
     -623    1    1    2    0    0  0.62000380534E-03  0.25038177263E-03  0.64393807250E-04  0.17130000000E+03  0.17130000000E+03 0. -1.
      622    1    1    2    0    0  0.37076892329E-03 -0.17080271169E-02  0.38624888199E+01  0.38625409950E+01  0.20000000000E-01 0. -1.
</event>
<event>
 5   0  0.3603037E+08  0.9118800E+02  0.7818608E-02  0.1180000E+00
       11   -1    0    0    0    0  0.00000000000E+00  0.00000000000E+00  0.39999999673E+01  0.40000000000E+01  0.51109989000E-03 0.  1.
     -623   -1    0    0    0    0  0.00000000000E+00  0.00000000000E+00  0.12525980253E-10  0.17130000000E+03  0.17130000000E+03 0. -1.
       11    1    1    2    0    0 -0.20076990272E-02  0.54915995489E-02  0.43309965080E+00  0.43313942013E+00  0.51109989000E-03 0.  1.
     -623    1    1    2    0    0  0.12724885239E-02 -0.53273306064E-02  0.95975991894E-04  0.17130000009E+03  0.17130000000E+03 0. -1.
      622    1    1    2    0    0  0.73521050338E-03 -0.16426894253E-03  0.35668043406E+01  0.35668604923E+01  0.20000000000E-01 0.  0.
</event>
<event>
 5   0  0.3603037E+08  0.9118800E+02  0.7818608E-02  0.1180000E+00
       11   -1    0    0    0    0  0.00000000000E+00  0.00000000000E+00  0.39999999673E+01  0.40000000000E+01  0.51109989000E-03 0.  1.
     -623   -1    0    0    0    0  0.00000000000E+00  0.00000000000E+00  0.12525980253E-10  0.17130000000E+03  0.17130000000E+03 0. -1.
       11    1    1    2    0    0  0.69886262495E-02 -0.13998551859E-02  0.52358727421E+00  0.52363603335E+00  0.51109989000E-03 0.  1.
     -623    1    1    2    0    0  0.10795834815E-03  0.32749160032E-03  0.11366768648E-03  0.17130000000E+03  0.17130000000E+03 0. -1.
      622    1    1    2    0    0 -0.70965845977E-02  0.10723635856E-02  0.34762990255E+01  0.34763639663E+01  0.20000000000E-01 0.  1.
</event>
<event>
 5   0  0.3603037E+08  0.9118800E+02  0.7818608E-02  0.1180000E+00
       11   -1    0    0    0    0  0.00000000000E+00  0.00000000000E+00  0.39999999673E+01  0.40000000000E+01  0.51109989000E-03 0.  1.
     -623   -1    0    0    0    0  0.00000000000E+00  0.00000000000E+00  0.12525980253E-10  0.17130000000E+03  0.17130000000E+03 0. -1.
       11    1    1    2    0    0  0.74217969073E-03  0.20365410955E-02  0.27243972539E+00  0.27244882735E+00  0.51109989000E-03 0.  1.
     -623    1    1    2    0    0 -0.49050699827E-02  0.10348824821E-03  0.65733389865E-04  0.17130000007E+03  0.17130000000E+03 0. -1.
      622    1    1    2    0    0  0.41628902920E-02 -0.21400293437E-02  0.37274945086E+01  0.37275511024E+01  0.20000000000E-01 0.  1.
</event>
<event>
 5   0  0.3603037E+08  0.9118800E+02  0.7818608E-02  0.1180000E+00
       11   -1    0    0    0    0  0.00000000000E+00  0.00000000000E+00  0.39999999673E+01  0.40000000000E+01  0.51109989000E-03 0.  1.
     -623   -1    0    0    0    0  0.00000000000E+00  0.00000000000E+00  0.12525980253E-10  0.17130000000E+03  0.17130000000E+03 0.  1.
       11    1    1    2    0    0  0.15018597167E-01  0.46704572315E-02  0.16024618410E+01  0.16025391054E+01  0.51109989000E-03 0.  1.
     -623    1    1    2    0    0 -0.94516759832E-02  0.20183315083E-02  0.17672210357E-03  0.17130000027E+03  0.17130000000E+03 0.  1.
      622    1    1    2    0    0 -0.55669211839E-02 -0.66887887399E-02  0.23973614043E+01  0.23974606219E+01  0.20000000000E-01 0.  0.
</event>
<event>
 5   0  0.3603037E+08  0.9118800E+02  0.7818608E-02  0.1180000E+00
       11   -1    0    0    0    0  0.00000000000E+00  0.00000000000E+00  0.39999999673E+01  0.40000000000E+01  0.51109989000E-03 0. -1.
     -623   -1    0    0    0    0  0.00000000000E+00  0.00000000000E+00  0.12525980253E-10  0.17130000000E+03  0.17130000000E+03 0. -1.
       11    1    1    2    0    0  0.22973709127E-02  0.18575479496E-02  0.15467219214E-01  0.15755141646E-01  0.51109989000E-03 0. -1.
     -623    1    1    2    0    0  0.12630830609E-02 -0.28365637263E-02  0.33982748104E-03  0.17130000003E+03  0.17130000000E+03 0. -1.
      622    1    1    2    0    0 -0.35604539737E-02  0.97901577668E-03  0.39841929207E+01  0.39842448299E+01  0.20000000000E-01 0. -1.
</event>
<event>
 5   0  0.3603037E+08  0.9118800E+02  0.7818608E-02  0.1180000E+00
       11   -1    0    0    0    0  0.00000000000E+00  0.00000000000E+00  0.39999999673E+01  0.40000000000E+01  0.51109989000E-03 0.  1.
     -623   -1    0    0    0    0  0.00000000000E+00  0.00000000000E+00  0.12525980253E-10  0.17130000000E+03  0.17130000000E+03 0.  1.
       11    1    1    2    0    0  0.43366023982E-02  0.11882149362E-01  0.53959702369E+00  0.53974549631E+00  0.51109989000E-03 0.  1.
     -623    1    1    2    0    0 -0.20740215381E-02  0.41891316819E-02  0.24436603901E-03  0.17130000006E+03  0.17130000000E+03 0.  1.
      622    1    1    2    0    0 -0.22625808601E-02 -0.16071281044E-01  0.34601585776E+01  0.34602544397E+01  0.20000000000E-01 0.  1.
</event>
<event>
 5   0  0.3603037E+08  0.9118800E+02  0.7818608E-02  0.1180000E+00
       11   -1    0    0    0    0  0.00000000000E+00  0.00000000000E+00  0.39999999673E+01  0.40000000000E+01  0.51109989000E-03 0. -1.
     -623   -1    0    0    0    0  0.00000000000E+00  0.00000000000E+00  0.12525980253E-10  0.17130000000E+03  0.17130000000E+03 0.  1.
       11    1    1    2    0    0 -0.14392409138E-01 -0.24085829462E-01  0.55050283567E+00  0.55121765386E+00  0.51109989000E-03 0. -1.
     -623    1    1    2    0    0  0.21174661099E-02  0.25791237578E-02  0.86171760181E-03  0.17130000003E+03  0.17130000000E+03 0.  1.
      622    1    1    2    0    0  0.12274943028E-01  0.21506705704E-01  0.34486354141E+01  0.34487823115E+01  0.20000000000E-01 0. -1.
</event>
<event>
 5   0  0.3603037E+08  0.9118800E+02  0.7818608E-02  0.1180000E+00
       11   -1    0    0    0    0  0.00000000000E+00  0.00000000000E+00  0.39999999673E+01  0.40000000000E+01  0.51109989000E-03 0.  1.
     -623   -1    0    0    0    0  0.00000000000E+00  0.00000000000E+00  0.12525980253E-10  0.17130000000E+03  0.17130000000E+03 0. -1.
       11    1    1    2    0    0  0.19658868937E-02  0.31888348389E-03  0.67139945610E-01  0.67171421872E-01  0.51109989000E-03 0.  1.
     -623    1    1    2    0    0  0.24099995835E-03 -0.67684369293E-03  0.82934951030E-04  0.17130000000E+03  0.17130000000E+03 0. -1.
      622    1    1    2    0    0 -0.22068868520E-02  0.35796020904E-03  0.39327770868E+01  0.39328285766E+01  0.20000000000E-01 0.  1.
</event>
<event>
 5   0  0.3603037E+08  0.9118800E+02  0.7818608E-02  0.1180000E+00
       11   -1    0    0    0    0  0.00000000000E+00  0.00000000000E+00  0.39999999673E+01  0.40000000000E+01  0.51109989000E-03 0. -1.
     -623   -1    0    0    0    0  0.00000000000E+00  0.00000000000E+00  0.12525980253E-10  0.17130000000E+03  0.17130000000E+03 0. -1.
       11    1    1    2    0    0 -0.46607205852E-03  0.22174757639E-02  0.20094368099E+01  0.20094381525E+01  0.51109989000E-03 0. -1.
     -623    1    1    2    0    0  0.60193861938E-02 -0.52921300992E-02  0.11209566718E-03  0.17130000019E+03  0.17130000000E+03 0. -1.
      622    1    1    2    0    0 -0.55533141353E-02  0.30746543353E-02  0.19904510618E+01  0.19905616600E+01  0.20000000000E-01 0. -1.
</event>
<event>
 5   0  0.3603037E+08  0.9118800E+02  0.7818608E-02  0.1180000E+00
       11   -1    0    0    0    0  0.00000000000E+00  0.00000000000E+00  0.39999999673E+01  0.40000000000E+01  0.51109989000E-03 0. -1.
     -623   -1    0    0    0    0  0.00000000000E+00  0.00000000000E+00  0.12525980253E-10  0.17130000000E+03  0.17130000000E+03 0.  1.
       11    1    1    2    0    0  0.34860008969E-02  0.92536050940E-04  0.43140806908E-01  0.43284537727E-01  0.51109989000E-03 0. -1.
     -623    1    1    2    0    0 -0.23285750073E-03 -0.21042863569E-03  0.19558499030E-03  0.17130000000E+03  0.17130000000E+03 0.  1.
      622    1    1    2    0    0 -0.32531433961E-02  0.11789258475E-03  0.39566635755E+01  0.39567154619E+01  0.20000000000E-01 0. -1.
</event>
<event>
 5   0  0.3603037E+08  0.9118800E+02  0.7818608E-02  0.1180000E+00
       11   -1    0    0    0    0  0.00000000000E+00  0.00000000000E+00  0.39999999673E+01  0.40000000000E+01  0.51109989000E-03 0. -1.
     -623   -1    0    0    0    0  0.00000000000E+00  0.00000000000E+00  0.12525980253E-10  0.17130000000E+03  0.17130000000E+03 0. -1.
       11    1    1    2    0    0  0.91081585292E-03  0.40583571870E-03  0.59625407512E-01  0.59635934887E-01  0.51109989000E-03 0. -1.
     -623    1    1    2    0    0 -0.38548167817E-03 -0.55083539165E-03  0.61290811108E-04  0.17130000000E+03  0.17130000000E+03 0. -1.
      622    1    1    2    0    0 -0.52533417475E-03  0.14499967295E-03  0.39403132690E+01  0.39403640638E+01  0.20000000000E-01 0. -1.
</event>
<event>
 5   0  0.3603037E+08  0.9118800E+02  0.7818608E-02  0.1180000E+00
       11   -1    0    0    0    0  0.00000000000E+00  0.00000000000E+00  0.39999999673E+01  0.40000000000E+01  0.51109989000E-03 0. -1.
     -623   -1    0    0    0    0  0.00000000000E+00  0.00000000000E+00  0.12525980253E-10  0.17130000000E+03  0.17130000000E+03 0.  1.
       11    1    1    2    0    0 -0.80925563061E-02 -0.14431103522E-01  0.16693916339E+01  0.16694737000E+01  0.51109989000E-03 0. -1.
     -623    1    1    2    0    0  0.14811347725E-02  0.11168837258E-01  0.17988473747E-03  0.17130000037E+03  0.17130000000E+03 0.  1.
      622    1    1    2    0    0  0.66114215336E-02  0.32622662638E-02  0.23304284487E+01  0.23305259294E+01  0.20000000000E-01 0.  0.
</event>
<event>
 5   0  0.3603037E+08  0.9118800E+02  0.7818608E-02  0.1180000E+00
       11   -1    0    0    0    0  0.00000000000E+00  0.00000000000E+00  0.39999999673E+01  0.40000000000E+01  0.51109989000E-03 0.  1.
     -623   -1    0    0    0    0  0.00000000000E+00  0.00000000000E+00  0.12525980253E-10  0.17130000000E+03  0.17130000000E+03 0. -1.
       11    1    1    2    0    0  0.10720139313E-02 -0.24056792271E-03  0.13598016888E-01  0.13651899892E-01  0.51109989000E-03 0.  1.
     -623    1    1    2    0    0 -0.15398472054E-02  0.94694465161E-03  0.10412152083E-03  0.17130000001E+03  0.17130000000E+03 0. -1.
      622    1    1    2    0    0  0.46783327410E-03 -0.70637672890E-03  0.39862978290E+01  0.39863480905E+01  0.20000000000E-01 0.  1.
</event>
<event>
 5   0  0.3603037E+08  0.9118800E+02  0.7818608E-02  0.1180000E+00
       11   -1    0    0    0    0  0.00000000000E+00  0.00000000000E+00  0.39999999673E+01  0.40000000000E+01  0.51109989000E-03 0.  1.
     -623   -1    0    0    0    0  0.00000000000E+00  0.00000000000E+00  0.12525980253E-10  0.17130000000E+03  0.17130000000E+03 0. -1.
       11    1    1    2    0    0  0.73031501372E-02  0.16368133632E-01  0.23602157338E+01  0.23602838437E+01  0.51109989000E-03 0.  1.
     -623    1    1    2    0    0  0.20185331493E-02 -0.15865854594E-01  0.21737674534E-03  0.17130000075E+03  0.17130000000E+03 0. -1.
      622    1    1    2    0    0 -0.93216832866E-02 -0.50227903818E-03  0.16395668568E+01  0.16397154095E+01  0.20000000000E-01 0. -1.
</event>
<event>
 5   0  0.3603037E+08  0.9118800E+02  0.7818608E-02  0.1180000E+00
       11   -1    0    0    0    0  0.00000000000E+00  0.00000000000E+00  0.39999999673E+01  0.40000000000E+01  0.51109989000E-03 0.  1.
     -623   -1    0    0    0    0  0.00000000000E+00  0.00000000000E+00  0.12525980253E-10  0.17130000000E+03  0.17130000000E+03 0.  1.
       11    1    1    2    0    0 -0.18565706341E-02 -0.46362787811E-02  0.56786796933E-01  0.57008275396E-01  0.51109989000E-03 0.  1.
     -623    1    1    2    0    0 -0.58167702033E-03  0.13985643028E-02  0.27425916886E-03  0.17130000001E+03  0.17130000000E+03 0.  1.
      622    1    1    2    0    0  0.24382476544E-02  0.32377144783E-02  0.39429389113E+01  0.39429917177E+01  0.20000000000E-01 0.  1.
</event>
<event>
 5   0  0.3603037E+08  0.9118800E+02  0.7818608E-02  0.1180000E+00
       11   -1    0    0    0    0  0.00000000000E+00  0.00000000000E+00  0.39999999673E+01  0.40000000000E+01  0.51109989000E-03 0.  1.
     -623   -1    0    0    0    0  0.00000000000E+00  0.00000000000E+00  0.12525980253E-10  0.17130000000E+03  0.17130000000E+03 0.  1.
       11    1    1    2    0    0 -0.28490495383E-02  0.14121521923E-02  0.30503180789E+00  0.30504880970E+00  0.51109989000E-03 0.  1.
     -623    1    1    2    0    0  0.33386621631E-01 -0.60168790882E-02  0.20352195453E-03  0.17130000336E+03  0.17130000000E+03 0.  1.
      622    1    1    2    0    0 -0.30537572093E-01  0.46047268959E-02  0.36947646375E+01  0.36949478310E+01  0.20000000000E-01 0.  0.
</event>
<event>
 5   0  0.3603037E+08  0.9118800E+02  0.7818608E-02  0.1180000E+00
       11   -1    0    0    0    0  0.00000000000E+00  0.00000000000E+00  0.39999999673E+01  0.40000000000E+01  0.51109989000E-03 0.  1.
     -623   -1    0    0    0    0  0.00000000000E+00  0.00000000000E+00  0.12525980253E-10  0.17130000000E+03  0.17130000000E+03 0. -1.
       11    1    1    2    0    0  0.21572190577E-01 -0.10752524703E-01  0.31291681407E+00  0.31384418100E+00  0.51109989000E-03 0.  1.
     -623    1    1    2    0    0 -0.25096245872E-01  0.92400274457E-03  0.99822339001E-03  0.17130000184E+03  0.17130000000E+03 0. -1.
      622    1    1    2    0    0  0.35240552945E-02  0.98285219582E-02  0.36860849299E+01  0.36861539752E+01  0.20000000000E-01 0.  1.
</event>
<event>
 5   0  0.3603037E+08  0.9118800E+02  0.7818608E-02  0.1180000E+00
       11   -1    0    0    0    0  0.00000000000E+00  0.00000000000E+00  0.39999999673E+01  0.40000000000E+01  0.51109989000E-03 0.  1.
     -623   -1    0    0    0    0  0.00000000000E+00  0.00000000000E+00  0.12525980253E-10  0.17130000000E+03  0.17130000000E+03 0.  1.
       11    1    1    2    0    0  0.78445958745E-02 -0.24794460429E-01  0.12864265896E+01  0.12866895253E+01  0.51109989000E-03 0.  1.
     -623    1    1    2    0    0 -0.10138213820E-02  0.11536944277E-02  0.44821549965E-03  0.17130000001E+03  0.17130000000E+03 0.  1.
      622    1    1    2    0    0 -0.68307744925E-02  0.23640766002E-01  0.27131251623E+01  0.27133104672E+01  0.20000000000E-01 0.  0.
</event>
<event>
 5   0  0.3603037E+08  0.9118800E+02  0.7818608E-02  0.1180000E+00
       11   -1    0    0    0    0  0.00000000000E+00  0.00000000000E+00  0.39999999673E+01  0.40000000000E+01  0.51109989000E-03 0.  1.
     -623   -1    0    0    0    0  0.00000000000E+00  0.00000000000E+00  0.12525980253E-10  0.17130000000E+03  0.17130000000E+03 0. -1.
       11    1    1    2    0    0 -0.10282702394E-02  0.17347603292E-02  0.19024393441E+00  0.19025530881E+00  0.51109989000E-03 0.  1.
     -623    1    1    2    0    0 -0.18110985492E-03  0.15417125451E-05  0.64426818974E-04  0.17130000000E+03  0.17130000000E+03 0. -1.
      622    1    1    2    0    0  0.12093800943E-02 -0.17363020417E-02  0.38096916061E+01  0.38097446911E+01  0.20000000000E-01 0.  1.
</event>
<event>
 5   0  0.3603037E+08  0.9118800E+02  0.7818608E-02  0.1180000E+00
       11   -1    0    0    0    0  0.00000000000E+00  0.00000000000E+00  0.39999999673E+01  0.40000000000E+01  0.51109989000E-03 0.  1.
     -623   -1    0    0    0    0  0.00000000000E+00  0.00000000000E+00  0.12525980253E-10  0.17130000000E+03  0.17130000000E+03 0. -1.
       11    1    1    2    0    0  0.11164786102E-01 -0.84412671443E-02  0.13546348492E+01  0.13547072537E+01  0.51109989000E-03 0.  1.
     -623    1    1    2    0    0  0.11742967637E-02  0.56367092997E-02  0.17834167548E-03  0.17130000010E+03  0.17130000000E+03 0. -1.
      622    1    1    2    0    0 -0.12339082865E-01  0.28045578446E-02  0.26451867765E+01  0.26452926494E+01  0.20000000000E-01 0.  1.
</event>
<event>
 5   0  0.3603037E+08  0.9118800E+02  0.7818608E-02  0.1180000E+00
       11   -1    0    0    0    0  0.00000000000E+00  0.00000000000E+00  0.39999999673E+01  0.40000000000E+01  0.51109989000E-03 0.  1.
     -623   -1    0    0    0    0  0.00000000000E+00  0.00000000000E+00  0.12525980253E-10  0.17130000000E+03  0.17130000000E+03 0. -1.
       11    1    1    2    0    0 -0.70101953038E-04  0.14276480444E-02  0.14344402587E-01  0.14424499995E-01  0.51109989000E-03 0.  1.
     -623    1    1    2    0    0  0.74879030134E-03 -0.11231882359E-02  0.13032082678E-03  0.17130000001E+03  0.17130000000E+03 0. -1.
      622    1    1    2    0    0 -0.67868834831E-03 -0.30445980850E-03  0.39855252439E+01  0.39855754946E+01  0.20000000000E-01 0.  1.
</event>
<event>
 5   0  0.3603037E+08  0.9118800E+02  0.7818608E-02  0.1180000E+00
       11   -1    0    0    0    0  0.00000000000E+00  0.00000000000E+00  0.39999999673E+01  0.40000000000E+01  0.51109989000E-03 0. -1.
     -623   -1    0    0    0    0  0.00000000000E+00  0.00000000000E+00  0.12525980253E-10  0.17130000000E+03  0.17130000000E+03 0.  1.
       11    1    1    2    0    0 -0.67493320331E-02  0.21770307989E-02  0.10348569722E+00  0.10372966642E+00  0.51109989000E-03 0. -1.
     -623    1    1    2    0    0  0.21634173860E-03  0.14062415000E-02  0.30239905205E-03  0.17130000001E+03  0.17130000000E+03 0.  1.
      622    1    1    2    0    0  0.65329902945E-02 -0.35832722990E-02  0.38962118711E+01  0.38962703274E+01  0.20000000000E-01 0. -1.
</event>
<event>
 5   0  0.3603037E+08  0.9118800E+02  0.7818608E-02  0.1180000E+00
       11   -1    0    0    0    0  0.00000000000E+00  0.00000000000E+00  0.39999999673E+01  0.40000000000E+01  0.51109989000E-03 0. -1.
     -623   -1    0    0    0    0  0.00000000000E+00  0.00000000000E+00  0.12525980253E-10  0.17130000000E+03  0.17130000000E+03 0.  1.
       11    1    1    2    0    0 -0.18936504051E-02  0.55672183775E-03  0.84641113371E-02  0.87062192393E-02  0.51109989000E-03 0. -1.
     -623    1    1    2    0    0  0.21179240530E-02 -0.22053705391E-02  0.29255898318E-03  0.17130000003E+03  0.17130000000E+03 0.  1.
      622    1    1    2    0    0 -0.22427364786E-03  0.16486487014E-02  0.39912432970E+01  0.39912937532E+01  0.20000000000E-01 0. -1.
</event>
<event>
 5   0  0.3603037E+08  0.9118800E+02  0.7818608E-02  0.1180000E+00
       11   -1    0    0    0    0  0.00000000000E+00  0.00000000000E+00  0.39999999673E+01  0.40000000000E+01  0.51109989000E-03 0. -1.
     -623   -1    0    0    0    0  0.00000000000E+00  0.00000000000E+00  0.12525980253E-10  0.17130000000E+03  0.17130000000E+03 0.  1.
       11    1    1    2    0    0 -0.10251179466E-01 -0.10056341288E-01  0.15650878349E+01  0.15651537972E+01  0.51109989000E-03 0. -1.
     -623    1    1    2    0    0 -0.40834102388E-03 -0.66179513943E-03  0.19499932384E-03  0.17130000000E+03  0.17130000000E+03 0.  1.
      622    1    1    2    0    0  0.10659520490E-01  0.10718136428E-01  0.24347171331E+01  0.24348462009E+01  0.20000000000E-01 0.  0.
</event>
<event>
 5   0  0.3603037E+08  0.9118800E+02  0.7818608E-02  0.1180000E+00
       11   -1    0    0    0    0  0.00000000000E+00  0.00000000000E+00  0.39999999673E+01  0.40000000000E+01  0.51109989000E-03 0. -1.
     -623   -1    0    0    0    0  0.00000000000E+00  0.00000000000E+00  0.12525980253E-10  0.17130000000E+03  0.17130000000E+03 0.  1.
       11    1    1    2    0    0 -0.16496740731E-02 -0.17600406580E-04  0.58072515441E-02  0.60586406696E-02  0.51109989000E-03 0. -1.
     -623    1    1    2    0    0  0.33755991592E-02  0.29335009684E-02  0.30292865050E-03  0.17130000006E+03  0.17130000000E+03 0.  1.
      622    1    1    2    0    0 -0.17259250861E-02 -0.29159005618E-02  0.39938897872E+01  0.39939413007E+01  0.20000000000E-01 0. -1.
</event>
<event>
 5   0  0.3603037E+08  0.9118800E+02  0.7818608E-02  0.1180000E+00
       11   -1    0    0    0    0  0.00000000000E+00  0.00000000000E+00  0.39999999673E+01  0.40000000000E+01  0.51109989000E-03 0.  1.
     -623   -1    0    0    0    0  0.00000000000E+00  0.00000000000E+00  0.12525980253E-10  0.17130000000E+03  0.17130000000E+03 0. -1.
       11    1    1    2    0    0  0.92499619128E-02 -0.77456347765E-02  0.26892872002E+01  0.26893143109E+01  0.51109989000E-03 0.  1.
     -623    1    1    2    0    0  0.12404872292E-02  0.25428889507E-02  0.23201730048E-03  0.17130000002E+03  0.17130000000E+03 0. -1.
      622    1    1    2    0    0 -0.10490449142E-01  0.52027458258E-02  0.13104807499E+01  0.13106856656E+01  0.20000000000E-01 0. -1.
</event>
<event>
 5   0  0.3603037E+08  0.9118800E+02  0.7818608E-02  0.1180000E+00
       11   -1    0    0    0    0  0.00000000000E+00  0.00000000000E+00  0.39999999673E+01  0.40000000000E+01  0.51109989000E-03 0. -1.
     -623   -1    0    0    0    0  0.00000000000E+00  0.00000000000E+00  0.12525980253E-10  0.17130000000E+03  0.17130000000E+03 0.  1.
       11    1    1    2    0    0 -0.50331508262E-02 -0.72143303057E-02  0.20161850068E+00  0.20181095165E+00  0.51109989000E-03 0. -1.
     -623    1    1    2    0    0  0.14832948008E-01  0.11418514227E-01  0.26106771973E-03  0.17130000102E+03  0.17130000000E+03 0.  1.
      622    1    1    2    0    0 -0.97997971816E-02 -0.42041839218E-02  0.37981203990E+01  0.37981880254E+01  0.20000000000E-01 0. -1.
</event>
<event>
 5   0  0.3603037E+08  0.9118800E+02  0.7818608E-02  0.1180000E+00
       11   -1    0    0    0    0  0.00000000000E+00  0.00000000000E+00  0.39999999673E+01  0.40000000000E+01  0.51109989000E-03 0. -1.
     -623   -1    0    0    0    0  0.00000000000E+00  0.00000000000E+00  0.12525980253E-10  0.17130000000E+03  0.17130000000E+03 0. -1.
       11    1    1    2    0    0 -0.16169256506E-01  0.27303929633E-02  0.24564615479E+00  0.24619340870E+00  0.51109989000E-03 0. -1.
     -623    1    1    2    0    0  0.46630168393E-02 -0.42552653409E-02  0.61856292030E-03  0.17130000012E+03  0.17130000000E+03 0. -1.
      622    1    1    2    0    0  0.11506239666E-01  0.15248723777E-02  0.37537352496E+01  0.37538064739E+01  0.20000000000E-01 0. -1.
</event>
<event>
 5   0  0.3603037E+08  0.9118800E+02  0.7818608E-02  0.1180000E+00
       11   -1    0    0    0    0  0.00000000000E+00  0.00000000000E+00  0.39999999673E+01  0.40000000000E+01  0.51109989000E-03 0. -1.
     -623   -1    0    0    0    0  0.00000000000E+00  0.00000000000E+00  0.12525980253E-10  0.17130000000E+03  0.17130000000E+03 0.  1.
       11    1    1    2    0    0  0.15119207550E-02  0.67132365567E-03  0.95813874283E-01  0.95829516882E-01  0.51109989000E-03 0. -1.
     -623    1    1    2    0    0  0.61798689593E-04  0.42181706557E-03  0.67308324944E-04  0.17130000000E+03  0.17130000000E+03 0.  1.
      622    1    1    2    0    0 -0.15737194446E-02 -0.10931407212E-02  0.39041187848E+01  0.39041704826E+01  0.20000000000E-01 0. -1.
</event>
<event>
 5   0  0.3603037E+08  0.9118800E+02  0.7818608E-02  0.1180000E+00
       11   -1    0    0    0    0  0.00000000000E+00  0.00000000000E+00  0.39999999673E+01  0.40000000000E+01  0.51109989000E-03 0.  1.
     -623   -1    0    0    0    0  0.00000000000E+00  0.00000000000E+00  0.12525980253E-10  0.17130000000E+03  0.17130000000E+03 0.  1.
       11    1    1    2    0    0  0.54137782844E-02  0.34415245588E-02  0.13351699320E+00  0.13367199326E+00  0.51109989000E-03 0.  1.
     -623    1    1    2    0    0 -0.27716122684E-03  0.31383098820E-03  0.21193306509E-03  0.17130000000E+03  0.17130000000E+03 0.  1.
      622    1    1    2    0    0 -0.51366170576E-02 -0.37553555470E-02  0.38662710411E+01  0.38663280061E+01  0.20000000000E-01 0.  1.
</event>
<event>
 5   0  0.3603037E+08  0.9118800E+02  0.7818608E-02  0.1180000E+00
       11   -1    0    0    0    0  0.00000000000E+00  0.00000000000E+00  0.39999999673E+01  0.40000000000E+01  0.51109989000E-03 0. -1.
     -623   -1    0    0    0    0  0.00000000000E+00  0.00000000000E+00  0.12525980253E-10  0.17130000000E+03  0.17130000000E+03 0.  1.
       11    1    1    2    0    0  0.39001072265E-02  0.17096693817E-02  0.38029010459E+00  0.38031428934E+00  0.51109989000E-03 0. -1.
     -623    1    1    2    0    0 -0.38772563201E-03  0.33873547858E-03  0.81690507429E-04  0.17130000000E+03  0.17130000000E+03 0.  1.
      622    1    1    2    0    0 -0.35123815945E-02 -0.20484048603E-02  0.36196281723E+01  0.36196857099E+01  0.20000000000E-01 0. -1.
</event>
<event>
 5   0  0.3603037E+08  0.9118800E+02  0.7818608E-02  0.1180000E+00
       11   -1    0    0    0    0  0.00000000000E+00  0.00000000000E+00  0.39999999673E+01  0.40000000000E+01  0.51109989000E-03 0.  1.
     -623   -1    0    0    0    0  0.00000000000E+00  0.00000000000E+00  0.12525980253E-10  0.17130000000E+03  0.17130000000E+03 0.  1.
       11    1    1    2    0    0 -0.65871203662E-03 -0.28247901833E-03  0.18423384426E-01  0.18444403240E-01  0.51109989000E-03 0.  1.
     -623    1    1    2    0    0 -0.11769858598E-03  0.10956623841E-03  0.71297661129E-04  0.17130000000E+03  0.17130000000E+03 0.  1.
      622    1    1    2    0    0  0.77641062260E-03  0.17291277993E-03  0.39815052853E+01  0.39815555967E+01  0.20000000000E-01 0.  1.
</event>
<event>
 5   0  0.3603037E+08  0.9118800E+02  0.7818608E-02  0.1180000E+00
       11   -1    0    0    0    0  0.00000000000E+00  0.00000000000E+00  0.39999999673E+01  0.40000000000E+01  0.51109989000E-03 0. -1.
     -623   -1    0    0    0    0  0.00000000000E+00  0.00000000000E+00  0.12525980253E-10  0.17130000000E+03  0.17130000000E+03 0.  1.
       11    1    1    2    0    0  0.22774759792E-03  0.13272495500E-02  0.43350154191E+00  0.43350393484E+00  0.51109989000E-03 0. -1.
     -623    1    1    2    0    0  0.10374697999E-03  0.59515783713E-04  0.58723248851E-04  0.17130000000E+03  0.17130000000E+03 0.  1.
      622    1    1    2    0    0 -0.33149457791E-03 -0.13867653337E-02  0.35664397022E+01  0.35664960651E+01  0.20000000000E-01 0. -1.
</event>
<event>
 5   0  0.3603037E+08  0.9118800E+02  0.7818608E-02  0.1180000E+00
       11   -1    0    0    0    0  0.00000000000E+00  0.00000000000E+00  0.39999999673E+01  0.40000000000E+01  0.51109989000E-03 0. -1.
     -623   -1    0    0    0    0  0.00000000000E+00  0.00000000000E+00  0.12525980253E-10  0.17130000000E+03  0.17130000000E+03 0. -1.
       11    1    1    2    0    0 -0.19150747816E-02 -0.13690880850E-02  0.72925607819E-01  0.72965385008E-01  0.51109989000E-03 0. -1.
     -623    1    1    2    0    0  0.85647925177E-03  0.12036930557E-02  0.90826453640E-04  0.17130000001E+03  0.17130000000E+03 0. -1.
      622    1    1    2    0    0  0.10585955298E-02  0.16539502936E-03  0.39269835331E+01  0.39270346086E+01  0.20000000000E-01 0.  0.
</event>
<event>
 5   0  0.3603037E+08  0.9118800E+02  0.7818608E-02  0.1180000E+00
       11   -1    0    0    0    0  0.00000000000E+00  0.00000000000E+00  0.39999999673E+01  0.40000000000E+01  0.51109989000E-03 0.  1.
     -623   -1    0    0    0    0  0.00000000000E+00  0.00000000000E+00  0.12525980253E-10  0.17130000000E+03  0.17130000000E+03 0. -1.
       11    1    1    2    0    0  0.30882038675E-01  0.24998070249E-01  0.18234721540E+01  0.18239050309E+01  0.51109989000E-03 0.  1.
     -623    1    1    2    0    0 -0.69037971678E-02 -0.30730188530E-01  0.66731826677E-03  0.17130000290E+03  0.17130000000E+03 0. -1.
      622    1    1    2    0    0 -0.23978241507E-01  0.57321182808E-02  0.21758604951E+01  0.21760920723E+01  0.20000000000E-01 0.  1.
</event>
<event>
 5   0  0.3603037E+08  0.9118800E+02  0.7818608E-02  0.1180000E+00
       11   -1    0    0    0    0  0.00000000000E+00  0.00000000000E+00  0.39999999673E+01  0.40000000000E+01  0.51109989000E-03 0.  1.
     -623   -1    0    0    0    0  0.00000000000E+00  0.00000000000E+00  0.12525980253E-10  0.17130000000E+03  0.17130000000E+03 0.  1.
       11    1    1    2    0    0 -0.56796488281E-02  0.74245635889E-03  0.12708334283E+01  0.12708464398E+01  0.51109989000E-03 0.  1.
     -623    1    1    2    0    0 -0.16925583044E-02  0.94216938624E-03  0.96750975807E-04  0.17130000001E+03  0.17130000000E+03 0.  1.
      622    1    1    2    0    0  0.73722071326E-02 -0.16846257451E-02  0.27290697881E+01  0.27291535493E+01  0.20000000000E-01 0.  1.
</event>
<event>
 5   0  0.3603037E+08  0.9118800E+02  0.7818608E-02  0.1180000E+00
       11   -1    0    0    0    0  0.00000000000E+00  0.00000000000E+00  0.39999999673E+01  0.40000000000E+01  0.51109989000E-03 0. -1.
     -623   -1    0    0    0    0  0.00000000000E+00  0.00000000000E+00  0.12525980253E-10  0.17130000000E+03  0.17130000000E+03 0. -1.
       11    1    1    2    0    0 -0.39078710759E-02 -0.66025345113E-02  0.24900547833E+01  0.24900666557E+01  0.51109989000E-03 0. -1.
     -623    1    1    2    0    0  0.17336678091E-02  0.10623214681E-02  0.15604435778E-03  0.17130000001E+03  0.17130000000E+03 0. -1.
      622    1    1    2    0    0  0.21742032667E-02  0.55402130432E-02  0.15097891397E+01  0.15099333321E+01  0.20000000000E-01 0.  1.
</event>
<event>
 5   0  0.3603037E+08  0.9118800E+02  0.7818608E-02  0.1180000E+00
       11   -1    0    0    0    0  0.00000000000E+00  0.00000000000E+00  0.39999999673E+01  0.40000000000E+01  0.51109989000E-03 0. -1.
     -623   -1    0    0    0    0  0.00000000000E+00  0.00000000000E+00  0.12525980253E-10  0.17130000000E+03  0.17130000000E+03 0.  1.
       11    1    1    2    0    0 -0.46485529746E-02  0.38079396808E-04  0.38923320968E+00  0.38926130457E+00  0.51109989000E-03 0. -1.
     -623    1    1    2    0    0 -0.11412138057E-02 -0.57551311760E-03  0.88139765579E-04  0.17130000000E+03  0.17130000000E+03 0.  1.
      622    1    1    2    0    0  0.57897667803E-02  0.53743372079E-03  0.36106786179E+01  0.36107386906E+01  0.20000000000E-01 0. -1.
</event>
<event>
 5   0  0.3603037E+08  0.9118800E+02  0.7818608E-02  0.1180000E+00
       11   -1    0    0    0    0  0.00000000000E+00  0.00000000000E+00  0.39999999673E+01  0.40000000000E+01  0.51109989000E-03 0.  1.
     -623   -1    0    0    0    0  0.00000000000E+00  0.00000000000E+00  0.12525980253E-10  0.17130000000E+03  0.17130000000E+03 0. -1.
       11    1    1    2    0    0 -0.26695872284E-02 -0.10755626574E-01  0.46422121781E+00  0.46435375576E+00  0.51109989000E-03 0.  1.
     -623    1    1    2    0    0  0.48560406924E-02  0.80087532350E-02  0.19107177714E-03  0.17130000026E+03  0.17130000000E+03 0. -1.
      622    1    1    2    0    0 -0.21864534640E-02  0.27468733391E-02  0.35355876778E+01  0.35356459881E+01  0.20000000000E-01 0.  1.
</event>
<event>
 5   0  0.3603037E+08  0.9118800E+02  0.7818608E-02  0.1180000E+00
       11   -1    0    0    0    0  0.00000000000E+00  0.00000000000E+00  0.39999999673E+01  0.40000000000E+01  0.51109989000E-03 0. -1.
     -623   -1    0    0    0    0  0.00000000000E+00  0.00000000000E+00  0.12525980253E-10  0.17130000000E+03  0.17130000000E+03 0.  1.
       11    1    1    2    0    0  0.95878102393E-02 -0.14403666931E-02  0.14445427581E+01  0.14445753847E+01  0.51109989000E-03 0. -1.
     -623    1    1    2    0    0  0.32466501240E-03  0.61574157890E-03  0.13022039219E-03  0.17130000000E+03  0.17130000000E+03 0.  1.
      622    1    1    2    0    0 -0.99124752517E-02  0.82462511418E-03  0.25553269888E+01  0.25554246138E+01  0.20000000000E-01 0. -1.
</event>
<event>
 5   0  0.3603037E+08  0.9118800E+02  0.7818608E-02  0.1180000E+00
       11   -1    0    0    0    0  0.00000000000E+00  0.00000000000E+00  0.39999999673E+01  0.40000000000E+01  0.51109989000E-03 0. -1.
     -623   -1    0    0    0    0  0.00000000000E+00  0.00000000000E+00  0.12525980253E-10  0.17130000000E+03  0.17130000000E+03 0.  1.
       11    1    1    2    0    0  0.17686355973E-02 -0.50288603731E-03  0.66419826689E-01  0.66447238954E-01  0.51109989000E-03 0. -1.
     -623    1    1    2    0    0 -0.63132377168E-05  0.19848213775E-03  0.78631271726E-04  0.17130000000E+03  0.17130000000E+03 0.  1.
      622    1    1    2    0    0 -0.17623223596E-02  0.30440389956E-03  0.39335015094E+01  0.39335527609E+01  0.20000000000E-01 0. -1.
</event>
<event>
 5   0  0.3603037E+08  0.9118800E+02  0.7818608E-02  0.1180000E+00
       11   -1    0    0    0    0  0.00000000000E+00  0.00000000000E+00  0.39999999673E+01  0.40000000000E+01  0.51109989000E-03 0. -1.
     -623   -1    0    0    0    0  0.00000000000E+00  0.00000000000E+00  0.12525980253E-10  0.17130000000E+03  0.17130000000E+03 0.  1.
       11    1    1    2    0    0  0.97175332823E-02  0.31394418032E-02  0.11491097771E+01  0.11491552669E+01  0.51109989000E-03 0. -1.
     -623    1    1    2    0    0  0.12982968021E-02  0.74740862492E-03  0.13955260720E-03  0.17130000001E+03  0.17130000000E+03 0.  1.
      622    1    1    2    0    0 -0.11015830084E-01 -0.38868504282E-02  0.28507506377E+01  0.28508447265E+01  0.20000000000E-01 0.  0.
</event>
<event>
 5   0  0.3603037E+08  0.9118800E+02  0.7818608E-02  0.1180000E+00
       11   -1    0    0    0    0  0.00000000000E+00  0.00000000000E+00  0.39999999673E+01  0.40000000000E+01  0.51109989000E-03 0.  1.
     -623   -1    0    0    0    0  0.00000000000E+00  0.00000000000E+00  0.12525980253E-10  0.17130000000E+03  0.17130000000E+03 0.  1.
       11    1    1    2    0    0  0.35356668130E-03  0.16563367900E-02  0.65751081316E-01  0.65774876494E-01  0.51109989000E-03 0.  1.
     -623    1    1    2    0    0  0.91653713580E-04 -0.57804415802E-04  0.74948798992E-04  0.17130000000E+03  0.17130000000E+03 0.  1.
      622    1    1    2    0    0 -0.44522039488E-03 -0.15985323742E-02  0.39341739372E+01  0.39342251235E+01  0.20000000000E-01 0.  1.
</event>
<event>
 5   0  0.3603037E+08  0.9118800E+02  0.7818608E-02  0.1180000E+00
       11   -1    0    0    0    0  0.00000000000E+00  0.00000000000E+00  0.39999999673E+01  0.40000000000E+01  0.51109989000E-03 0.  1.
     -623   -1    0    0    0    0  0.00000000000E+00  0.00000000000E+00  0.12525980253E-10  0.17130000000E+03  0.17130000000E+03 0. -1.
       11    1    1    2    0    0 -0.11694342970E-02  0.12589016869E-02  0.12143704358E+01  0.12143717589E+01  0.51109989000E-03 0.  1.
     -623    1    1    2    0    0  0.11667544206E-03 -0.10325963285E-04  0.73567360851E-04  0.17130000000E+03  0.17130000000E+03 0. -1.
      622    1    1    2    0    0  0.10527588549E-02 -0.12485757236E-02  0.27855559642E+01  0.27856282410E+01  0.20000000000E-01 0.  1.
</event>
<event>
 5   0  0.3603037E+08  0.9118800E+02  0.7818608E-02  0.1180000E+00
       11   -1    0    0    0    0  0.00000000000E+00  0.00000000000E+00  0.39999999673E+01  0.40000000000E+01  0.51109989000E-03 0. -1.
     -623   -1    0    0    0    0  0.00000000000E+00  0.00000000000E+00  0.12525980253E-10  0.17130000000E+03  0.17130000000E+03 0.  1.
       11    1    1    2    0    0  0.43287693451E-02 -0.78985792788E-02  0.53108051225E-01  0.53868841870E-01  0.51109989000E-03 0. -1.
     -623    1    1    2    0    0 -0.26835232892E-02  0.18160195719E-02  0.81650434004E-03  0.17130000003E+03  0.17130000000E+03 0.  1.
      622    1    1    2    0    0 -0.16452460559E-02  0.60825597068E-02  0.39460754118E+01  0.39461311255E+01  0.20000000000E-01 0. -1.
</event>
<event>
 5   0  0.3603037E+08  0.9118800E+02  0.7818608E-02  0.1180000E+00
       11   -1    0    0    0    0  0.00000000000E+00  0.00000000000E+00  0.39999999673E+01  0.40000000000E+01  0.51109989000E-03 0.  1.
     -623   -1    0    0    0    0  0.00000000000E+00  0.00000000000E+00  0.12525980253E-10  0.17130000000E+03  0.17130000000E+03 0. -1.
       11    1    1    2    0    0  0.64679029268E-02  0.43790455420E-02  0.52897708573E+00  0.52903499719E+00  0.51109989000E-03 0.  1.
     -623    1    1    2    0    0  0.28999249714E-02 -0.24724852715E-02  0.12870794465E-03  0.17130000004E+03  0.17130000000E+03 0. -1.
      622    1    1    2    0    0 -0.93678278982E-02 -0.19065602705E-02  0.34708941737E+01  0.34709649604E+01  0.20000000000E-01 0.  1.
</event>
<event>
 5   0  0.3603037E+08  0.9118800E+02  0.7818608E-02  0.1180000E+00
       11   -1    0    0    0    0  0.00000000000E+00  0.00000000000E+00  0.39999999673E+01  0.40000000000E+01  0.51109989000E-03 0.  1.
     -623   -1    0    0    0    0  0.00000000000E+00  0.00000000000E+00  0.12525980253E-10  0.17130000000E+03  0.17130000000E+03 0.  1.
       11    1    1    2    0    0  0.33582990525E-02 -0.12320089910E-02  0.87132275377E-01  0.87207170881E-01  0.51109989000E-03 0.  1.
     -623    1    1    2    0    0 -0.33754491256E-03  0.62590375754E-03  0.12719210736E-03  0.17130000000E+03  0.17130000000E+03 0.  1.
      622    1    1    2    0    0 -0.30207541400E-02  0.60610523343E-03  0.39127404999E+01  0.39127928276E+01  0.20000000000E-01 0.  1.
</event>
<event>
 5   0  0.3603037E+08  0.9118800E+02  0.7818608E-02  0.1180000E+00
       11   -1    0    0    0    0  0.00000000000E+00  0.00000000000E+00  0.39999999673E+01  0.40000000000E+01  0.51109989000E-03 0. -1.
     -623   -1    0    0    0    0  0.00000000000E+00  0.00000000000E+00  0.12525980253E-10  0.17130000000E+03  0.17130000000E+03 0.  1.
       11    1    1    2    0    0 -0.75603013406E-04  0.36198366006E-02  0.61720792375E-01  0.61829009094E-01  0.51109989000E-03 0. -1.
     -623    1    1    2    0    0 -0.38578832169E-02 -0.11023968402E-02  0.16178553453E-03  0.17130000005E+03  0.17130000000E+03 0.  1.
      622    1    1    2    0    0  0.39334862303E-02 -0.25174397604E-02  0.39381173895E+01  0.39381709438E+01  0.20000000000E-01 0. -1.
</event>
<event>
 5   0  0.3603037E+08  0.9118800E+02  0.7818608E-02  0.1180000E+00
       11   -1    0    0    0    0  0.00000000000E+00  0.00000000000E+00  0.39999999673E+01  0.40000000000E+01  0.51109989000E-03 0. -1.
     -623   -1    0    0    0    0  0.00000000000E+00  0.00000000000E+00  0.12525980253E-10  0.17130000000E+03  0.17130000000E+03 0.  1.
       11    1    1    2    0    0 -0.94392474479E-02 -0.10883037461E-02  0.38954485857E+00  0.38966106023E+00  0.51109989000E-03 0. -1.
     -623    1    1    2    0    0  0.16255417877E-03 -0.18529353247E-02  0.18469253517E-03  0.17130000001E+03  0.17130000000E+03 0.  1.
      622    1    1    2    0    0  0.92766932691E-02  0.29412390709E-02  0.36102704163E+01  0.36103389296E+01  0.20000000000E-01 0. -1.
</event>
<event>
 5   0  0.3603037E+08  0.9118800E+02  0.7818608E-02  0.1180000E+00
       11   -1    0    0    0    0  0.00000000000E+00  0.00000000000E+00  0.39999999673E+01  0.40000000000E+01  0.51109989000E-03 0. -1.
     -623   -1    0    0    0    0  0.00000000000E+00  0.00000000000E+00  0.12525980253E-10  0.17130000000E+03  0.17130000000E+03 0. -1.
       11    1    1    2    0    0 -0.62786153589E-02  0.46481005184E-02  0.36654880252E+00  0.36663239314E+00  0.51109989000E-03 0. -1.
     -623    1    1    2    0    0 -0.31516493263E-03 -0.17131001460E-03  0.14734547713E-03  0.17130000000E+03  0.17130000000E+03 0. -1.
      622    1    1    2    0    0  0.65937802916E-02 -0.44767905038E-02  0.36333038194E+01  0.36333676064E+01  0.20000000000E-01 0. -1.
</event>
<event>
 5   0  0.3603037E+08  0.9118800E+02  0.7818608E-02  0.1180000E+00
       11   -1    0    0    0    0  0.00000000000E+00  0.00000000000E+00  0.39999999673E+01  0.40000000000E+01  0.51109989000E-03 0.  1.
     -623   -1    0    0    0    0  0.00000000000E+00  0.00000000000E+00  0.12525980253E-10  0.17130000000E+03  0.17130000000E+03 0.  1.
       11    1    1    2    0    0 -0.66105952769E-02 -0.23204182799E-03  0.19925702810E+00  0.19936744539E+00  0.51109989000E-03 0.  1.
     -623    1    1    2    0    0  0.76556390801E-04 -0.11773976517E-02  0.16889005960E-03  0.17130000000E+03  0.17130000000E+03 0.  1.
      622    1    1    2    0    0  0.65340388861E-02  0.14094394797E-02  0.38005740492E+01  0.38006325505E+01  0.20000000000E-01 0.  1.
</event>
<event>
 5   0  0.3603037E+08  0.9118800E+02  0.7818608E-02  0.1180000E+00
       11   -1    0    0    0    0  0.00000000000E+00  0.00000000000E+00  0.39999999673E+01  0.40000000000E+01  0.51109989000E-03 0.  1.
     -623   -1    0    0    0    0  0.00000000000E+00  0.00000000000E+00  0.12525980253E-10  0.17130000000E+03  0.17130000000E+03 0. -1.
       11    1    1    2    0    0 -0.62507835196E-03 -0.23592848532E-02  0.63030003972E-01  0.63079311738E-01  0.51109989000E-03 0.  1.
     -623    1    1    2    0    0 -0.14080826483E-02  0.13016105463E-02  0.10075442108E-03  0.17130000001E+03  0.17130000000E+03 0. -1.
      622    1    1    2    0    0  0.20331610003E-02  0.10576743069E-02  0.39368692090E+01  0.39369206775E+01  0.20000000000E-01 0.  1.
</event>
<event>
 5   0  0.3603037E+08  0.9118800E+02  0.7818608E-02  0.1180000E+00
       11   -1    0    0    0    0  0.00000000000E+00  0.00000000000E+00  0.39999999673E+01  0.40000000000E+01  0.51109989000E-03 0. -1.
     -623   -1    0    0    0    0  0.00000000000E+00  0.00000000000E+00  0.12525980253E-10  0.17130000000E+03  0.17130000000E+03 0.  1.
       11    1    1    2    0    0 -0.10746223196E-01  0.44968098187E-02  0.19226910625E+00  0.19262235865E+00  0.51109989000E-03 0. -1.
     -623    1    1    2    0    0  0.12256390199E-01 -0.46231827299E-02  0.40655265884E-03  0.17130000050E+03  0.17130000000E+03 0.  1.
      622    1    1    2    0    0 -0.15101670030E-02  0.12637291126E-03  0.38073243085E+01  0.38073771400E+01  0.20000000000E-01 0. -1.
</event>
<event>
 5   0  0.3603037E+08  0.9118800E+02  0.7818608E-02  0.1180000E+00
       11   -1    0    0    0    0  0.00000000000E+00  0.00000000000E+00  0.39999999673E+01  0.40000000000E+01  0.51109989000E-03 0. -1.
     -623   -1    0    0    0    0  0.00000000000E+00  0.00000000000E+00  0.12525980253E-10  0.17130000000E+03  0.17130000000E+03 0. -1.
       11    1    1    2    0    0  0.66442976701E-03  0.29751595260E-02  0.22383929926E-01  0.22596340017E-01  0.51109989000E-03 0. -1.
     -623    1    1    2    0    0  0.10825453031E-02 -0.10010530144E-02  0.26354194880E-03  0.17130000001E+03  0.17130000000E+03 0. -1.
      622    1    1    2    0    0 -0.17469750702E-02 -0.19741065116E-02  0.39773524955E+01  0.39774036534E+01  0.20000000000E-01 0. -1.
</event>
<event>
 5   0  0.3603037E+08  0.9118800E+02  0.7818608E-02  0.1180000E+00
       11   -1    0    0    0    0  0.00000000000E+00  0.00000000000E+00  0.39999999673E+01  0.40000000000E+01  0.51109989000E-03 0. -1.
     -623   -1    0    0    0    0  0.00000000000E+00  0.00000000000E+00  0.12525980253E-10  0.17130000000E+03  0.17130000000E+03 0.  1.
       11    1    1    2    0    0 -0.98577349621E-03 -0.17994164345E-01  0.12960103008E+01  0.12961356884E+01  0.51109989000E-03 0. -1.
     -623    1    1    2    0    0 -0.57661096273E-03  0.10394751758E-02  0.25293940092E-03  0.17130000000E+03  0.17130000000E+03 0.  1.
      622    1    1    2    0    0  0.15623844589E-02  0.16954689169E-01  0.27037367272E+01  0.27038643073E+01  0.20000000000E-01 0.  0.
</event>
<event>
 5   0  0.3603037E+08  0.9118800E+02  0.7818608E-02  0.1180000E+00
       11   -1    0    0    0    0  0.00000000000E+00  0.00000000000E+00  0.39999999673E+01  0.40000000000E+01  0.51109989000E-03 0.  1.
     -623   -1    0    0    0    0  0.00000000000E+00  0.00000000000E+00  0.12525980253E-10  0.17130000000E+03  0.17130000000E+03 0. -1.
       11    1    1    2    0    0  0.89713966148E-02  0.14952998433E-01  0.23056293374E+01  0.23056953356E+01  0.51109989000E-03 0.  1.
     -623    1    1    2    0    0  0.80061054329E-03 -0.33483091625E-05  0.27815775411E-03  0.17130000000E+03  0.17130000000E+03 0. -1.
      622    1    1    2    0    0 -0.97720071580E-02 -0.14949650124E-01  0.16940924722E+01  0.16943046623E+01  0.20000000000E-01 0.  1.
</event>
<event>
 5   0  0.3603037E+08  0.9118800E+02  0.7818608E-02  0.1180000E+00
       11   -1    0    0    0    0  0.00000000000E+00  0.00000000000E+00  0.39999999673E+01  0.40000000000E+01  0.51109989000E-03 0. -1.
     -623   -1    0    0    0    0  0.00000000000E+00  0.00000000000E+00  0.12525980253E-10  0.17130000000E+03  0.17130000000E+03 0. -1.
       11    1    1    2    0    0  0.25693137639E-02 -0.29300162304E-02  0.29332131940E+00  0.29334765041E+00  0.51109989000E-03 0. -1.
     -623    1    1    2    0    0 -0.30532427858E-03 -0.47985049785E-03  0.82516642753E-04  0.17130000000E+03  0.17130000000E+03 0. -1.
      622    1    1    2    0    0 -0.22639894854E-02  0.34098667283E-02  0.37065961313E+01  0.37066523486E+01  0.20000000000E-01 0. -1.
</event>
<event>
 5   0  0.3603037E+08  0.9118800E+02  0.7818608E-02  0.1180000E+00
       11   -1    0    0    0    0  0.00000000000E+00  0.00000000000E+00  0.39999999673E+01  0.40000000000E+01  0.51109989000E-03 0. -1.
     -623   -1    0    0    0    0  0.00000000000E+00  0.00000000000E+00  0.12525980253E-10  0.17130000000E+03  0.17130000000E+03 0.  1.
       11    1    1    2    0    0 -0.19122598741E-02  0.14409597939E-02  0.17823399205E+00  0.17825080714E+00  0.51109989000E-03 0. -1.
     -623    1    1    2    0    0 -0.44526646392E-04  0.12383108847E-03  0.69936242058E-04  0.17130000000E+03  0.17130000000E+03 0.  1.
      622    1    1    2    0    0  0.19567865205E-02 -0.15647908823E-02  0.38216960391E+01  0.38217491928E+01  0.20000000000E-01 0. -1.
</event>
<event>
 5   0  0.3603037E+08  0.9118800E+02  0.7818608E-02  0.1180000E+00
       11   -1    0    0    0    0  0.00000000000E+00  0.00000000000E+00  0.39999999673E+01  0.40000000000E+01  0.51109989000E-03 0.  1.
     -623   -1    0    0    0    0  0.00000000000E+00  0.00000000000E+00  0.12525980253E-10  0.17130000000E+03  0.17130000000E+03 0.  1.
       11    1    1    2    0    0 -0.20049058886E-04 -0.59626782744E-04  0.12496433825E+00  0.12496539927E+00  0.51109989000E-03 0.  1.
     -623    1    1    2    0    0 -0.51705471908E-04  0.15087179382E-03  0.52642984400E-04  0.17130000000E+03  0.17130000000E+03 0.  1.
      622    1    1    2    0    0  0.71754530794E-04 -0.91245011073E-04  0.38749829861E+01  0.38750346006E+01  0.20000000000E-01 0.  1.
</event>
<event>
 5   0  0.3603037E+08  0.9118800E+02  0.7818608E-02  0.1180000E+00
       11   -1    0    0    0    0  0.00000000000E+00  0.00000000000E+00  0.39999999673E+01  0.40000000000E+01  0.51109989000E-03 0.  1.
     -623   -1    0    0    0    0  0.00000000000E+00  0.00000000000E+00  0.12525980253E-10  0.17130000000E+03  0.17130000000E+03 0. -1.
       11    1    1    2    0    0  0.12767805915E-02 -0.13297379174E-03  0.24036949859E-01  0.24076628309E-01  0.51109989000E-03 0.  1.
     -623    1    1    2    0    0 -0.10448640685E-02  0.57018589716E-03  0.89983870814E-04  0.17130000000E+03  0.17130000000E+03 0. -1.
      622    1    1    2    0    0 -0.23191652296E-03 -0.43721210542E-03  0.39758730336E+01  0.39759233675E+01  0.20000000000E-01 0.  1.
</event>
<event>
 5   0  0.3603037E+08  0.9118800E+02  0.7818608E-02  0.1180000E+00
       11   -1    0    0    0    0  0.00000000000E+00  0.00000000000E+00  0.39999999673E+01  0.40000000000E+01  0.51109989000E-03 0. -1.
     -623   -1    0    0    0    0  0.00000000000E+00  0.00000000000E+00  0.12525980253E-10  0.17130000000E+03  0.17130000000E+03 0. -1.
       11    1    1    2    0    0  0.39951426244E-02 -0.29214112476E-02  0.12134418111E+01  0.12134520122E+01  0.51109989000E-03 0. -1.
     -623    1    1    2    0    0 -0.35134332051E-04  0.20038203538E-03  0.86085387240E-04  0.17130000000E+03  0.17130000000E+03 0. -1.
      622    1    1    2    0    0 -0.39600082924E-02  0.27210292122E-02  0.27864720709E+01  0.27865479877E+01  0.20000000000E-01 0. -1.
</event>
<event>
 5   0  0.3603037E+08  0.9118800E+02  0.7818608E-02  0.1180000E+00
       11   -1    0    0    0    0  0.00000000000E+00  0.00000000000E+00  0.39999999673E+01  0.40000000000E+01  0.51109989000E-03 0.  1.
     -623   -1    0    0    0    0  0.00000000000E+00  0.00000000000E+00  0.12525980253E-10  0.17130000000E+03  0.17130000000E+03 0. -1.
       11    1    1    2    0    0  0.29519727619E-02  0.80156581899E-03  0.18411970975E+00  0.18414582643E+00  0.51109989000E-03 0.  1.
     -623    1    1    2    0    0  0.45651139223E-03 -0.69517370347E-03  0.80023147487E-04  0.17130000000E+03  0.17130000000E+03 0. -1.
      622    1    1    2    0    0 -0.34084841541E-02 -0.10639211552E-03  0.38158002345E+01  0.38158541715E+01  0.20000000000E-01 0.  1.
</event>
<event>
 5   0  0.3603037E+08  0.9118800E+02  0.7818608E-02  0.1180000E+00
       11   -1    0    0    0    0  0.00000000000E+00  0.00000000000E+00  0.39999999673E+01  0.40000000000E+01  0.51109989000E-03 0. -1.
     -623   -1    0    0    0    0  0.00000000000E+00  0.00000000000E+00  0.12525980253E-10  0.17130000000E+03  0.17130000000E+03 0.  1.
       11    1    1    2    0    0  0.66548511146E-03  0.96767341518E-03  0.13202991300E-01  0.13264971307E-01  0.51109989000E-03 0. -1.
     -623    1    1    2    0    0  0.45229046802E-03 -0.94904466224E-03  0.11227405157E-03  0.17130000000E+03  0.17130000000E+03 0.  1.
      622    1    1    2    0    0 -0.11177755795E-02 -0.18628752943E-04  0.39866847020E+01  0.39867350254E+01  0.20000000000E-01 0. -1.
</event>
<event>
 5   0  0.3603037E+08  0.9118800E+02  0.7818608E-02  0.1180000E+00
       11   -1    0    0    0    0  0.00000000000E+00  0.00000000000E+00  0.39999999673E+01  0.40000000000E+01  0.51109989000E-03 0.  1.
     -623   -1    0    0    0    0  0.00000000000E+00  0.00000000000E+00  0.12525980253E-10  0.17130000000E+03  0.17130000000E+03 0.  1.
       11    1    1    2    0    0  0.11107396109E-01 -0.57920460771E-02  0.67788356638E+00  0.67799949324E+00  0.51109989000E-03 0.  1.
     -623    1    1    2    0    0 -0.66533797437E-02  0.15520864984E-02  0.18192758178E-03  0.17130000014E+03  0.17130000000E+03 0.  1.
      622    1    1    2    0    0 -0.44540163649E-02  0.42399595787E-02  0.33219344734E+01  0.33220003704E+01  0.20000000000E-01 0.  0.
</event>
<event>
 5   0  0.3603037E+08  0.9118800E+02  0.7818608E-02  0.1180000E+00
       11   -1    0    0    0    0  0.00000000000E+00  0.00000000000E+00  0.39999999673E+01  0.40000000000E+01  0.51109989000E-03 0. -1.
     -623   -1    0    0    0    0  0.00000000000E+00  0.00000000000E+00  0.12525980253E-10  0.17130000000E+03  0.17130000000E+03 0. -1.
       11    1    1    2    0    0  0.66132957888E-03 -0.28237901311E-03  0.76162347340E-02  0.76671603612E-02  0.51109989000E-03 0. -1.
     -623    1    1    2    0    0  0.24194567493E-03  0.28613330915E-03  0.10109195193E-03  0.17130000000E+03  0.17130000000E+03 0. -1.
      622    1    1    2    0    0 -0.90327525382E-03 -0.37542960425E-05  0.39922826407E+01  0.39923328392E+01  0.20000000000E-01 0. -1.
</event>
<event>
 5   0  0.3603037E+08  0.9118800E+02  0.7818608E-02  0.1180000E+00
       11   -1    0    0    0    0  0.00000000000E+00  0.00000000000E+00  0.39999999673E+01  0.40000000000E+01  0.51109989000E-03 0. -1.
     -623   -1    0    0    0    0  0.00000000000E+00  0.00000000000E+00  0.12525980253E-10  0.17130000000E+03  0.17130000000E+03 0.  1.
       11    1    1    2    0    0 -0.27304681741E-02  0.19233171640E-02  0.13643306291E-01  0.14055448484E-01  0.51109989000E-03 0. -1.
     -623    1    1    2    0    0 -0.12557379360E-04 -0.45428036502E-03  0.46350197733E-03  0.17130000000E+03  0.17130000000E+03 0.  1.
      622    1    1    2    0    0  0.27430255535E-02 -0.14690367989E-02  0.39858931591E+01  0.39859445503E+01  0.20000000000E-01 0. -1.
</event>
<event>
 5   0  0.3603037E+08  0.9118800E+02  0.7818608E-02  0.1180000E+00
       11   -1    0    0    0    0  0.00000000000E+00  0.00000000000E+00  0.39999999673E+01  0.40000000000E+01  0.51109989000E-03 0.  1.
     -623   -1    0    0    0    0  0.00000000000E+00  0.00000000000E+00  0.12525980253E-10  0.17130000000E+03  0.17130000000E+03 0.  1.
       11    1    1    2    0    0 -0.97564736644E-02 -0.44274767233E-02  0.21438468330E-01  0.23972076954E-01  0.51109989000E-03 0.  1.
     -623    1    1    2    0    0  0.10128649506E-01  0.57928989173E-02  0.25845465304E-02  0.17130000042E+03  0.17130000000E+03 0.  1.
      622    1    1    2    0    0 -0.37217584186E-03 -0.13654221940E-02  0.39759769525E+01  0.39760275062E+01  0.20000000000E-01 0.  1.
</event>
<event>
 5   0  0.3603037E+08  0.9118800E+02  0.7818608E-02  0.1180000E+00
       11   -1    0    0    0    0  0.00000000000E+00  0.00000000000E+00  0.39999999673E+01  0.40000000000E+01  0.51109989000E-03 0. -1.
     -623   -1    0    0    0    0  0.00000000000E+00  0.00000000000E+00  0.12525980253E-10  0.17130000000E+03  0.17130000000E+03 0. -1.
       11    1    1    2    0    0  0.39933651274E-03  0.95398516089E-02  0.47388449271E+00  0.47398095098E+00  0.51109989000E-03 0. -1.
     -623    1    1    2    0    0  0.12630173722E-02 -0.13494852659E-01  0.15629356074E-03  0.17130000054E+03  0.17130000000E+03 0. -1.
      622    1    1    2    0    0 -0.16623538849E-02  0.39550010496E-02  0.35259591811E+01  0.35260185127E+01  0.20000000000E-01 0. -1.
</event>
<event>
 5   0  0.3603037E+08  0.9118800E+02  0.7818608E-02  0.1180000E+00
       11   -1    0    0    0    0  0.00000000000E+00  0.00000000000E+00  0.39999999673E+01  0.40000000000E+01  0.51109989000E-03 0.  1.
     -623   -1    0    0    0    0  0.00000000000E+00  0.00000000000E+00  0.12525980253E-10  0.17130000000E+03  0.17130000000E+03 0. -1.
       11    1    1    2    0    0  0.37603225631E-02 -0.18104273510E-02  0.35528201730E+00  0.35530689651E+00  0.51109989000E-03 0.  1.
     -623    1    1    2    0    0  0.10701379345E-03 -0.80369728958E-03  0.82712546777E-04  0.17130000000E+03  0.17130000000E+03 0. -1.
      622    1    1    2    0    0 -0.38673363565E-02  0.26141246406E-02  0.36446352375E+01  0.36446931016E+01  0.20000000000E-01 0.  1.
</event>
<event>
 5   0  0.3603037E+08  0.9118800E+02  0.7818608E-02  0.1180000E+00
       11   -1    0    0    0    0  0.00000000000E+00  0.00000000000E+00  0.39999999673E+01  0.40000000000E+01  0.51109989000E-03 0. -1.
     -623   -1    0    0    0    0  0.00000000000E+00  0.00000000000E+00  0.12525980253E-10  0.17130000000E+03  0.17130000000E+03 0.  1.
       11    1    1    2    0    0 -0.23504995201E-03 -0.17250856554E-02  0.55060869347E-01  0.55090758962E-01  0.51109989000E-03 0. -1.
     -623    1    1    2    0    0  0.22734627844E-02  0.40297664133E-03  0.81319334242E-04  0.17130000002E+03  0.17130000000E+03 0.  1.
      622    1    1    2    0    0 -0.20384128324E-02  0.13221090141E-02  0.39448577787E+01  0.39449092255E+01  0.20000000000E-01 0. -1.
</event>
<event>
 5   0  0.3603037E+08  0.9118800E+02  0.7818608E-02  0.1180000E+00
       11   -1    0    0    0    0  0.00000000000E+00  0.00000000000E+00  0.39999999673E+01  0.40000000000E+01  0.51109989000E-03 0. -1.
     -623   -1    0    0    0    0  0.00000000000E+00  0.00000000000E+00  0.12525980253E-10  0.17130000000E+03  0.17130000000E+03 0.  1.
       11    1    1    2    0    0  0.62030781157E-02 -0.10712501847E-01  0.12264075667E+01  0.12264701451E+01  0.51109989000E-03 0. -1.
     -623    1    1    2    0    0 -0.33490070709E-02  0.66613657196E-02  0.13924648947E-03  0.17130000016E+03  0.17130000000E+03 0.  1.
      622    1    1    2    0    0 -0.28540710448E-02  0.40511361276E-02  0.27734531541E+01  0.27735296926E+01  0.20000000000E-01 0.  0.
</event>
<event>
 5   0  0.3603037E+08  0.9118800E+02  0.7818608E-02  0.1180000E+00
       11   -1    0    0    0    0  0.00000000000E+00  0.00000000000E+00  0.39999999673E+01  0.40000000000E+01  0.51109989000E-03 0.  1.
     -623   -1    0    0    0    0  0.00000000000E+00  0.00000000000E+00  0.12525980253E-10  0.17130000000E+03  0.17130000000E+03 0.  1.
       11    1    1    2    0    0  0.62945105520E-03  0.15740983420E-02  0.32005584224E+00  0.32006074012E+00  0.51109989000E-03 0.  1.
     -623    1    1    2    0    0 -0.28553136761E-03  0.13711026229E-03  0.59628610414E-04  0.17130000000E+03  0.17130000000E+03 0.  1.
      622    1    1    2    0    0 -0.34391968758E-03 -0.17112086043E-02  0.36798844965E+01  0.36799392596E+01  0.20000000000E-01 0.  1.
</event>
<event>
 5   0  0.3603037E+08  0.9118800E+02  0.7818608E-02  0.1180000E+00
       11   -1    0    0    0    0  0.00000000000E+00  0.00000000000E+00  0.39999999673E+01  0.40000000000E+01  0.51109989000E-03 0. -1.
     -623   -1    0    0    0    0  0.00000000000E+00  0.00000000000E+00  0.12525980253E-10  0.17130000000E+03  0.17130000000E+03 0.  1.
       11    1    1    2    0    0 -0.53633953347E-02  0.52441001191E-02  0.31485604198E+00  0.31494579690E+00  0.51109989000E-03 0. -1.
     -623    1    1    2    0    0  0.95436631922E-02 -0.45207360740E-02  0.14676359334E-03  0.17130000033E+03  0.17130000000E+03 0.  1.
      622    1    1    2    0    0 -0.41802678575E-02 -0.72336404513E-03  0.36849971618E+01  0.36850538775E+01  0.20000000000E-01 0. -1.
</event>
<event>
 5   0  0.3603037E+08  0.9118800E+02  0.7818608E-02  0.1180000E+00
       11   -1    0    0    0    0  0.00000000000E+00  0.00000000000E+00  0.39999999673E+01  0.40000000000E+01  0.51109989000E-03 0. -1.
     -623   -1    0    0    0    0  0.00000000000E+00  0.00000000000E+00  0.12525980253E-10  0.17130000000E+03  0.17130000000E+03 0. -1.
       11    1    1    2    0    0 -0.23042987268E-02  0.29945838117E-02  0.12084413048E+00  0.12090426965E+00  0.51109989000E-03 0. -1.
     -623    1    1    2    0    0 -0.31152197603E-04 -0.16249855221E-03  0.11340229373E-03  0.17130000000E+03  0.17130000000E+03 0. -1.
      622    1    1    2    0    0  0.23354509244E-02 -0.28320852594E-02  0.38790424346E+01  0.38790957302E+01  0.20000000000E-01 0. -1.
</event>
<event>
 5   0  0.3603037E+08  0.9118800E+02  0.7818608E-02  0.1180000E+00
       11   -1    0    0    0    0  0.00000000000E+00  0.00000000000E+00  0.39999999673E+01  0.40000000000E+01  0.51109989000E-03 0.  1.
     -623   -1    0    0    0    0  0.00000000000E+00  0.00000000000E+00  0.12525980253E-10  0.17130000000E+03  0.17130000000E+03 0. -1.
       11    1    1    2    0    0 -0.34648950105E-03 -0.37601903532E-04  0.16337863129E-01  0.16349570675E-01  0.51109989000E-03 0.  1.
     -623    1    1    2    0    0  0.72178784056E-03 -0.39321155045E-03  0.61923388236E-04  0.17130000000E+03  0.17130000000E+03 0. -1.
      622    1    1    2    0    0 -0.37529833951E-03  0.43081345399E-03  0.39836001808E+01  0.39836504273E+01  0.20000000000E-01 0.  1.
</event>
<event>
 5   0  0.3603037E+08  0.9118800E+02  0.7818608E-02  0.1180000E+00
       11   -1    0    0    0    0  0.00000000000E+00  0.00000000000E+00  0.39999999673E+01  0.40000000000E+01  0.51109989000E-03 0.  1.
     -623   -1    0    0    0    0  0.00000000000E+00  0.00000000000E+00  0.12525980253E-10  0.17130000000E+03  0.17130000000E+03 0. -1.
       11    1    1    2    0    0  0.14209067596E-01  0.83344865222E-02  0.37693177140E+00  0.37729190660E+00  0.51109989000E-03 0.  1.
     -623    1    1    2    0    0 -0.19428528800E-01 -0.21967850807E-02  0.42538618886E-03  0.17130000112E+03  0.17130000000E+03 0. -1.
      622    1    1    2    0    0  0.52194612042E-02 -0.61377014415E-02  0.36226428098E+01  0.36227069770E+01  0.20000000000E-01 0.  1.
</event>
<event>
 5   0  0.3603037E+08  0.9118800E+02  0.7818608E-02  0.1180000E+00
       11   -1    0    0    0    0  0.00000000000E+00  0.00000000000E+00  0.39999999673E+01  0.40000000000E+01  0.51109989000E-03 0.  1.
     -623   -1    0    0    0    0  0.00000000000E+00  0.00000000000E+00  0.12525980253E-10  0.17130000000E+03  0.17130000000E+03 0.  1.
       11    1    1    2    0    0  0.23445131430E-02 -0.18030962655E-02  0.18373919670E+00  0.18376371112E+00  0.51109989000E-03 0.  1.
     -623    1    1    2    0    0 -0.36288263355E-02 -0.43043644850E-02  0.82085665923E-04  0.17130000009E+03  0.17130000000E+03 0.  1.
      622    1    1    2    0    0  0.12843131925E-02  0.61074607505E-02  0.38161786850E+01  0.38162361963E+01  0.20000000000E-01 0.  1.
</event>
<event>
 5   0  0.3603037E+08  0.9118800E+02  0.7818608E-02  0.1180000E+00
       11   -1    0    0    0    0  0.00000000000E+00  0.00000000000E+00  0.39999999673E+01  0.40000000000E+01  0.51109989000E-03 0.  1.
     -623   -1    0    0    0    0  0.00000000000E+00  0.00000000000E+00  0.12525980253E-10  0.17130000000E+03  0.17130000000E+03 0.  1.
       11    1    1    2    0    0 -0.29982324499E-03 -0.28964760889E-04  0.12215025137E-01  0.12229423231E-01  0.51109989000E-03 0.  1.
     -623    1    1    2    0    0  0.64226486184E-03 -0.15584963050E-03  0.64539379048E-04  0.17130000000E+03  0.17130000000E+03 0.  1.
      622    1    1    2    0    0 -0.34244161686E-03  0.18481439139E-03  0.39877204028E+01  0.39877705755E+01  0.20000000000E-01 0.  1.
</event>
<event>
 5   0  0.3603037E+08  0.9118800E+02  0.7818608E-02  0.1180000E+00
       11   -1    0    0    0    0  0.00000000000E+00  0.00000000000E+00  0.39999999673E+01  0.40000000000E+01  0.51109989000E-03 0.  1.
     -623   -1    0    0    0    0  0.00000000000E+00  0.00000000000E+00  0.12525980253E-10  0.17130000000E+03  0.17130000000E+03 0. -1.
       11    1    1    2    0    0 -0.14231258739E-02  0.19347962272E-02  0.13427896137E+00  0.13430141255E+00  0.51109989000E-03 0.  1.
     -623    1    1    2    0    0 -0.77024449729E-04 -0.19815522493E-03  0.74837298153E-04  0.17130000000E+03  0.17130000000E+03 0. -1.
      622    1    1    2    0    0  0.15001503237E-02 -0.17366410023E-02  0.38656461687E+01  0.38656985873E+01  0.20000000000E-01 0.  1.
</event>
<event>
 5   0  0.3603037E+08  0.9118800E+02  0.7818608E-02  0.1180000E+00
       11   -1    0    0    0    0  0.00000000000E+00  0.00000000000E+00  0.39999999673E+01  0.40000000000E+01  0.51109989000E-03 0. -1.
     -623   -1    0    0    0    0  0.00000000000E+00  0.00000000000E+00  0.12525980253E-10  0.17130000000E+03  0.17130000000E+03 0.  1.
       11    1    1    2    0    0 -0.50234310763E-03 -0.16247462958E-02  0.80666963874E-02  0.82598402582E-02  0.51109989000E-03 0. -1.
     -623    1    1    2    0    0 -0.97244315493E-03  0.45762138056E-03  0.24366161915E-03  0.17130000000E+03  0.17130000000E+03 0.  1.
      622    1    1    2    0    0  0.14747862626E-02  0.11671249152E-02  0.39916896094E+01  0.39917401562E+01  0.20000000000E-01 0. -1.
</event>
<event>
 5   0  0.3603037E+08  0.9118800E+02  0.7818608E-02  0.1180000E+00
       11   -1    0    0    0    0  0.00000000000E+00  0.00000000000E+00  0.39999999673E+01  0.40000000000E+01  0.51109989000E-03 0. -1.
     -623   -1    0    0    0    0  0.00000000000E+00  0.00000000000E+00  0.12525980253E-10  0.17130000000E+03  0.17130000000E+03 0. -1.
       11    1    1    2    0    0  0.77021793044E-03 -0.26193390648E-02  0.77687295511E-01  0.77736936385E-01  0.51109989000E-03 0. -1.
     -623    1    1    2    0    0  0.46912039830E-03  0.58195693035E-03  0.10132615504E-03  0.17130000000E+03  0.17130000000E+03 0. -1.
      622    1    1    2    0    0 -0.12393383287E-02  0.20373821345E-02  0.39222113457E+01  0.39222630620E+01  0.20000000000E-01 0. -1.
</event>
<event>
 5   0  0.3603037E+08  0.9118800E+02  0.7818608E-02  0.1180000E+00
       11   -1    0    0    0    0  0.00000000000E+00  0.00000000000E+00  0.39999999673E+01  0.40000000000E+01  0.51109989000E-03 0.  1.
     -623   -1    0    0    0    0  0.00000000000E+00  0.00000000000E+00  0.12525980253E-10  0.17130000000E+03  0.17130000000E+03 0. -1.
       11    1    1    2    0    0  0.41417136224E-03 -0.31517396501E-03  0.10542646749E+00  0.10542899099E+00  0.51109989000E-03 0.  1.
     -623    1    1    2    0    0 -0.52580128165E-03  0.39295870336E-04  0.53856925125E-04  0.17130000000E+03  0.17130000000E+03 0. -1.
      622    1    1    2    0    0  0.11162991941E-03  0.27587809468E-03  0.38945196429E+01  0.38945710082E+01  0.20000000000E-01 0.  1.
</event>
<event>
 5   0  0.3603037E+08  0.9118800E+02  0.7818608E-02  0.1180000E+00
       11   -1    0    0    0    0  0.00000000000E+00  0.00000000000E+00  0.39999999673E+01  0.40000000000E+01  0.51109989000E-03 0.  1.
     -623   -1    0    0    0    0  0.00000000000E+00  0.00000000000E+00  0.12525980253E-10  0.17130000000E+03  0.17130000000E+03 0. -1.
       11    1    1    2    0    0  0.47977998174E-02  0.18633055333E-03  0.23944112479E+00  0.23948980576E+00  0.51109989000E-03 0.  1.
     -623    1    1    2    0    0 -0.90711523232E-03 -0.34140794531E-03  0.10385166447E-03  0.17130000000E+03  0.17130000000E+03 0. -1.
      622    1    1    2    0    0 -0.38906845851E-02  0.15507739197E-03  0.37604549909E+01  0.37605101915E+01  0.20000000000E-01 0.  1.
</event>
<event>
 5   0  0.3603037E+08  0.9118800E+02  0.7818608E-02  0.1180000E+00
       11   -1    0    0    0    0  0.00000000000E+00  0.00000000000E+00  0.39999999673E+01  0.40000000000E+01  0.51109989000E-03 0.  1.
     -623   -1    0    0    0    0  0.00000000000E+00  0.00000000000E+00  0.12525980253E-10  0.17130000000E+03  0.17130000000E+03 0. -1.
       11    1    1    2    0    0 -0.34738114051E-02 -0.48635058544E-02  0.13440579841E+00  0.13453958868E+00  0.51109989000E-03 0.  1.
     -623    1    1    2    0    0  0.86030523012E-03  0.33329422424E-03  0.18903905755E-03  0.17130000000E+03  0.17130000000E+03 0. -1.
      622    1    1    2    0    0  0.26135061750E-02  0.45302116302E-02  0.38654051299E+01  0.38654604087E+01  0.20000000000E-01 0.  1.
</event>
<event>
 5   0  0.3603037E+08  0.9118800E+02  0.7818608E-02  0.1180000E+00
       11   -1    0    0    0    0  0.00000000000E+00  0.00000000000E+00  0.39999999673E+01  0.40000000000E+01  0.51109989000E-03 0.  1.
     -623   -1    0    0    0    0  0.00000000000E+00  0.00000000000E+00  0.12525980253E-10  0.17130000000E+03  0.17130000000E+03 0. -1.
       11    1    1    2    0    0  0.19780311696E-02  0.11523586258E-01  0.17161726907E+01  0.17162125950E+01  0.51109989000E-03 0.  1.
     -623    1    1    2    0    0 -0.21398776127E-02 -0.32577055096E-03  0.15492028583E-03  0.17130000001E+03  0.17130000000E+03 0. -1.
      622    1    1    2    0    0  0.16184644315E-03 -0.11197815707E-01  0.22836723564E+01  0.22837873913E+01  0.20000000000E-01 0.  1.
</event>
<event>
 5   0  0.3603037E+08  0.9118800E+02  0.7818608E-02  0.1180000E+00
       11   -1    0    0    0    0  0.00000000000E+00  0.00000000000E+00  0.39999999673E+01  0.40000000000E+01  0.51109989000E-03 0. -1.
     -623   -1    0    0    0    0  0.00000000000E+00  0.00000000000E+00  0.12525980253E-10  0.17130000000E+03  0.17130000000E+03 0.  1.
       11    1    1    2    0    0 -0.96246710319E-02  0.67853979107E-02  0.16692695153E+01  0.16693111309E+01  0.51109989000E-03 0. -1.
     -623    1    1    2    0    0 -0.20732645741E-03 -0.17244985513E-03  0.15751738950E-03  0.17130000000E+03  0.17130000000E+03 0.  1.
      622    1    1    2    0    0  0.98319974893E-02 -0.66129480556E-02  0.23305729347E+01  0.23306888688E+01  0.20000000000E-01 0. -1.
</event>
<event>
 5   0  0.3603037E+08  0.9118800E+02  0.7818608E-02  0.1180000E+00
       11   -1    0    0    0    0  0.00000000000E+00  0.00000000000E+00  0.39999999673E+01  0.40000000000E+01  0.51109989000E-03 0. -1.
     -623   -1    0    0    0    0  0.00000000000E+00  0.00000000000E+00  0.12525980253E-10  0.17130000000E+03  0.17130000000E+03 0.  1.
       11    1    1    2    0    0  0.81594250601E-02 -0.11235364253E-02  0.20405852292E+01  0.20406019155E+01  0.51109989000E-03 0. -1.
     -623    1    1    2    0    0 -0.15774457792E-03  0.35672900171E-03  0.13521832562E-03  0.17130000000E+03  0.17130000000E+03 0.  1.
      622    1    1    2    0    0 -0.80016804822E-02  0.76680742356E-03  0.19592795198E+01  0.19593980840E+01  0.20000000000E-01 0. -1.
</event>
<event>
 5   0  0.3603037E+08  0.9118800E+02  0.7818608E-02  0.1180000E+00
       11   -1    0    0    0    0  0.00000000000E+00  0.00000000000E+00  0.39999999673E+01  0.40000000000E+01  0.51109989000E-03 0.  1.
     -623   -1    0    0    0    0  0.00000000000E+00  0.00000000000E+00  0.12525980253E-10  0.17130000000E+03  0.17130000000E+03 0.  1.
       11    1    1    2    0    0 -0.98572808853E-04 -0.40542544638E-02  0.14942097089E+01  0.14942152998E+01  0.51109989000E-03 0.  1.
     -623    1    1    2    0    0  0.26914840795E-02 -0.12523630425E-02  0.92361374713E-04  0.17130000003E+03  0.17130000000E+03 0.  1.
      622    1    1    2    0    0 -0.25929112707E-02  0.53066175063E-02  0.25056978971E+01  0.25057846745E+01  0.20000000000E-01 0. -1.
</event>
<event>
 5   0  0.3603037E+08  0.9118800E+02  0.7818608E-02  0.1180000E+00
       11   -1    0    0    0    0  0.00000000000E+00  0.00000000000E+00  0.39999999673E+01  0.40000000000E+01  0.51109989000E-03 0. -1.
     -623   -1    0    0    0    0  0.00000000000E+00  0.00000000000E+00  0.12525980253E-10  0.17130000000E+03  0.17130000000E+03 0.  1.
       11    1    1    2    0    0  0.45790131559E-05  0.25502317437E-03  0.14012568828E+00  0.14012685252E+00  0.51109989000E-03 0. -1.
     -623    1    1    2    0    0 -0.15612384827E-04 -0.89201471852E-04  0.52950723926E-04  0.17130000000E+03  0.17130000000E+03 0.  1.
      622    1    1    2    0    0  0.11033371671E-04 -0.16582170252E-03  0.38598213284E+01  0.38598731475E+01  0.20000000000E-01 0. -1.
</event>
<event>
 5   0  0.3603037E+08  0.9118800E+02  0.7818608E-02  0.1180000E+00
       11   -1    0    0    0    0  0.00000000000E+00  0.00000000000E+00  0.39999999673E+01  0.40000000000E+01  0.51109989000E-03 0. -1.
     -623   -1    0    0    0    0  0.00000000000E+00  0.00000000000E+00  0.12525980253E-10  0.17130000000E+03  0.17130000000E+03 0.  1.
       11    1    1    2    0    0  0.21725315004E-01  0.31101137187E-03  0.15045068716E+01  0.15046638408E+01  0.51109989000E-03 0. -1.
     -623    1    1    2    0    0 -0.30721560536E-02 -0.10895168416E-02  0.30696149797E-03  0.17130000003E+03  0.17130000000E+03 0.  1.
      622    1    1    2    0    0 -0.18653158950E-01  0.77850546969E-03  0.24951861343E+01  0.24953361279E+01  0.20000000000E-01 0. -1.
</event>
<event>
 5   0  0.3603037E+08  0.9118800E+02  0.7818608E-02  0.1180000E+00
       11   -1    0    0    0    0  0.00000000000E+00  0.00000000000E+00  0.39999999673E+01  0.40000000000E+01  0.51109989000E-03 0.  1.
     -623   -1    0    0    0    0  0.00000000000E+00  0.00000000000E+00  0.12525980253E-10  0.17130000000E+03  0.17130000000E+03 0.  1.
       11    1    1    2    0    0  0.16480839198E-02 -0.37782306132E-03  0.79865781524E-02  0.81795832963E-02  0.51109989000E-03 0.  1.
     -623    1    1    2    0    0 -0.33833194531E-02 -0.86333654202E-03  0.24368114653E-03  0.17130000004E+03  0.17130000000E+03 0.  1.
      622    1    1    2    0    0  0.17352355333E-02  0.12411596033E-02  0.39917697081E+01  0.39918203809E+01  0.20000000000E-01 0.  1.
</event>
<event>
 5   0  0.3603037E+08  0.9118800E+02  0.7818608E-02  0.1180000E+00
       11   -1    0    0    0    0  0.00000000000E+00  0.00000000000E+00  0.39999999673E+01  0.40000000000E+01  0.51109989000E-03 0. -1.
     -623   -1    0    0    0    0  0.00000000000E+00  0.00000000000E+00  0.12525980253E-10  0.17130000000E+03  0.17130000000E+03 0.  1.
       11    1    1    2    0    0 -0.17706247798E-02 -0.38134760134E-03  0.11419308401E+00  0.11420859073E+00  0.51109989000E-03 0. -1.
     -623    1    1    2    0    0  0.39577820976E-04 -0.10476227462E-03  0.67360022975E-04  0.17130000000E+03  0.17130000000E+03 0.  1.
      622    1    1    2    0    0  0.17310469589E-02  0.48610987597E-03  0.38857395233E+01  0.38857914092E+01  0.20000000000E-01 0. -1.
</event>
<event>
 5   0  0.3603037E+08  0.9118800E+02  0.7818608E-02  0.1180000E+00
       11   -1    0    0    0    0  0.00000000000E+00  0.00000000000E+00  0.39999999673E+01  0.40000000000E+01  0.51109989000E-03 0.  1.
     -623   -1    0    0    0    0  0.00000000000E+00  0.00000000000E+00  0.12525980253E-10  0.17130000000E+03  0.17130000000E+03 0. -1.
       11    1    1    2    0    0 -0.21519359293E-01  0.93881102331E-02  0.49111750698E+00  0.49167864131E+00  0.51109989000E-03 0.  1.
     -623    1    1    2    0    0  0.31594523772E-02  0.12741418438E-02  0.68238928938E-03  0.17130000004E+03  0.17130000000E+03 0. -1.
      622    1    1    2    0    0  0.18359906916E-01 -0.10662252077E-01  0.35082000711E+01  0.35083213235E+01  0.20000000000E-01 0.  1.
</event>
<event>
 5   0  0.3603037E+08  0.9118800E+02  0.7818608E-02  0.1180000E+00
       11   -1    0    0    0    0  0.00000000000E+00  0.00000000000E+00  0.39999999673E+01  0.40000000000E+01  0.51109989000E-03 0.  1.
     -623   -1    0    0    0    0  0.00000000000E+00  0.00000000000E+00  0.12525980253E-10  0.17130000000E+03  0.17130000000E+03 0. -1.
       11    1    1    2    0    0 -0.19883925528E-02 -0.41211985226E-02  0.75533194436E+00  0.75534597727E+00  0.51109989000E-03 0.  1.
     -623    1    1    2    0    0 -0.14961156459E-03 -0.29591593681E-02  0.84096163244E-04  0.17130000003E+03  0.17130000000E+03 0. -1.
      622    1    1    2    0    0  0.21380041174E-02  0.70803578907E-02  0.32445839268E+01  0.32446539971E+01  0.20000000000E-01 0.  1.
</event>
<event>
 5   0  0.3603037E+08  0.9118800E+02  0.7818608E-02  0.1180000E+00
       11   -1    0    0    0    0  0.00000000000E+00  0.00000000000E+00  0.39999999673E+01  0.40000000000E+01  0.51109989000E-03 0.  1.
     -623   -1    0    0    0    0  0.00000000000E+00  0.00000000000E+00  0.12525980253E-10  0.17130000000E+03  0.17130000000E+03 0.  1.
       11    1    1    2    0    0 -0.52068144866E-03  0.59320781054E-03  0.25446566426E-01  0.25463934691E-01  0.51109989000E-03 0.  1.
     -623    1    1    2    0    0 -0.94325928752E-03 -0.74835585708E-03  0.67933165623E-04  0.17130000000E+03  0.17130000000E+03 0.  1.
      622    1    1    2    0    0  0.14639407362E-02  0.15514804654E-03  0.39744854678E+01  0.39745360611E+01  0.20000000000E-01 0.  1.
</event>
<event>
 5   0  0.3603037E+08  0.9118800E+02  0.7818608E-02  0.1180000E+00
       11   -1    0    0    0    0  0.00000000000E+00  0.00000000000E+00  0.39999999673E+01  0.40000000000E+01  0.51109989000E-03 0. -1.
     -623   -1    0    0    0    0  0.00000000000E+00  0.00000000000E+00  0.12525980253E-10  0.17130000000E+03  0.17130000000E+03 0. -1.
       11    1    1    2    0    0 -0.35003525264E-04  0.60173509020E-02  0.17526511730E+01  0.17526615774E+01  0.51109989000E-03 0. -1.
     -623    1    1    2    0    0  0.14339255513E-02 -0.22940229972E-03  0.10726301908E-03  0.17130000001E+03  0.17130000000E+03 0. -1.
      622    1    1    2    0    0 -0.13989220260E-02 -0.57879486023E-02  0.22472415314E+01  0.22473384164E+01  0.20000000000E-01 0. -1.
</event>
<event>
 5   0  0.3603037E+08  0.9118800E+02  0.7818608E-02  0.1180000E+00
       11   -1    0    0    0    0  0.00000000000E+00  0.00000000000E+00  0.39999999673E+01  0.40000000000E+01  0.51109989000E-03 0.  1.
     -623   -1    0    0    0    0  0.00000000000E+00  0.00000000000E+00  0.12525980253E-10  0.17130000000E+03  0.17130000000E+03 0. -1.
       11    1    1    2    0    0  0.84657881364E-02  0.27165670334E-01  0.22171976449E+01  0.22173802788E+01  0.51109989000E-03 0.  1.
     -623    1    1    2    0    0 -0.39443833677E-02 -0.32223852371E-01  0.31078719784E-03  0.17130000308E+03  0.17130000000E+03 0. -1.
      622    1    1    2    0    0 -0.45214047687E-02  0.50581820369E-02  0.17824915353E+01  0.17826166446E+01  0.20000000000E-01 0. -1.
</event>
<event>
 5   0  0.3603037E+08  0.9118800E+02  0.7818608E-02  0.1180000E+00
       11   -1    0    0    0    0  0.00000000000E+00  0.00000000000E+00  0.39999999673E+01  0.40000000000E+01  0.51109989000E-03 0. -1.
     -623   -1    0    0    0    0  0.00000000000E+00  0.00000000000E+00  0.12525980253E-10  0.17130000000E+03  0.17130000000E+03 0.  1.
       11    1    1    2    0    0  0.20944908131E-02  0.26357020624E-02  0.16405868558E+00  0.16409401986E+00  0.51109989000E-03 0. -1.
     -623    1    1    2    0    0  0.26521303013E-02 -0.12949111326E-02  0.90637514589E-04  0.17130000003E+03  0.17130000000E+03 0.  1.
      622    1    1    2    0    0 -0.47466211144E-02 -0.13407909299E-02  0.38358506443E+01  0.38359059547E+01  0.20000000000E-01 0. -1.
</event>
<event>
 5   0  0.3603037E+08  0.9118800E+02  0.7818608E-02  0.1180000E+00
       11   -1    0    0    0    0  0.00000000000E+00  0.00000000000E+00  0.39999999673E+01  0.40000000000E+01  0.51109989000E-03 0. -1.
     -623   -1    0    0    0    0  0.00000000000E+00  0.00000000000E+00  0.12525980253E-10  0.17130000000E+03  0.17130000000E+03 0.  1.
       11    1    1    2    0    0 -0.16504815132E-01  0.35849665562E-01  0.14788863059E+01  0.14794129155E+01  0.51109989000E-03 0. -1.
     -623    1    1    2    0    0  0.35581807498E-02 -0.12416755787E-02  0.87682693013E-03  0.17130000004E+03  0.17130000000E+03 0.  1.
      622    1    1    2    0    0  0.12946634383E-01 -0.34607989984E-01  0.25202368345E+01  0.25205870408E+01  0.20000000000E-01 0. -1.
</event>
<event>
 5   0  0.3603037E+08  0.9118800E+02  0.7818608E-02  0.1180000E+00
       11   -1    0    0    0    0  0.00000000000E+00  0.00000000000E+00  0.39999999673E+01  0.40000000000E+01  0.51109989000E-03 0.  1.
     -623   -1    0    0    0    0  0.00000000000E+00  0.00000000000E+00  0.12525980253E-10  0.17130000000E+03  0.17130000000E+03 0.  1.
       11    1    1    2    0    0 -0.10872972529E-03 -0.79232710346E-03  0.93261267208E-01  0.93266096661E-01  0.51109989000E-03 0.  1.
     -623    1    1    2    0    0 -0.18010946482E-03 -0.17116961449E-03  0.56120486237E-04  0.17130000000E+03  0.17130000000E+03 0.  1.
      622    1    1    2    0    0  0.28883919011E-03  0.96349671795E-03  0.39066825797E+01  0.39067339031E+01  0.20000000000E-01 0.  1.
</event>
<event>
 5   0  0.3603037E+08  0.9118800E+02  0.7818608E-02  0.1180000E+00
       11   -1    0    0    0    0  0.00000000000E+00  0.00000000000E+00  0.39999999673E+01  0.40000000000E+01  0.51109989000E-03 0. -1.
     -623   -1    0    0    0    0  0.00000000000E+00  0.00000000000E+00  0.12525980253E-10  0.17130000000E+03  0.17130000000E+03 0.  1.
       11    1    1    2    0    0 -0.72636724786E-03 -0.96870132854E-03  0.33341911456E-01  0.33367802936E-01  0.51109989000E-03 0. -1.
     -623    1    1    2    0    0 -0.60515741104E-04  0.12035225954E-03  0.76448605779E-04  0.17130000000E+03  0.17130000000E+03 0.  1.
      622    1    1    2    0    0  0.78688298896E-03  0.84834906900E-03  0.39665816073E+01  0.39666321970E+01  0.20000000000E-01 0. -1.
</event>
<event>
 5   0  0.3603037E+08  0.9118800E+02  0.7818608E-02  0.1180000E+00
       11   -1    0    0    0    0  0.00000000000E+00  0.00000000000E+00  0.39999999673E+01  0.40000000000E+01  0.51109989000E-03 0.  1.
     -623   -1    0    0    0    0  0.00000000000E+00  0.00000000000E+00  0.12525980253E-10  0.17130000000E+03  0.17130000000E+03 0. -1.
       11    1    1    2    0    0 -0.20935944777E-02 -0.19621830674E-03  0.23317949069E-01  0.23418147016E-01  0.51109989000E-03 0.  1.
     -623    1    1    2    0    0 -0.53587231382E-04  0.25058937882E-04  0.15104353617E-03  0.17130000000E+03  0.17130000000E+03 0. -1.
      622    1    1    2    0    0  0.21471817091E-02  0.17115936886E-03  0.39765309748E+01  0.39765818529E+01  0.20000000000E-01 0.  1.
</event>
<event>
 5   0  0.3603037E+08  0.9118800E+02  0.7818608E-02  0.1180000E+00
       11   -1    0    0    0    0  0.00000000000E+00  0.00000000000E+00  0.39999999673E+01  0.40000000000E+01  0.51109989000E-03 0. -1.
     -623   -1    0    0    0    0  0.00000000000E+00  0.00000000000E+00  0.12525980253E-10  0.17130000000E+03  0.17130000000E+03 0.  1.
       11    1    1    2    0    0 -0.13752628499E-02 -0.28196036327E-02  0.75590019253E-01  0.75656815591E-01  0.51109989000E-03 0. -1.
     -623    1    1    2    0    0  0.73139353212E-03  0.22644175287E-03  0.11863932186E-03  0.17130000000E+03  0.17130000000E+03 0.  1.
      622    1    1    2    0    0  0.64386931783E-03  0.25931618798E-02  0.39242913088E+01  0.39243431827E+01  0.20000000000E-01 0. -1.
</event>
<event>
 5   0  0.3603037E+08  0.9118800E+02  0.7818608E-02  0.1180000E+00
       11   -1    0    0    0    0  0.00000000000E+00  0.00000000000E+00  0.39999999673E+01  0.40000000000E+01  0.51109989000E-03 0. -1.
     -623   -1    0    0    0    0  0.00000000000E+00  0.00000000000E+00  0.12525980253E-10  0.17130000000E+03  0.17130000000E+03 0. -1.
       11    1    1    2    0    0 -0.24734619856E-03 -0.59326377912E-03  0.11494216083E+00  0.11494509428E+00  0.51109989000E-03 0. -1.
     -623    1    1    2    0    0  0.13288142347E-02  0.54648741589E-03  0.54537313635E-04  0.17130000001E+03  0.17130000000E+03 0. -1.
      622    1    1    2    0    0 -0.10814680362E-02  0.46776363232E-04  0.38850032692E+01  0.38850548997E+01  0.20000000000E-01 0. -1.
</event>
<event>
 5   0  0.3603037E+08  0.9118800E+02  0.7818608E-02  0.1180000E+00
       11   -1    0    0    0    0  0.00000000000E+00  0.00000000000E+00  0.39999999673E+01  0.40000000000E+01  0.51109989000E-03 0. -1.
     -623   -1    0    0    0    0  0.00000000000E+00  0.00000000000E+00  0.12525980253E-10  0.17130000000E+03  0.17130000000E+03 0. -1.
       11    1    1    2    0    0  0.11778759692E-02 -0.11495653811E-02  0.15308026299E-01  0.15404732480E-01  0.51109989000E-03 0. -1.
     -623    1    1    2    0    0 -0.48169275649E-03 -0.52759021852E-03  0.14728250357E-03  0.17130000000E+03  0.17130000000E+03 0. -1.
      622    1    1    2    0    0 -0.69618321269E-03  0.16771555996E-02  0.39845446586E+01  0.39845952660E+01  0.20000000000E-01 0. -1.
</event>
<event>
 5   0  0.3603037E+08  0.9118800E+02  0.7818608E-02  0.1180000E+00
       11   -1    0    0    0    0  0.00000000000E+00  0.00000000000E+00  0.39999999673E+01  0.40000000000E+01  0.51109989000E-03 0. -1.
     -623   -1    0    0    0    0  0.00000000000E+00  0.00000000000E+00  0.12525980253E-10  0.17130000000E+03  0.17130000000E+03 0.  1.
       11    1    1    2    0    0 -0.37734134323E-03  0.32061212503E-02  0.64833789187E-01  0.64916123122E-01  0.51109989000E-03 0. -1.
     -623    1    1    2    0    0 -0.70165532217E-03 -0.18047789917E-02  0.13353491331E-03  0.17130000001E+03  0.17130000000E+03 0.  1.
      622    1    1    2    0    0  0.10789966654E-02 -0.14013422586E-02  0.39350326433E+01  0.39350838659E+01  0.20000000000E-01 0. -1.
</event>
<event>
 5   0  0.3603037E+08  0.9118800E+02  0.7818608E-02  0.1180000E+00
       11   -1    0    0    0    0  0.00000000000E+00  0.00000000000E+00  0.39999999673E+01  0.40000000000E+01  0.51109989000E-03 0.  1.
     -623   -1    0    0    0    0  0.00000000000E+00  0.00000000000E+00  0.12525980253E-10  0.17130000000E+03  0.17130000000E+03 0. -1.
       11    1    1    2    0    0 -0.19041371770E-02  0.91944991548E-02  0.12471120677E+01  0.12471475194E+01  0.51109989000E-03 0.  1.
     -623    1    1    2    0    0  0.60784776289E-03 -0.18935061384E-02  0.11807070041E-03  0.17130000001E+03  0.17130000000E+03 0. -1.
      622    1    1    2    0    0  0.12962894141E-02 -0.73009930164E-02  0.27527698289E+01  0.27528524690E+01  0.20000000000E-01 0.  0.
</event>
<event>
 5   0  0.3603037E+08  0.9118800E+02  0.7818608E-02  0.1180000E+00
       11   -1    0    0    0    0  0.00000000000E+00  0.00000000000E+00  0.39999999673E+01  0.40000000000E+01  0.51109989000E-03 0.  1.
     -623   -1    0    0    0    0  0.00000000000E+00  0.00000000000E+00  0.12525980253E-10  0.17130000000E+03  0.17130000000E+03 0. -1.
       11    1    1    2    0    0  0.86264075847E-03 -0.36142073073E-03  0.39249797898E+00  0.39249942611E+00  0.51109989000E-03 0.  1.
     -623    1    1    2    0    0  0.30327712270E-03  0.69801669998E-04  0.57055455060E-04  0.17130000000E+03  0.17130000000E+03 0. -1.
      622    1    1    2    0    0 -0.11659178812E-02  0.29161906074E-03  0.36074449329E+01  0.36075005736E+01  0.20000000000E-01 0.  1.
</event>
<event>
 5   0  0.3603037E+08  0.9118800E+02  0.7818608E-02  0.1180000E+00
       11   -1    0    0    0    0  0.00000000000E+00  0.00000000000E+00  0.39999999673E+01  0.40000000000E+01  0.51109989000E-03 0. -1.
     -623   -1    0    0    0    0  0.00000000000E+00  0.00000000000E+00  0.12525980253E-10  0.17130000000E+03  0.17130000000E+03 0. -1.
       11    1    1    2    0    0  0.39448925979E-02  0.15002721268E-02  0.28085391091E-01  0.28405341213E-01  0.51109989000E-03 0. -1.
     -623    1    1    2    0    0 -0.22699079005E-02 -0.69261701363E-04  0.37090187911E-03  0.17130000002E+03  0.17130000000E+03 0. -1.
      622    1    1    2    0    0 -0.16749846974E-02 -0.14310104254E-02  0.39715436744E+01  0.39715946433E+01  0.20000000000E-01 0. -1.
</event>
<event>
 5   0  0.3603037E+08  0.9118800E+02  0.7818608E-02  0.1180000E+00
       11   -1    0    0    0    0  0.00000000000E+00  0.00000000000E+00  0.39999999673E+01  0.40000000000E+01  0.51109989000E-03 0. -1.
     -623   -1    0    0    0    0  0.00000000000E+00  0.00000000000E+00  0.12525980253E-10  0.17130000000E+03  0.17130000000E+03 0.  1.
       11    1    1    2    0    0  0.26693951196E-03  0.13518649655E-02  0.15968056324E-01  0.16035549211E-01  0.51109989000E-03 0. -1.
     -623    1    1    2    0    0 -0.60726605371E-03  0.60158518053E-03  0.11815744596E-03  0.17130000000E+03  0.17130000000E+03 0.  1.
      622    1    1    2    0    0  0.34032654176E-03 -0.19534501460E-02  0.39839137536E+01  0.39839644486E+01  0.20000000000E-01 0.  0.
</event>
<event>
 5   0  0.3603037E+08  0.9118800E+02  0.7818608E-02  0.1180000E+00
       11   -1    0    0    0    0  0.00000000000E+00  0.00000000000E+00  0.39999999673E+01  0.40000000000E+01  0.51109989000E-03 0.  1.
     -623   -1    0    0    0    0  0.00000000000E+00  0.00000000000E+00  0.12525980253E-10  0.17130000000E+03  0.17130000000E+03 0. -1.
       11    1    1    2    0    0  0.34109365724E-02 -0.12802792674E-02  0.20715922358E+00  0.20719188869E+00  0.51109989000E-03 0.  1.
     -623    1    1    2    0    0 -0.11061630542E-03  0.18307903617E-04  0.87010135455E-04  0.17130000000E+03  0.17130000000E+03 0. -1.
      622    1    1    2    0    0 -0.33003202670E-02  0.12619713638E-02  0.37927537336E+01  0.37928081113E+01  0.20000000000E-01 0.  0.
</event>
<event>
 5   0  0.3603037E+08  0.9118800E+02  0.7818608E-02  0.1180000E+00
       11   -1    0    0    0    0  0.00000000000E+00  0.00000000000E+00  0.39999999673E+01  0.40000000000E+01  0.51109989000E-03 0.  1.
     -623   -1    0    0    0    0  0.00000000000E+00  0.00000000000E+00  0.12525980253E-10  0.17130000000E+03  0.17130000000E+03 0. -1.
       11    1    1    2    0    0  0.20376119094E-02 -0.99744099831E-02  0.18154438296E+01  0.18154724455E+01  0.51109989000E-03 0.  1.
     -623    1    1    2    0    0 -0.18290255178E-02 -0.11731607108E-02  0.14860617840E-03  0.17130000001E+03  0.17130000000E+03 0. -1.
      622    1    1    2    0    0 -0.20858639156E-03  0.11147570694E-01  0.21844075315E+01  0.21845275406E+01  0.20000000000E-01 0.  1.
</event>
<event>
 5   0  0.3603037E+08  0.9118800E+02  0.7818608E-02  0.1180000E+00
       11   -1    0    0    0    0  0.00000000000E+00  0.00000000000E+00  0.39999999673E+01  0.40000000000E+01  0.51109989000E-03 0. -1.
     -623   -1    0    0    0    0  0.00000000000E+00  0.00000000000E+00  0.12525980253E-10  0.17130000000E+03  0.17130000000E+03 0. -1.
       11    1    1    2    0    0 -0.72005764947E-02 -0.46014657129E-02  0.52406817305E+00  0.52413808582E+00  0.51109989000E-03 0. -1.
     -623    1    1    2    0    0 -0.28775876472E-02  0.72256883127E-02  0.14319852022E-03  0.17130000018E+03  0.17130000000E+03 0. -1.
      622    1    1    2    0    0  0.10078164142E-01 -0.26242225998E-02  0.34757885958E+01  0.34758617376E+01  0.20000000000E-01 0. -1.
</event>
<event>
 5   0  0.3603037E+08  0.9118800E+02  0.7818608E-02  0.1180000E+00
       11   -1    0    0    0    0  0.00000000000E+00  0.00000000000E+00  0.39999999673E+01  0.40000000000E+01  0.51109989000E-03 0. -1.
     -623   -1    0    0    0    0  0.00000000000E+00  0.00000000000E+00  0.12525980253E-10  0.17130000000E+03  0.17130000000E+03 0.  1.
       11    1    1    2    0    0  0.37461098242E-02  0.67460529896E-02  0.73400664828E+00  0.73404738506E+00  0.51109989000E-03 0. -1.
     -623    1    1    2    0    0 -0.25971102532E-02  0.16811863403E-02  0.11304543957E-03  0.17130000003E+03  0.17130000000E+03 0.  1.
      622    1    1    2    0    0 -0.11489995710E-02 -0.84272393299E-02  0.32658802736E+01  0.32659525870E+01  0.20000000000E-01 0. -1.
</event>
<event>
 5   0  0.3603037E+08  0.9118800E+02  0.7818608E-02  0.1180000E+00
       11   -1    0    0    0    0  0.00000000000E+00  0.00000000000E+00  0.39999999673E+01  0.40000000000E+01  0.51109989000E-03 0. -1.
     -623   -1    0    0    0    0  0.00000000000E+00  0.00000000000E+00  0.12525980253E-10  0.17130000000E+03  0.17130000000E+03 0.  1.
       11    1    1    2    0    0 -0.20751385570E-03  0.59220125339E-03  0.28517316525E-01  0.28528798231E-01  0.51109989000E-03 0. -1.
     -623    1    1    2    0    0  0.51478466600E-03  0.92863464807E-03  0.62114943915E-04  0.17130000000E+03  0.17130000000E+03 0.  1.
      622    1    1    2    0    0 -0.30727081030E-03 -0.15208359015E-02  0.39714205359E+01  0.39714711985E+01  0.20000000000E-01 0. -1.
</event>
<event>
 5   0  0.3603037E+08  0.9118800E+02  0.7818608E-02  0.1180000E+00
       11   -1    0    0    0    0  0.00000000000E+00  0.00000000000E+00  0.39999999673E+01  0.40000000000E+01  0.51109989000E-03 0. -1.
     -623   -1    0    0    0    0  0.00000000000E+00  0.00000000000E+00  0.12525980253E-10  0.17130000000E+03  0.17130000000E+03 0.  1.
       11    1    1    2    0    0 -0.24700532764E-02 -0.15120897038E-02  0.12923073887E-01  0.13253476494E-01  0.51109989000E-03 0. -1.
     -623    1    1    2    0    0  0.11230143061E-02 -0.62069925010E-03  0.38133979933E-03  0.17130000001E+03  0.17130000000E+03 0.  1.
      622    1    1    2    0    0  0.13470389704E-02  0.21327889539E-02  0.39866955537E+01  0.39867465183E+01  0.20000000000E-01 0. -1.
</event>
<event>
 5   0  0.3603037E+08  0.9118800E+02  0.7818608E-02  0.1180000E+00
       11   -1    0    0    0    0  0.00000000000E+00  0.00000000000E+00  0.39999999673E+01  0.40000000000E+01  0.51109989000E-03 0. -1.
     -623   -1    0    0    0    0  0.00000000000E+00  0.00000000000E+00  0.12525980253E-10  0.17130000000E+03  0.17130000000E+03 0. -1.
       11    1    1    2    0    0 -0.26586931392E-02  0.24458203739E-02  0.36859963167E-01  0.37040097096E-01  0.51109989000E-03 0. -1.
     -623    1    1    2    0    0 -0.26478142222E-03 -0.30770645964E-03  0.23222470457E-03  0.17130000000E+03  0.17130000000E+03 0. -1.
      622    1    1    2    0    0  0.29234745614E-02 -0.21381139142E-02  0.39629077795E+01  0.39629599023E+01  0.20000000000E-01 0. -1.
</event>
<event>
 5   0  0.3603037E+08  0.9118800E+02  0.7818608E-02  0.1180000E+00
       11   -1    0    0    0    0  0.00000000000E+00  0.00000000000E+00  0.39999999673E+01  0.40000000000E+01  0.51109989000E-03 0.  1.
     -623   -1    0    0    0    0  0.00000000000E+00  0.00000000000E+00  0.12525980253E-10  0.17130000000E+03  0.17130000000E+03 0. -1.
       11    1    1    2    0    0 -0.19742526049E-03  0.26714909431E-03  0.54729682915E-01  0.54733077380E-01  0.51109989000E-03 0.  1.
     -623    1    1    2    0    0  0.18144047201E-03  0.50080890839E-04  0.54068703541E-04  0.17130000000E+03  0.17130000000E+03 0. -1.
      622    1    1    2    0    0  0.15984788474E-04 -0.31722998515E-03  0.39452162157E+01  0.39452669225E+01  0.20000000000E-01 0.  1.
</event>
<event>
 5   0  0.3603037E+08  0.9118800E+02  0.7818608E-02  0.1180000E+00
       11   -1    0    0    0    0  0.00000000000E+00  0.00000000000E+00  0.39999999673E+01  0.40000000000E+01  0.51109989000E-03 0.  1.
     -623   -1    0    0    0    0  0.00000000000E+00  0.00000000000E+00  0.12525980253E-10  0.17130000000E+03  0.17130000000E+03 0.  1.
       11    1    1    2    0    0  0.49531664831E-02  0.71411196888E-02  0.11304200569E+01  0.11304535797E+01  0.51109989000E-03 0.  1.
     -623    1    1    2    0    0 -0.27941759636E-03  0.17691719882E-03  0.11632662149E-03  0.17130000000E+03  0.17130000000E+03 0.  1.
      622    1    1    2    0    0 -0.46737488868E-02 -0.73180368876E-02  0.28694635838E+01  0.28695464200E+01  0.20000000000E-01 0.  1.
</event>
<event>
 5   0  0.3603037E+08  0.9118800E+02  0.7818608E-02  0.1180000E+00
       11   -1    0    0    0    0  0.00000000000E+00  0.00000000000E+00  0.39999999673E+01  0.40000000000E+01  0.51109989000E-03 0. -1.
     -623   -1    0    0    0    0  0.00000000000E+00  0.00000000000E+00  0.12525980253E-10  0.17130000000E+03  0.17130000000E+03 0.  1.
       11    1    1    2    0    0  0.46018936837E-02  0.41457470732E-03  0.69900725979E+00  0.69902271763E+00  0.51109989000E-03 0. -1.
     -623    1    1    2    0    0 -0.12111590506E-01  0.36513233340E-02  0.87527493669E-04  0.17130000047E+03  0.17130000000E+03 0.  1.
      622    1    1    2    0    0  0.75096968221E-02 -0.40658980414E-02  0.33009051801E+01  0.33009768153E+01  0.20000000000E-01 0. -1.
</event>
<event>
 5   0  0.3603037E+08  0.9118800E+02  0.7818608E-02  0.1180000E+00
       11   -1    0    0    0    0  0.00000000000E+00  0.00000000000E+00  0.39999999673E+01  0.40000000000E+01  0.51109989000E-03 0. -1.
     -623   -1    0    0    0    0  0.00000000000E+00  0.00000000000E+00  0.12525980253E-10  0.17130000000E+03  0.17130000000E+03 0.  1.
       11    1    1    2    0    0 -0.15913164044E-01 -0.47847306221E-02  0.27565277864E+01  0.27565779185E+01  0.51109989000E-03 0. -1.
     -623    1    1    2    0    0  0.42006867252E-03  0.11321372639E-01  0.32505507269E-03  0.17130000037E+03  0.17130000000E+03 0.  1.
      622    1    1    2    0    0  0.15493095371E-01 -0.65366420168E-02  0.12431471259E+01  0.12434217065E+01  0.20000000000E-01 0.  1.
</event>
<event>
 5   0  0.3603037E+08  0.9118800E+02  0.7818608E-02  0.1180000E+00
       11   -1    0    0    0    0  0.00000000000E+00  0.00000000000E+00  0.39999999673E+01  0.40000000000E+01  0.51109989000E-03 0. -1.
     -623   -1    0    0    0    0  0.00000000000E+00  0.00000000000E+00  0.12525980253E-10  0.17130000000E+03  0.17130000000E+03 0. -1.
       11    1    1    2    0    0 -0.12457964620E-02 -0.20333984704E-02  0.17361709168E+00  0.17363422031E+00  0.51109989000E-03 0. -1.
     -623    1    1    2    0    0 -0.10208143927E-02 -0.20990154623E-03  0.70697394039E-04  0.17130000000E+03  0.17130000000E+03 0. -1.
      622    1    1    2    0    0  0.22666108547E-02  0.22433000166E-02  0.38263121783E+01  0.38263657765E+01  0.20000000000E-01 0. -1.
</event>
<event>
 5   0  0.3603037E+08  0.9118800E+02  0.7818608E-02  0.1180000E+00
       11   -1    0    0    0    0  0.00000000000E+00  0.00000000000E+00  0.39999999673E+01  0.40000000000E+01  0.51109989000E-03 0.  1.
     -623   -1    0    0    0    0  0.00000000000E+00  0.00000000000E+00  0.12525980253E-10  0.17130000000E+03  0.17130000000E+03 0.  1.
       11    1    1    2    0    0 -0.12466312035E-02  0.15729492406E-02  0.71908082399E-01  0.71937902359E-01  0.51109989000E-03 0.  1.
     -623    1    1    2    0    0 -0.32271621765E-03 -0.32504632466E-03  0.81215697367E-04  0.17130000000E+03  0.17130000000E+03 0.  1.
      622    1    1    2    0    0  0.15693474211E-02 -0.12479029159E-02  0.39280106693E+01  0.39280620970E+01  0.20000000000E-01 0.  1.
</event>
<event>
 5   0  0.3603037E+08  0.9118800E+02  0.7818608E-02  0.1180000E+00
       11   -1    0    0    0    0  0.00000000000E+00  0.00000000000E+00  0.39999999673E+01  0.40000000000E+01  0.51109989000E-03 0.  1.
     -623   -1    0    0    0    0  0.00000000000E+00  0.00000000000E+00  0.12525980253E-10  0.17130000000E+03  0.17130000000E+03 0. -1.
       11    1    1    2    0    0  0.92500708845E-03  0.24228128146E-02  0.80834749866E+00  0.80835182035E+00  0.51109989000E-03 0.  1.
     -623    1    1    2    0    0 -0.70333996560E-03  0.97957091970E-03  0.68778726862E-04  0.17130000000E+03  0.17130000000E+03 0. -1.
      622    1    1    2    0    0 -0.22166712286E-03 -0.34023837343E-02  0.31915836900E+01  0.31916481754E+01  0.20000000000E-01 0.  1.
</event>
<event>
 5   0  0.3603037E+08  0.9118800E+02  0.7818608E-02  0.1180000E+00
       11   -1    0    0    0    0  0.00000000000E+00  0.00000000000E+00  0.39999999673E+01  0.40000000000E+01  0.51109989000E-03 0.  1.
     -623   -1    0    0    0    0  0.00000000000E+00  0.00000000000E+00  0.12525980253E-10  0.17130000000E+03  0.17130000000E+03 0. -1.
       11    1    1    2    0    0  0.44283673119E-02  0.11108016789E-01  0.43631203601E+00  0.43647617629E+00  0.51109989000E-03 0.  1.
     -623    1    1    2    0    0  0.79951495067E-02 -0.91280256173E-02  0.24286880770E-03  0.17130000043E+03  0.17130000000E+03 0. -1.
      622    1    1    2    0    0 -0.12423516819E-01 -0.19799911722E-02  0.35634450625E+01  0.35635233938E+01  0.20000000000E-01 0.  1.
</event>
<event>
 5   0  0.3603037E+08  0.9118800E+02  0.7818608E-02  0.1180000E+00
       11   -1    0    0    0    0  0.00000000000E+00  0.00000000000E+00  0.39999999673E+01  0.40000000000E+01  0.51109989000E-03 0.  1.
     -623   -1    0    0    0    0  0.00000000000E+00  0.00000000000E+00  0.12525980253E-10  0.17130000000E+03  0.17130000000E+03 0. -1.
       11    1    1    2    0    0 -0.11182022735E-02  0.47773361244E-03  0.10249519279E+00  0.10250367980E+00  0.51109989000E-03 0.  1.
     -623    1    1    2    0    0 -0.92461956701E-03 -0.13426515366E-02  0.60408809821E-04  0.17130000001E+03  0.17130000000E+03 0. -1.
      622    1    1    2    0    0  0.20428218406E-02  0.86491792418E-03  0.38974443658E+01  0.38974963124E+01  0.20000000000E-01 0.  1.
</event>
<event>
 5   0  0.3603037E+08  0.9118800E+02  0.7818608E-02  0.1180000E+00
       11   -1    0    0    0    0  0.00000000000E+00  0.00000000000E+00  0.39999999673E+01  0.40000000000E+01  0.51109989000E-03 0.  1.
     -623   -1    0    0    0    0  0.00000000000E+00  0.00000000000E+00  0.12525980253E-10  0.17130000000E+03  0.17130000000E+03 0. -1.
       11    1    1    2    0    0 -0.96524561443E-04  0.15076343741E-02  0.26322332331E+00  0.26322815471E+00  0.51109989000E-03 0.  1.
     -623    1    1    2    0    0 -0.27728795660E-03 -0.62423767540E-04  0.58619696117E-04  0.17130000000E+03  0.17130000000E+03 0. -1.
      622    1    1    2    0    0  0.37381251805E-03 -0.14452106066E-02  0.37367180244E+01  0.37367718450E+01  0.20000000000E-01 0.  1.
</event>
<event>
 5   0  0.3603037E+08  0.9118800E+02  0.7818608E-02  0.1180000E+00
       11   -1    0    0    0    0  0.00000000000E+00  0.00000000000E+00  0.39999999673E+01  0.40000000000E+01  0.51109989000E-03 0. -1.
     -623   -1    0    0    0    0  0.00000000000E+00  0.00000000000E+00  0.12525980253E-10  0.17130000000E+03  0.17130000000E+03 0. -1.
       11    1    1    2    0    0  0.21497708563E-02  0.11242314232E-02  0.29957301860E-02  0.38885771357E-02  0.51109989000E-03 0. -1.
     -623    1    1    2    0    0  0.23190795191E-03 -0.27529564303E-03  0.94366617858E-03  0.17130000000E+03  0.17130000000E+03 0. -1.
      622    1    1    2    0    0 -0.23816788082E-02 -0.84893578017E-03  0.39960605710E+01  0.39961114199E+01  0.20000000000E-01 0. -1.
</event>
<event>
 5   0  0.3603037E+08  0.9118800E+02  0.7818608E-02  0.1180000E+00
       11   -1    0    0    0    0  0.00000000000E+00  0.00000000000E+00  0.39999999673E+01  0.40000000000E+01  0.51109989000E-03 0. -1.
     -623   -1    0    0    0    0  0.00000000000E+00  0.00000000000E+00  0.12525980253E-10  0.17130000000E+03  0.17130000000E+03 0. -1.
       11    1    1    2    0    0 -0.18243174043E-02 -0.14433532127E-01  0.17478947739E+01  0.17479553932E+01  0.51109989000E-03 0. -1.
     -623    1    1    2    0    0 -0.30232563327E-02  0.43578374142E-02  0.17723681920E-03  0.17130000008E+03  0.17130000000E+03 0. -1.
      622    1    1    2    0    0  0.48475737370E-02  0.10075694712E-01  0.22519279567E+01  0.22520445246E+01  0.20000000000E-01 0.  1.
</event>
<event>
 5   0  0.3603037E+08  0.9118800E+02  0.7818608E-02  0.1180000E+00
       11   -1    0    0    0    0  0.00000000000E+00  0.00000000000E+00  0.39999999673E+01  0.40000000000E+01  0.51109989000E-03 0.  1.
     -623   -1    0    0    0    0  0.00000000000E+00  0.00000000000E+00  0.12525980253E-10  0.17130000000E+03  0.17130000000E+03 0. -1.
       11    1    1    2    0    0 -0.83152480562E-02  0.15394436581E-01  0.64012237647E+00  0.64036165571E+00  0.51109989000E-03 0.  1.
     -623    1    1    2    0    0 -0.51488215973E-02 -0.23606703254E-01  0.33749883894E-03  0.17130000170E+03  0.17130000000E+03 0. -1.
      622    1    1    2    0    0  0.13464069654E-01  0.82122666738E-02  0.33595400921E+01  0.33596366400E+01  0.20000000000E-01 0.  1.
</event>
<event>
 5   0  0.3603037E+08  0.9118800E+02  0.7818608E-02  0.1180000E+00
       11   -1    0    0    0    0  0.00000000000E+00  0.00000000000E+00  0.39999999673E+01  0.40000000000E+01  0.51109989000E-03 0. -1.
     -623   -1    0    0    0    0  0.00000000000E+00  0.00000000000E+00  0.12525980253E-10  0.17130000000E+03  0.17130000000E+03 0. -1.
       11    1    1    2    0    0  0.87128341738E-03  0.21151614070E-01  0.10772125321E+01  0.10774206470E+01  0.51109989000E-03 0. -1.
     -623    1    1    2    0    0  0.83605268712E-03  0.54493971737E-03  0.35755580498E-03  0.17130000000E+03  0.17130000000E+03 0. -1.
      622    1    1    2    0    0 -0.17073361045E-02 -0.21696553787E-01  0.29224298794E+01  0.29225793497E+01  0.20000000000E-01 0. -1.
</event>
<event>
 5   0  0.3603037E+08  0.9118800E+02  0.7818608E-02  0.1180000E+00
       11   -1    0    0    0    0  0.00000000000E+00  0.00000000000E+00  0.39999999673E+01  0.40000000000E+01  0.51109989000E-03 0.  1.
     -623   -1    0    0    0    0  0.00000000000E+00  0.00000000000E+00  0.12525980253E-10  0.17130000000E+03  0.17130000000E+03 0.  1.
       11    1    1    2    0    0  0.14466830728E-02  0.13578786521E-02  0.27176980828E+00  0.27177753152E+00  0.51109989000E-03 0.  1.
     -623    1    1    2    0    0  0.56160460992E-03  0.71166372490E-03  0.62453587228E-04  0.17130000000E+03  0.17130000000E+03 0.  1.
      622    1    1    2    0    0 -0.20082876828E-02 -0.20695423770E-02  0.37281677055E+01  0.37282224661E+01  0.20000000000E-01 0.  1.
</event>
<event>
 5   0  0.3603037E+08  0.9118800E+02  0.7818608E-02  0.1180000E+00
       11   -1    0    0    0    0  0.00000000000E+00  0.00000000000E+00  0.39999999673E+01  0.40000000000E+01  0.51109989000E-03 0. -1.
     -623   -1    0    0    0    0  0.00000000000E+00  0.00000000000E+00  0.12525980253E-10  0.17130000000E+03  0.17130000000E+03 0.  1.
       11    1    1    2    0    0 -0.14565593043E-02  0.25088278620E-02  0.49839378585E+00  0.49840249074E+00  0.51109989000E-03 0. -1.
     -623    1    1    2    0    0  0.21891293356E-03  0.37544412846E-04  0.66934269414E-04  0.17130000000E+03  0.17130000000E+03 0.  1.
      622    1    1    2    0    0  0.12376463707E-02 -0.25463722748E-02  0.35015392472E+01  0.35015975091E+01  0.20000000000E-01 0. -1.
</event>
<event>
 5   0  0.3603037E+08  0.9118800E+02  0.7818608E-02  0.1180000E+00
       11   -1    0    0    0    0  0.00000000000E+00  0.00000000000E+00  0.39999999673E+01  0.40000000000E+01  0.51109989000E-03 0.  1.
     -623   -1    0    0    0    0  0.00000000000E+00  0.00000000000E+00  0.12525980253E-10  0.17130000000E+03  0.17130000000E+03 0.  1.
       11    1    1    2    0    0 -0.28011729313E-02 -0.30208936407E-02  0.32626616039E+00  0.32629256965E+00  0.51109989000E-03 0.  1.
     -623    1    1    2    0    0 -0.90039777262E-03  0.16016454858E-04  0.83914100041E-04  0.17130000000E+03  0.17130000000E+03 0.  1.
      622    1    1    2    0    0  0.37015707039E-02  0.30048771858E-02  0.36736498929E+01  0.36737074280E+01  0.20000000000E-01 0.  1.
</event>
<event>
 5   0  0.3603037E+08  0.9118800E+02  0.7818608E-02  0.1180000E+00
       11   -1    0    0    0    0  0.00000000000E+00  0.00000000000E+00  0.39999999673E+01  0.40000000000E+01  0.51109989000E-03 0. -1.
     -623   -1    0    0    0    0  0.00000000000E+00  0.00000000000E+00  0.12525980253E-10  0.17130000000E+03  0.17130000000E+03 0. -1.
       11    1    1    2    0    0 -0.40911662926E-02  0.88643676147E-02  0.55016961392E+00  0.55025646743E+00  0.51109989000E-03 0. -1.
     -623    1    1    2    0    0  0.22008157204E-03  0.56743233015E-03  0.15986362117E-03  0.17130000000E+03  0.17130000000E+03 0. -1.
      622    1    1    2    0    0  0.38710847206E-02 -0.94317999449E-02  0.34496704898E+01  0.34497435314E+01  0.20000000000E-01 0. -1.
</event>
<event>
 5   0  0.3603037E+08  0.9118800E+02  0.7818608E-02  0.1180000E+00
       11   -1    0    0    0    0  0.00000000000E+00  0.00000000000E+00  0.39999999673E+01  0.40000000000E+01  0.51109989000E-03 0.  1.
     -623   -1    0    0    0    0  0.00000000000E+00  0.00000000000E+00  0.12525980253E-10  0.17130000000E+03  0.17130000000E+03 0. -1.
       11    1    1    2    0    0  0.21394877245E-02  0.34497769597E-02  0.65987295162E+00  0.65988563545E+00  0.51109989000E-03 0.  1.
     -623    1    1    2    0    0 -0.12371695752E-02 -0.85847139068E-03  0.73663631848E-04  0.17130000001E+03  0.17130000000E+03 0. -1.
      622    1    1    2    0    0 -0.90231814935E-03 -0.25913055690E-02  0.33400533521E+01  0.33401143579E+01  0.20000000000E-01 0.  1.
</event>
<event>
 5   0  0.3603037E+08  0.9118800E+02  0.7818608E-02  0.1180000E+00
       11   -1    0    0    0    0  0.00000000000E+00  0.00000000000E+00  0.39999999673E+01  0.40000000000E+01  0.51109989000E-03 0.  1.
     -623   -1    0    0    0    0  0.00000000000E+00  0.00000000000E+00  0.12525980253E-10  0.17130000000E+03  0.17130000000E+03 0.  1.
       11    1    1    2    0    0 -0.20289300308E-02  0.47297187779E-02  0.52305584412E-01  0.52560652387E-01  0.51109989000E-03 0.  1.
     -623    1    1    2    0    0  0.51033472454E-02  0.72029678319E-03  0.31073880706E-03  0.17130000008E+03  0.17130000000E+03 0.  1.
      622    1    1    2    0    0 -0.30744172146E-02 -0.54500155610E-02  0.39473836441E+01  0.39474392698E+01  0.20000000000E-01 0.  1.
</event>
<event>
 5   0  0.3603037E+08  0.9118800E+02  0.7818608E-02  0.1180000E+00
       11   -1    0    0    0    0  0.00000000000E+00  0.00000000000E+00  0.39999999673E+01  0.40000000000E+01  0.51109989000E-03 0.  1.
     -623   -1    0    0    0    0  0.00000000000E+00  0.00000000000E+00  0.12525980253E-10  0.17130000000E+03  0.17130000000E+03 0. -1.
       11    1    1    2    0    0 -0.17251535004E-02  0.25810154518E-02  0.63239328379E+00  0.63240111037E+00  0.51109989000E-03 0.  1.
     -623    1    1    2    0    0  0.36795445519E-03  0.23795822585E-03  0.68637911358E-04  0.17130000000E+03  0.17130000000E+03 0. -1.
      622    1    1    2    0    0  0.13571990452E-02 -0.28189736777E-02  0.33675380457E+01  0.33675988891E+01  0.20000000000E-01 0.  1.
</event>
<event>
 5   0  0.3603037E+08  0.9118800E+02  0.7818608E-02  0.1180000E+00
       11   -1    0    0    0    0  0.00000000000E+00  0.00000000000E+00  0.39999999673E+01  0.40000000000E+01  0.51109989000E-03 0. -1.
     -623   -1    0    0    0    0  0.00000000000E+00  0.00000000000E+00  0.12525980253E-10  0.17130000000E+03  0.17130000000E+03 0. -1.
       11    1    1    2    0    0  0.41542979880E-02  0.87839402265E-02 -0.20185819775E-02  0.99373885460E-02  0.51109989000E-03 0. -1.
     -623    1    1    2    0    0 -0.32623466546E-02 -0.68475799215E-02  0.12007221038E-01  0.17130000059E+03  0.17130000000E+03 0. -1.
      622    1    1    2    0    0 -0.89195133349E-03 -0.19363603051E-02  0.39900113283E+01  0.39900620227E+01  0.20000000000E-01 0. -1.
</event>
<event>
 5   0  0.3603037E+08  0.9118800E+02  0.7818608E-02  0.1180000E+00
       11   -1    0    0    0    0  0.00000000000E+00  0.00000000000E+00  0.39999999673E+01  0.40000000000E+01  0.51109989000E-03 0.  1.
     -623   -1    0    0    0    0  0.00000000000E+00  0.00000000000E+00  0.12525980253E-10  0.17130000000E+03  0.17130000000E+03 0.  1.
       11    1    1    2    0    0 -0.40755152272E-02 -0.12276399835E-03  0.21226298035E+01  0.21226337812E+01  0.51109989000E-03 0.  1.
     -623    1    1    2    0    0 -0.11313479295E-02  0.25385642024E-03  0.11770981024E-03  0.17130000000E+03  0.17130000000E+03 0.  1.
      622    1    1    2    0    0  0.52068631566E-02 -0.13109242188E-03  0.18772524540E+01  0.18773662149E+01  0.20000000000E-01 0.  0.
</event>
<event>
 5   0  0.3603037E+08  0.9118800E+02  0.7818608E-02  0.1180000E+00
       11   -1    0    0    0    0  0.00000000000E+00  0.00000000000E+00  0.39999999673E+01  0.40000000000E+01  0.51109989000E-03 0. -1.
     -623   -1    0    0    0    0  0.00000000000E+00  0.00000000000E+00  0.12525980253E-10  0.17130000000E+03  0.17130000000E+03 0. -1.
       11    1    1    2    0    0  0.27521527794E-02  0.81229504509E-03  0.30463748040E-01  0.30602864787E-01  0.51109989000E-03 0. -1.
     -623    1    1    2    0    0 -0.36223611658E-02  0.32075000238E-03  0.18976571975E-03  0.17130000004E+03  0.17130000000E+03 0. -1.
      622    1    1    2    0    0  0.87020838642E-03 -0.11330450475E-02  0.39693464536E+01  0.39693970965E+01  0.20000000000E-01 0. -1.
</event>
<event>
 5   0  0.3603037E+08  0.9118800E+02  0.7818608E-02  0.1180000E+00
       11   -1    0    0    0    0  0.00000000000E+00  0.00000000000E+00  0.39999999673E+01  0.40000000000E+01  0.51109989000E-03 0. -1.
     -623   -1    0    0    0    0  0.00000000000E+00  0.00000000000E+00  0.12525980253E-10  0.17130000000E+03  0.17130000000E+03 0.  1.
       11    1    1    2    0    0  0.18313294289E-03  0.10486549571E-02  0.21540167705E-01  0.21572511709E-01  0.51109989000E-03 0.  1.
     -623    1    1    2    0    0 -0.77097066345E-03  0.50778157034E-03  0.82933194245E-04  0.17130000000E+03  0.17130000000E+03 0.  1.
      622    1    1    2    0    0  0.58783772056E-03 -0.15564365274E-02  0.39783768665E+01  0.39784274858E+01  0.20000000000E-01 0. -1.
</event>
<event>
 5   0  0.3603037E+08  0.9118800E+02  0.7818608E-02  0.1180000E+00
       11   -1    0    0    0    0  0.00000000000E+00  0.00000000000E+00  0.39999999673E+01  0.40000000000E+01  0.51109989000E-03 0.  1.
     -623   -1    0    0    0    0  0.00000000000E+00  0.00000000000E+00  0.12525980253E-10  0.17130000000E+03  0.17130000000E+03 0.  1.
       11    1    1    2    0    0 -0.32669196576E-03  0.23038813135E-03  0.55803437643E-01  0.55807209929E-01  0.51109989000E-03 0.  1.
     -623    1    1    2    0    0 -0.78956499366E-04 -0.93914780363E-06  0.54474993526E-04  0.17130000000E+03  0.17130000000E+03 0.  1.
      622    1    1    2    0    0  0.40564846512E-03 -0.22944898355E-03  0.39441420547E+01  0.39441927900E+01  0.20000000000E-01 0.  1.
</event>
<event>
 5   0  0.3603037E+08  0.9118800E+02  0.7818608E-02  0.1180000E+00
       11   -1    0    0    0    0  0.00000000000E+00  0.00000000000E+00  0.39999999673E+01  0.40000000000E+01  0.51109989000E-03 0. -1.
     -623   -1    0    0    0    0  0.00000000000E+00  0.00000000000E+00  0.12525980253E-10  0.17130000000E+03  0.17130000000E+03 0.  1.
       11    1    1    2    0    0  0.63779615219E-03 -0.88058625629E-04  0.30428956190E+00  0.30429067229E+00  0.51109989000E-03 0. -1.
     -623    1    1    2    0    0 -0.10563033490E-04 -0.42332659214E-03  0.55284096292E-04  0.17130000000E+03  0.17130000000E+03 0.  1.
      622    1    1    2    0    0 -0.62723311870E-03  0.51138521777E-03  0.36956551214E+01  0.36957093272E+01  0.20000000000E-01 0. -1.
</event>
<event>
 5   0  0.3603037E+08  0.9118800E+02  0.7818608E-02  0.1180000E+00
       11   -1    0    0    0    0  0.00000000000E+00  0.00000000000E+00  0.39999999673E+01  0.40000000000E+01  0.51109989000E-03 0.  1.
     -623   -1    0    0    0    0  0.00000000000E+00  0.00000000000E+00  0.12525980253E-10  0.17130000000E+03  0.17130000000E+03 0. -1.
       11    1    1    2    0    0  0.58156557973E-03 -0.25175612489E-02  0.20359339539E+00  0.20361043245E+00  0.51109989000E-03 0.  1.
     -623    1    1    2    0    0  0.17300332755E-02  0.20038520593E-02  0.70445413666E-04  0.17130000002E+03  0.17130000000E+03 0. -1.
      622    1    1    2    0    0 -0.23115988552E-02  0.51370918957E-03  0.37963361266E+01  0.37963895471E+01  0.20000000000E-01 0.  1.
</event>
<event>
 5   0  0.3603037E+08  0.9118800E+02  0.7818608E-02  0.1180000E+00
       11   -1    0    0    0    0  0.00000000000E+00  0.00000000000E+00  0.39999999673E+01  0.40000000000E+01  0.51109989000E-03 0.  1.
     -623   -1    0    0    0    0  0.00000000000E+00  0.00000000000E+00  0.12525980253E-10  0.17130000000E+03  0.17130000000E+03 0.  1.
       11    1    1    2    0    0 -0.18571432118E-02  0.61080754240E-02  0.43512586014E-01  0.43981404371E-01  0.51109989000E-03 0.  1.
     -623    1    1    2    0    0  0.30522678271E-03 -0.63752118518E-02  0.51977503908E-03  0.17130000012E+03  0.17130000000E+03 0.  1.
      622    1    1    2    0    0  0.15519164291E-02  0.26713642787E-03  0.39559676063E+01  0.39560184759E+01  0.20000000000E-01 0.  1.
</event>
<event>
 5   0  0.3603037E+08  0.9118800E+02  0.7818608E-02  0.1180000E+00
       11   -1    0    0    0    0  0.00000000000E+00  0.00000000000E+00  0.39999999673E+01  0.40000000000E+01  0.51109989000E-03 0. -1.
     -623   -1    0    0    0    0  0.00000000000E+00  0.00000000000E+00  0.12525980253E-10  0.17130000000E+03  0.17130000000E+03 0.  1.
       11    1    1    2    0    0 -0.17773398572E-03  0.18028862466E-02  0.10267135382E+01  0.10267152637E+01  0.51109989000E-03 0. -1.
     -623    1    1    2    0    0  0.40305126566E-04  0.38412136900E-03  0.69767277247E-04  0.17130000000E+03  0.17130000000E+03 0.  1.
      622    1    1    2    0    0  0.13742885915E-03 -0.21870076156E-02  0.29732166619E+01  0.29732847358E+01  0.20000000000E-01 0. -1.
</event>
<event>
 5   0  0.3603037E+08  0.9118800E+02  0.7818608E-02  0.1180000E+00
       11   -1    0    0    0    0  0.00000000000E+00  0.00000000000E+00  0.39999999673E+01  0.40000000000E+01  0.51109989000E-03 0. -1.
     -623   -1    0    0    0    0  0.00000000000E+00  0.00000000000E+00  0.12525980253E-10  0.17130000000E+03  0.17130000000E+03 0.  1.
       11    1    1    2    0    0  0.13458165755E-02 -0.40978223300E-01  0.39861325555E+00  0.40071662647E+00  0.51109989000E-03 0. -1.
     -623    1    1    2    0    0 -0.27202796212E-02  0.45996749303E-02  0.23431166766E-02  0.17130000010E+03  0.17130000000E+03 0.  1.
      622    1    1    2    0    0  0.13744630457E-02  0.36378548370E-01  0.35990435951E+01  0.35992832742E+01  0.20000000000E-01 0. -1.
</event>
<event>
 5   0  0.3603037E+08  0.9118800E+02  0.7818608E-02  0.1180000E+00
       11   -1    0    0    0    0  0.00000000000E+00  0.00000000000E+00  0.39999999673E+01  0.40000000000E+01  0.51109989000E-03 0.  1.
     -623   -1    0    0    0    0  0.00000000000E+00  0.00000000000E+00  0.12525980253E-10  0.17130000000E+03  0.17130000000E+03 0. -1.
       11    1    1    2    0    0  0.45984504087E-02 -0.33530434825E-03  0.34174099338E+00  0.34177247688E+00  0.51109989000E-03 0.  1.
     -623    1    1    2    0    0 -0.23586952835E-02 -0.34023970268E-02  0.88767744579E-04  0.17130000005E+03  0.17130000000E+03 0. -1.
      622    1    1    2    0    0 -0.22397551251E-02  0.37377013751E-02  0.36581702062E+01  0.36582274731E+01  0.20000000000E-01 0.  1.
</event>
<event>
 5   0  0.3603037E+08  0.9118800E+02  0.7818608E-02  0.1180000E+00
       11   -1    0    0    0    0  0.00000000000E+00  0.00000000000E+00  0.39999999673E+01  0.40000000000E+01  0.51109989000E-03 0. -1.
     -623   -1    0    0    0    0  0.00000000000E+00  0.00000000000E+00  0.12525980253E-10  0.17130000000E+03  0.17130000000E+03 0. -1.
       11    1    1    2    0    0 -0.10826105357E-01 -0.24568691218E-02  0.12958445258E+01  0.12958921780E+01  0.51109989000E-03 0. -1.
     -623    1    1    2    0    0 -0.12435176893E-02 -0.32150710240E-03  0.14995129749E-03  0.17130000000E+03  0.17130000000E+03 0. -1.
      622    1    1    2    0    0  0.12069623046E-01  0.27783762242E-02  0.27040054902E+01  0.27041078171E+01  0.20000000000E-01 0.  0.
</event>
<event>
 5   0  0.3603037E+08  0.9118800E+02  0.7818608E-02  0.1180000E+00
       11   -1    0    0    0    0  0.00000000000E+00  0.00000000000E+00  0.39999999673E+01  0.40000000000E+01  0.51109989000E-03 0.  1.
     -623   -1    0    0    0    0  0.00000000000E+00  0.00000000000E+00  0.12525980253E-10  0.17130000000E+03  0.17130000000E+03 0.  1.
       11    1    1    2    0    0 -0.57677302695E-02 -0.39710284856E-02  0.80607936422E+00  0.80610994190E+00  0.51109989000E-03 0.  1.
     -623    1    1    2    0    0 -0.53845070464E-03  0.22405818429E-02  0.99875280525E-04  0.17130000002E+03  0.17130000000E+03 0.  1.
      622    1    1    2    0    0  0.63061809742E-02  0.17304466427E-02  0.31938207279E+01  0.31938900426E+01  0.20000000000E-01 0.  1.
</event>
<event>
 5   0  0.3603037E+08  0.9118800E+02  0.7818608E-02  0.1180000E+00
       11   -1    0    0    0    0  0.00000000000E+00  0.00000000000E+00  0.39999999673E+01  0.40000000000E+01  0.51109989000E-03 0. -1.
     -623   -1    0    0    0    0  0.00000000000E+00  0.00000000000E+00  0.12525980253E-10  0.17130000000E+03  0.17130000000E+03 0.  1.
       11    1    1    2    0    0 -0.94858176580E-02  0.52806924933E-02  0.34814533536E+01  0.34814703188E+01  0.51109989000E-03 0. -1.
     -623    1    1    2    0    0 -0.80098875286E-02  0.38163856328E-02  0.77838995514E-03  0.17130000023E+03  0.17130000000E+03 0.  1.
      622    1    1    2    0    0  0.17495705187E-01 -0.90970781261E-02  0.51776822380E+00  0.51852944961E+00  0.20000000000E-01 0.  0.
</event>
<event>
 5   0  0.3603037E+08  0.9118800E+02  0.7818608E-02  0.1180000E+00
       11   -1    0    0    0    0  0.00000000000E+00  0.00000000000E+00  0.39999999673E+01  0.40000000000E+01  0.51109989000E-03 0. -1.
     -623   -1    0    0    0    0  0.00000000000E+00  0.00000000000E+00  0.12525980253E-10  0.17130000000E+03  0.17130000000E+03 0.  1.
       11    1    1    2    0    0  0.13192135123E-01  0.12738414535E-01  0.28036849319E+01  0.28037449524E+01  0.51109989000E-03 0. -1.
     -623    1    1    2    0    0 -0.45443482889E-02 -0.82172583097E-02  0.26725316394E-03  0.17130000026E+03  0.17130000000E+03 0.  1.
      622    1    1    2    0    0 -0.86477868345E-02 -0.45211562248E-02  0.11960477823E+01  0.11962547900E+01  0.20000000000E-01 0.  0.
</event>
<event>
 5   0  0.3603037E+08  0.9118800E+02  0.7818608E-02  0.1180000E+00
       11   -1    0    0    0    0  0.00000000000E+00  0.00000000000E+00  0.39999999673E+01  0.40000000000E+01  0.51109989000E-03 0. -1.
     -623   -1    0    0    0    0  0.00000000000E+00  0.00000000000E+00  0.12525980253E-10  0.17130000000E+03  0.17130000000E+03 0. -1.
       11    1    1    2    0    0  0.14764087359E-01 -0.14408574341E-01  0.34328898067E+01  0.34329518306E+01  0.51109989000E-03 0. -1.
     -623    1    1    2    0    0  0.13586612357E-02  0.13035301483E-02  0.79582449744E-03  0.17130000001E+03  0.17130000000E+03 0. -1.
      622    1    1    2    0    0 -0.16122748595E-01  0.13105044193E-01  0.56631433620E+00  0.56704815721E+00  0.20000000000E-01 0. -1.
</event>
<event>
 5   0  0.3603037E+08  0.9118800E+02  0.7818608E-02  0.1180000E+00
       11   -1    0    0    0    0  0.00000000000E+00  0.00000000000E+00  0.39999999673E+01  0.40000000000E+01  0.51109989000E-03 0.  1.
     -623   -1    0    0    0    0  0.00000000000E+00  0.00000000000E+00  0.12525980253E-10  0.17130000000E+03  0.17130000000E+03 0.  1.
       11    1    1    2    0    0 -0.20389604224E-01  0.37230120346E-01  0.24077666000E+01  0.24081407930E+01  0.51109989000E-03 0.  1.
     -623    1    1    2    0    0  0.46790136327E-02 -0.21240320627E-01  0.65904032651E-03  0.17130000138E+03  0.17130000000E+03 0.  1.
      622    1    1    2    0    0  0.15710590591E-01 -0.15989799719E-01  0.15915743271E+01  0.15918578250E+01  0.20000000000E-01 0.  1.
</event>
<event>
 5   0  0.3603037E+08  0.9118800E+02  0.7818608E-02  0.1180000E+00
       11   -1    0    0    0    0  0.00000000000E+00  0.00000000000E+00  0.39999999673E+01  0.40000000000E+01  0.51109989000E-03 0.  1.
     -623   -1    0    0    0    0  0.00000000000E+00  0.00000000000E+00  0.12525980253E-10  0.17130000000E+03  0.17130000000E+03 0. -1.
       11    1    1    2    0    0 -0.98107781430E-02 -0.57272180050E-02  0.17935907074E+00  0.17971919729E+00  0.51109989000E-03 0.  1.
     -623    1    1    2    0    0 -0.17412853305E-02 -0.17571273825E-02  0.43726261748E-03  0.17130000002E+03  0.17130000000E+03 0. -1.
      622    1    1    2    0    0  0.11552063474E-01  0.74843453875E-02  0.38202036340E+01  0.38202807843E+01  0.20000000000E-01 0.  1.
</event>
<event>
 5   0  0.3603037E+08  0.9118800E+02  0.7818608E-02  0.1180000E+00
       11   -1    0    0    0    0  0.00000000000E+00  0.00000000000E+00  0.39999999673E+01  0.40000000000E+01  0.51109989000E-03 0. -1.
     -623   -1    0    0    0    0  0.00000000000E+00  0.00000000000E+00  0.12525980253E-10  0.17130000000E+03  0.17130000000E+03 0. -1.
       11    1    1    2    0    0  0.38591882161E-02 -0.21102435535E-02  0.86933503164E-01  0.87046204147E-01  0.51109989000E-03 0. -1.
     -623    1    1    2    0    0 -0.25456920147E-03 -0.90441366536E-03  0.16660523563E-03  0.17130000000E+03  0.17130000000E+03 0. -1.
      622    1    1    2    0    0 -0.36046190146E-02  0.30146572189E-02  0.39128998590E+01  0.39129537932E+01  0.20000000000E-01 0. -1.
</event>
<event>
 5   0  0.3603037E+08  0.9118800E+02  0.7818608E-02  0.1180000E+00
       11   -1    0    0    0    0  0.00000000000E+00  0.00000000000E+00  0.39999999673E+01  0.40000000000E+01  0.51109989000E-03 0. -1.
     -623   -1    0    0    0    0  0.00000000000E+00  0.00000000000E+00  0.12525980253E-10  0.17130000000E+03  0.17130000000E+03 0.  1.
       11    1    1    2    0    0 -0.88863778911E-02  0.41776704691E-02  0.11574223349E+01  0.11574641002E+01  0.51109989000E-03 0. -1.
     -623    1    1    2    0    0 -0.15170660920E-02 -0.18813639047E-02  0.13207626661E-03  0.17130000002E+03  0.17130000000E+03 0.  1.
      622    1    1    2    0    0  0.10403443983E-01 -0.22963065644E-02  0.28424455562E+01  0.28425358827E+01  0.20000000000E-01 0. -1.
</event>
<event>
 5   0  0.3603037E+08  0.9118800E+02  0.7818608E-02  0.1180000E+00
       11   -1    0    0    0    0  0.00000000000E+00  0.00000000000E+00  0.39999999673E+01  0.40000000000E+01  0.51109989000E-03 0. -1.
     -623   -1    0    0    0    0  0.00000000000E+00  0.00000000000E+00  0.12525980253E-10  0.17130000000E+03  0.17130000000E+03 0.  1.
       11    1    1    2    0    0 -0.99134620754E-02  0.44572836662E-03  0.19719091735E+01  0.19719342091E+01  0.51109989000E-03 0. -1.
     -623    1    1    2    0    0 -0.21480988058E-03 -0.39356233714E-03  0.14891480683E-03  0.17130000000E+03  0.17130000000E+03 0.  1.
      622    1    1    2    0    0  0.10128271956E-01 -0.52166029477E-04  0.20279418790E+01  0.20280657902E+01  0.20000000000E-01 0.  1.
</event>
<event>
 5   0  0.3603037E+08  0.9118800E+02  0.7818608E-02  0.1180000E+00
       11   -1    0    0    0    0  0.00000000000E+00  0.00000000000E+00  0.39999999673E+01  0.40000000000E+01  0.51109989000E-03 0.  1.
     -623   -1    0    0    0    0  0.00000000000E+00  0.00000000000E+00  0.12525980253E-10  0.17130000000E+03  0.17130000000E+03 0. -1.
       11    1    1    2    0    0  0.74757624023E-03 -0.14160296343E-02  0.30545647774E-01  0.30591858874E-01  0.51109989000E-03 0.  1.
     -623    1    1    2    0    0 -0.75612909149E-03 -0.41146181783E-03  0.96987013463E-04  0.17130000000E+03  0.17130000000E+03 0. -1.
      622    1    1    2    0    0  0.85528512692E-05  0.18274914521E-02  0.39693573326E+01  0.39694081389E+01  0.20000000000E-01 0.  1.
</event>
<event>
 5   0  0.3603037E+08  0.9118800E+02  0.7818608E-02  0.1180000E+00
       11   -1    0    0    0    0  0.00000000000E+00  0.00000000000E+00  0.39999999673E+01  0.40000000000E+01  0.51109989000E-03 0. -1.
     -623   -1    0    0    0    0  0.00000000000E+00  0.00000000000E+00  0.12525980253E-10  0.17130000000E+03  0.17130000000E+03 0.  1.
       11    1    1    2    0    0 -0.33867139119E-02 -0.33995362236E-02  0.15710814533E+00  0.15718224209E+00  0.51109989000E-03 0. -1.
     -623    1    1    2    0    0  0.35123314205E-02  0.22884879958E-02  0.12632362847E-03  0.17130000005E+03  0.17130000000E+03 0.  1.
      622    1    1    2    0    0 -0.12561750860E-03  0.11110482278E-02  0.38427654984E+01  0.38428177066E+01  0.20000000000E-01 0. -1.
</event>
<event>
 5   0  0.3603037E+08  0.9118800E+02  0.7818608E-02  0.1180000E+00
       11   -1    0    0    0    0  0.00000000000E+00  0.00000000000E+00  0.39999999673E+01  0.40000000000E+01  0.51109989000E-03 0.  1.
     -623   -1    0    0    0    0  0.00000000000E+00  0.00000000000E+00  0.12525980253E-10  0.17130000000E+03  0.17130000000E+03 0. -1.
       11    1    1    2    0    0 -0.89256263239E-04  0.47709592480E-02  0.21253781706E+01  0.21253835888E+01  0.51109989000E-03 0.  1.
     -623    1    1    2    0    0 -0.98355518127E-03  0.46925340703E-02  0.13633964007E-03  0.17130000007E+03  0.17130000000E+03 0. -1.
      622    1    1    2    0    0  0.10728114445E-02 -0.94634933183E-02  0.18744854571E+01  0.18746163441E+01  0.20000000000E-01 0.  1.
</event>
<event>
 5   0  0.3603037E+08  0.9118800E+02  0.7818608E-02  0.1180000E+00
       11   -1    0    0    0    0  0.00000000000E+00  0.00000000000E+00  0.39999999673E+01  0.40000000000E+01  0.51109989000E-03 0.  1.
     -623   -1    0    0    0    0  0.00000000000E+00  0.00000000000E+00  0.12525980253E-10  0.17130000000E+03  0.17130000000E+03 0. -1.
       11    1    1    2    0    0 -0.15151629918E-02  0.97361347640E-03  0.61675504396E-01  0.61703911594E-01  0.51109989000E-03 0.  1.
     -623    1    1    2    0    0 -0.38253604998E-04 -0.36972857989E-04  0.79576044863E-04  0.17130000000E+03  0.17130000000E+03 0. -1.
      622    1    1    2    0    0  0.15534165968E-02 -0.93664061841E-03  0.39382448869E+01  0.39382960884E+01  0.20000000000E-01 0.  1.
</event>
<event>
 5   0  0.3603037E+08  0.9118800E+02  0.7818608E-02  0.1180000E+00
       11   -1    0    0    0    0  0.00000000000E+00  0.00000000000E+00  0.39999999673E+01  0.40000000000E+01  0.51109989000E-03 0. -1.
     -623   -1    0    0    0    0  0.00000000000E+00  0.00000000000E+00  0.12525980253E-10  0.17130000000E+03  0.17130000000E+03 0.  1.
       11    1    1    2    0    0  0.17542419322E-01  0.23445080601E-01  0.17649276935E+01  0.17651706526E+01  0.51109989000E-03 0. -1.
     -623    1    1    2    0    0  0.29869590519E-02  0.34211331746E-03  0.55335379473E-03  0.17130000003E+03  0.17130000000E+03 0.  1.
      622    1    1    2    0    0 -0.20529378374E-01 -0.23787193919E-01  0.22345189201E+01  0.22348293202E+01  0.20000000000E-01 0.  0.
</event>
<event>
 5   0  0.3603037E+08  0.9118800E+02  0.7818608E-02  0.1180000E+00
       11   -1    0    0    0    0  0.00000000000E+00  0.00000000000E+00  0.39999999673E+01  0.40000000000E+01  0.51109989000E-03 0. -1.
     -623   -1    0    0    0    0  0.00000000000E+00  0.00000000000E+00  0.12525980253E-10  0.17130000000E+03  0.17130000000E+03 0.  1.
       11    1    1    2    0    0  0.64865597101E-02 -0.61768451573E-02  0.30261902247E+01  0.30262035236E+01  0.51109989000E-03 0. -1.
     -623    1    1    2    0    0 -0.52982173463E-02  0.11302131002E-01  0.23334056420E-03  0.17130000045E+03  0.17130000000E+03 0.  1.
      622    1    1    2    0    0 -0.11883423638E-02 -0.51252858445E-02  0.97357640212E+00  0.97379602149E+00  0.20000000000E-01 0. -1.
</event>
<event>
 5   0  0.3603037E+08  0.9118800E+02  0.7818608E-02  0.1180000E+00
       11   -1    0    0    0    0  0.00000000000E+00  0.00000000000E+00  0.39999999673E+01  0.40000000000E+01  0.51109989000E-03 0. -1.
     -623   -1    0    0    0    0  0.00000000000E+00  0.00000000000E+00  0.12525980253E-10  0.17130000000E+03  0.17130000000E+03 0. -1.
       11    1    1    2    0    0  0.58887752898E-02  0.31694572126E-02  0.92813080043E-02  0.11451071324E-01  0.51109989000E-03 0. -1.
     -623    1    1    2    0    0  0.22941659273E-02 -0.65736585469E-02  0.22298775191E-02  0.17130000016E+03  0.17130000000E+03 0. -1.
      622    1    1    2    0    0 -0.81829412171E-02  0.34042013342E-02  0.39884887818E+01  0.39885487727E+01  0.20000000000E-01 0. -1.
</event>
<event>
 5   0  0.3603037E+08  0.9118800E+02  0.7818608E-02  0.1180000E+00
       11   -1    0    0    0    0  0.00000000000E+00  0.00000000000E+00  0.39999999673E+01  0.40000000000E+01  0.51109989000E-03 0.  1.
     -623   -1    0    0    0    0  0.00000000000E+00  0.00000000000E+00  0.12525980253E-10  0.17130000000E+03  0.17130000000E+03 0. -1.
       11    1    1    2    0    0 -0.51121268760E-02 -0.85165906981E-03  0.17966921826E+00  0.17974467552E+00  0.51109989000E-03 0.  1.
     -623    1    1    2    0    0  0.27250531666E-02  0.42120454361E-02  0.13007474901E-03  0.17130000007E+03  0.17130000000E+03 0. -1.
      622    1    1    2    0    0  0.23870737094E-02 -0.33603863663E-02  0.38202006743E+01  0.38202552510E+01  0.20000000000E-01 0.  1.
</event>
<event>
 5   0  0.3603037E+08  0.9118800E+02  0.7818608E-02  0.1180000E+00
       11   -1    0    0    0    0  0.00000000000E+00  0.00000000000E+00  0.39999999673E+01  0.40000000000E+01  0.51109989000E-03 0. -1.
     -623   -1    0    0    0    0  0.00000000000E+00  0.00000000000E+00  0.12525980253E-10  0.17130000000E+03  0.17130000000E+03 0.  1.
       11    1    1    2    0    0 -0.31268835013E-02 -0.21810242346E-02  0.14577454382E-01  0.15076394279E-01  0.51109989000E-03 0. -1.
     -623    1    1    2    0    0  0.55463563168E-02  0.33590595996E-03  0.55034942728E-03  0.17130000009E+03  0.17130000000E+03 0.  1.
      622    1    1    2    0    0 -0.24194728155E-02  0.18451182746E-02  0.39848721636E+01  0.39849235147E+01  0.20000000000E-01 0. -1.
</event>
<event>
 5   0  0.3603037E+08  0.9118800E+02  0.7818608E-02  0.1180000E+00
       11   -1    0    0    0    0  0.00000000000E+00  0.00000000000E+00  0.39999999673E+01  0.40000000000E+01  0.51109989000E-03 0. -1.
     -623   -1    0    0    0    0  0.00000000000E+00  0.00000000000E+00  0.12525980253E-10  0.17130000000E+03  0.17130000000E+03 0. -1.
       11    1    1    2    0    0 -0.31749565190E-03  0.94732940069E-03  0.19038095650E+00  0.19038426420E+00  0.51109989000E-03 0. -1.
     -623    1    1    2    0    0  0.23184451226E-03  0.10934794833E-03  0.55921870640E-04  0.17130000000E+03  0.17130000000E+03 0. -1.
      622    1    1    2    0    0  0.85651139643E-04 -0.10566773490E-02  0.38095630890E+01  0.38096157356E+01  0.20000000000E-01 0. -1.
</event>
<event>
 5   0  0.3603037E+08  0.9118800E+02  0.7818608E-02  0.1180000E+00
       11   -1    0    0    0    0  0.00000000000E+00  0.00000000000E+00  0.39999999673E+01  0.40000000000E+01  0.51109989000E-03 0. -1.
     -623   -1    0    0    0    0  0.00000000000E+00  0.00000000000E+00  0.12525980253E-10  0.17130000000E+03  0.17130000000E+03 0.  1.
       11    1    1    2    0    0  0.22534792424E-01  0.54551632756E-02  0.12741250052E+01  0.12743360490E+01  0.51109989000E-03 0. -1.
     -623    1    1    2    0    0 -0.36794279923E-02  0.94524383089E-03  0.35716692270E-03  0.17130000004E+03  0.17130000000E+03 0.  1.
      622    1    1    2    0    0 -0.18855364432E-01 -0.64004071065E-02  0.27255177952E+01  0.27256639085E+01  0.20000000000E-01 0.  0.
</event>
<event>
 5   0  0.3603037E+08  0.9118800E+02  0.7818608E-02  0.1180000E+00
       11   -1    0    0    0    0  0.00000000000E+00  0.00000000000E+00  0.39999999673E+01  0.40000000000E+01  0.51109989000E-03 0. -1.
     -623   -1    0    0    0    0  0.00000000000E+00  0.00000000000E+00  0.12525980253E-10  0.17130000000E+03  0.17130000000E+03 0. -1.
       11    1    1    2    0    0 -0.28486730311E-03 -0.13231757177E-02  0.28850410162E-01  0.28886663566E-01  0.51109989000E-03 0. -1.
     -623    1    1    2    0    0  0.91590847222E-03  0.28028788643E-02  0.86936018576E-04  0.17130000003E+03  0.17130000000E+03 0. -1.
      622    1    1    2    0    0 -0.63104116911E-03 -0.14797031466E-02  0.39710626212E+01  0.39711133110E+01  0.20000000000E-01 0. -1.
</event>
<event>
 5   0  0.3603037E+08  0.9118800E+02  0.7818608E-02  0.1180000E+00
       11   -1    0    0    0    0  0.00000000000E+00  0.00000000000E+00  0.39999999673E+01  0.40000000000E+01  0.51109989000E-03 0. -1.
     -623   -1    0    0    0    0  0.00000000000E+00  0.00000000000E+00  0.12525980253E-10  0.17130000000E+03  0.17130000000E+03 0.  1.
       11    1    1    2    0    0 -0.86863531555E-03  0.46557018829E-03  0.49714525131E+00  0.49714649089E+00  0.51109989000E-03 0. -1.
     -623    1    1    2    0    0 -0.41560722868E-03 -0.20881543783E-04  0.58567878922E-04  0.17130000000E+03  0.17130000000E+03 0.  1.
      622    1    1    2    0    0  0.12842425442E-02 -0.44468864451E-03  0.35027961482E+01  0.35028535086E+01  0.20000000000E-01 0. -1.
</event>
<event>
 5   0  0.3603037E+08  0.9118800E+02  0.7818608E-02  0.1180000E+00
       11   -1    0    0    0    0  0.00000000000E+00  0.00000000000E+00  0.39999999673E+01  0.40000000000E+01  0.51109989000E-03 0. -1.
     -623   -1    0    0    0    0  0.00000000000E+00  0.00000000000E+00  0.12525980253E-10  0.17130000000E+03  0.17130000000E+03 0.  1.
       11    1    1    2    0    0 -0.25733286461E-03  0.82094751778E-03  0.18903399335E-01  0.18929867992E-01  0.51109989000E-03 0. -1.
     -623    1    1    2    0    0  0.16773274793E-03 -0.10356948714E-03  0.76739856592E-04  0.17130000000E+03  0.17130000000E+03 0.  1.
      622    1    1    2    0    0  0.89600116680E-04 -0.71737803063E-03  0.39810198282E+01  0.39810701319E+01  0.20000000000E-01 0. -1.
</event>
<event>
 5   0  0.3603037E+08  0.9118800E+02  0.7818608E-02  0.1180000E+00
       11   -1    0    0    0    0  0.00000000000E+00  0.00000000000E+00  0.39999999673E+01  0.40000000000E+01  0.51109989000E-03 0. -1.
     -623   -1    0    0    0    0  0.00000000000E+00  0.00000000000E+00  0.12525980253E-10  0.17130000000E+03  0.17130000000E+03 0. -1.
       11    1    1    2    0    0 -0.36179334834E-02 -0.11847399539E-01  0.72412729782E-01  0.73466420725E-01  0.51109989000E-03 0. -1.
     -623    1    1    2    0    0  0.53286078116E-02  0.87440162728E-02  0.11065028348E-02  0.17130000031E+03  0.17130000000E+03 0. -1.
      622    1    1    2    0    0 -0.17106743281E-02  0.31033832658E-02  0.39264807347E+01  0.39265332697E+01  0.20000000000E-01 0. -1.
</event>
<event>
 5   0  0.3603037E+08  0.9118800E+02  0.7818608E-02  0.1180000E+00
       11   -1    0    0    0    0  0.00000000000E+00  0.00000000000E+00  0.39999999673E+01  0.40000000000E+01  0.51109989000E-03 0.  1.
     -623   -1    0    0    0    0  0.00000000000E+00  0.00000000000E+00  0.12525980253E-10  0.17130000000E+03  0.17130000000E+03 0.  1.
       11    1    1    2    0    0 -0.78937007558E-03  0.86104196449E-03  0.16146390717E+00  0.16146894141E+00  0.51109989000E-03 0.  1.
     -623    1    1    2    0    0  0.93081396340E-03  0.23321335788E-02  0.58454415031E-04  0.17130000002E+03  0.17130000000E+03 0.  1.
      622    1    1    2    0    0 -0.14144388782E-03 -0.31931755433E-02  0.38384776058E+01  0.38385310402E+01  0.20000000000E-01 0.  1.
</event>
<event>
 5   0  0.3603037E+08  0.9118800E+02  0.7818608E-02  0.1180000E+00
       11   -1    0    0    0    0  0.00000000000E+00  0.00000000000E+00  0.39999999673E+01  0.40000000000E+01  0.51109989000E-03 0. -1.
     -623   -1    0    0    0    0  0.00000000000E+00  0.00000000000E+00  0.12525980253E-10  0.17130000000E+03  0.17130000000E+03 0. -1.
       11    1    1    2    0    0 -0.10998379999E-02 -0.97669525018E-03  0.43351086700E-02  0.46062963446E-02  0.51109989000E-03 0. -1.
     -623    1    1    2    0    0  0.31343557488E-04 -0.10312349014E-02  0.32186383927E-03  0.17130000000E+03  0.17130000000E+03 0. -1.
      622    1    1    2    0    0  0.10684944424E-02  0.20079301516E-02  0.39953429949E+01  0.39953937002E+01  0.20000000000E-01 0. -1.
</event>
<event>
 5   0  0.3603037E+08  0.9118800E+02  0.7818608E-02  0.1180000E+00
       11   -1    0    0    0    0  0.00000000000E+00  0.00000000000E+00  0.39999999673E+01  0.40000000000E+01  0.51109989000E-03 0. -1.
     -623   -1    0    0    0    0  0.00000000000E+00  0.00000000000E+00  0.12525980253E-10  0.17130000000E+03  0.17130000000E+03 0. -1.
       11    1    1    2    0    0  0.44139130198E-03 -0.11985530387E-02  0.88353741973E-02  0.89418351067E-02  0.51109989000E-03 0. -1.
     -623    1    1    2    0    0  0.27753752193E-03  0.13026516532E-03  0.15674868280E-03  0.17130000000E+03  0.17130000000E+03 0. -1.
      622    1    1    2    0    0 -0.71892882390E-03  0.10682878734E-02  0.39910078445E+01  0.39910581645E+01  0.20000000000E-01 0. -1.
</event>
<event>
 5   0  0.3603037E+08  0.9118800E+02  0.7818608E-02  0.1180000E+00
       11   -1    0    0    0    0  0.00000000000E+00  0.00000000000E+00  0.39999999673E+01  0.40000000000E+01  0.51109989000E-03 0.  1.
     -623   -1    0    0    0    0  0.00000000000E+00  0.00000000000E+00  0.12525980253E-10  0.17130000000E+03  0.17130000000E+03 0.  1.
       11    1    1    2    0    0  0.41708445067E-02 -0.13937849074E-01  0.69138252880E+00  0.69153577054E+00  0.51109989000E-03 0.  1.
     -623    1    1    2    0    0  0.15704359045E-02  0.24910329764E-02  0.23847036985E-03  0.17130000003E+03  0.17130000000E+03 0.  1.
      622    1    1    2    0    0 -0.57412804112E-02  0.11446816098E-01  0.33083789682E+01  0.33084642040E+01  0.20000000000E-01 0.  1.
</event>
<event>
 5   0  0.3603037E+08  0.9118800E+02  0.7818608E-02  0.1180000E+00
       11   -1    0    0    0    0  0.00000000000E+00  0.00000000000E+00  0.39999999673E+01  0.40000000000E+01  0.51109989000E-03 0.  1.
     -623   -1    0    0    0    0  0.00000000000E+00  0.00000000000E+00  0.12525980253E-10  0.17130000000E+03  0.17130000000E+03 0.  1.
       11    1    1    2    0    0  0.12429633297E-01  0.35661010026E-01  0.31563528560E+01  0.31565788152E+01  0.51109989000E-03 0.  1.
     -623    1    1    2    0    0 -0.11023476455E-01 -0.31687363948E-01  0.47691221643E-03  0.17130000329E+03  0.17130000000E+03 0.  1.
      622    1    1    2    0    0 -0.14061568421E-02 -0.39736460777E-02  0.84317019910E+00  0.84341789866E+00  0.20000000000E-01 0.  0.
</event>
<event>
 5   0  0.3603037E+08  0.9118800E+02  0.7818608E-02  0.1180000E+00
       11   -1    0    0    0    0  0.00000000000E+00  0.00000000000E+00  0.39999999673E+01  0.40000000000E+01  0.51109989000E-03 0. -1.
     -623   -1    0    0    0    0  0.00000000000E+00  0.00000000000E+00  0.12525980253E-10  0.17130000000E+03  0.17130000000E+03 0. -1.
       11    1    1    2    0    0 -0.32514716741E-02 -0.28292272726E-02  0.16765963968E+00  0.16771580902E+00  0.51109989000E-03 0. -1.
     -623    1    1    2    0    0  0.16733944603E-03  0.49259026377E-03  0.11027947500E-03  0.17130000000E+03  0.17130000000E+03 0. -1.
      622    1    1    2    0    0  0.30841322280E-02  0.23366370088E-02  0.38322300482E+01  0.38322841902E+01  0.20000000000E-01 0. -1.
</event>
<event>
 5   0  0.3603037E+08  0.9118800E+02  0.7818608E-02  0.1180000E+00
       11   -1    0    0    0    0  0.00000000000E+00  0.00000000000E+00  0.39999999673E+01  0.40000000000E+01  0.51109989000E-03 0. -1.
     -623   -1    0    0    0    0  0.00000000000E+00  0.00000000000E+00  0.12525980253E-10  0.17130000000E+03  0.17130000000E+03 0. -1.
       11    1    1    2    0    0  0.22920682307E-01  0.39684103624E-02  0.29807888987E+00  0.29898560461E+00  0.51109989000E-03 0. -1.
     -623    1    1    2    0    0  0.66924866905E-03  0.71458432243E-02  0.10527460694E-02  0.17130000015E+03  0.17130000000E+03 0. -1.
      622    1    1    2    0    0 -0.23589930976E-01 -0.11114253587E-01  0.37008683314E+01  0.37010142418E+01  0.20000000000E-01 0. -1.
</event>
<event>
 5   0  0.3603037E+08  0.9118800E+02  0.7818608E-02  0.1180000E+00
       11   -1    0    0    0    0  0.00000000000E+00  0.00000000000E+00  0.39999999673E+01  0.40000000000E+01  0.51109989000E-03 0.  1.
     -623   -1    0    0    0    0  0.00000000000E+00  0.00000000000E+00  0.12525980253E-10  0.17130000000E+03  0.17130000000E+03 0.  1.
       11    1    1    2    0    0 -0.62125467822E-02  0.16842699811E-01  0.55588310107E+00  0.55617313451E+00  0.51109989000E-03 0.  1.
     -623    1    1    2    0    0 -0.59984556522E-02 -0.30621053288E-04  0.41086866030E-03  0.17130000011E+03  0.17130000000E+03 0.  1.
      622    1    1    2    0    0  0.12211002434E-01 -0.16812078757E-01  0.34437059976E+01  0.34438267600E+01  0.20000000000E-01 0.  1.
</event>
<event>
 5   0  0.3603037E+08  0.9118800E+02  0.7818608E-02  0.1180000E+00
       11   -1    0    0    0    0  0.00000000000E+00  0.00000000000E+00  0.39999999673E+01  0.40000000000E+01  0.51109989000E-03 0. -1.
     -623   -1    0    0    0    0  0.00000000000E+00  0.00000000000E+00  0.12525980253E-10  0.17130000000E+03  0.17130000000E+03 0.  1.
       11    1    1    2    0    0  0.25809112685E-02 -0.33444458382E-02  0.31177869468E+00  0.31180773258E+00  0.51109989000E-03 0. -1.
     -623    1    1    2    0    0  0.55576494699E-03  0.10976969899E-02  0.85255384036E-04  0.17130000000E+03  0.17130000000E+03 0.  1.
      622    1    1    2    0    0 -0.31366762155E-02  0.22467488483E-02  0.36881360173E+01  0.36881922630E+01  0.20000000000E-01 0. -1.
</event>
<event>
 5   0  0.3603037E+08  0.9118800E+02  0.7818608E-02  0.1180000E+00
       11   -1    0    0    0    0  0.00000000000E+00  0.00000000000E+00  0.39999999673E+01  0.40000000000E+01  0.51109989000E-03 0.  1.
     -623   -1    0    0    0    0  0.00000000000E+00  0.00000000000E+00  0.12525980253E-10  0.17130000000E+03  0.17130000000E+03 0. -1.
       11    1    1    2    0    0  0.77574311148E-03  0.48670981988E-02  0.13143380983E+01  0.13143474381E+01  0.51109989000E-03 0.  1.
     -623    1    1    2    0    0  0.32615005624E-03 -0.13782834029E-03  0.88168621946E-04  0.17130000000E+03  0.17130000000E+03 0. -1.
      622    1    1    2    0    0 -0.11018931677E-02 -0.47292698585E-02  0.26855737005E+01  0.26856525615E+01  0.20000000000E-01 0.  1.
</event>
<event>
 5   0  0.3603037E+08  0.9118800E+02  0.7818608E-02  0.1180000E+00
       11   -1    0    0    0    0  0.00000000000E+00  0.00000000000E+00  0.39999999673E+01  0.40000000000E+01  0.51109989000E-03 0. -1.
     -623   -1    0    0    0    0  0.00000000000E+00  0.00000000000E+00  0.12525980253E-10  0.17130000000E+03  0.17130000000E+03 0. -1.
       11    1    1    2    0    0 -0.13562220590E-02 -0.10855106394E-02  0.28657439886E+00  0.28658011965E+00  0.51109989000E-03 0. -1.
     -623    1    1    2    0    0  0.17132262092E-02  0.36886157076E-02  0.60525098809E-04  0.17130000005E+03  0.17130000000E+03 0. -1.
      622    1    1    2    0    0 -0.35700415024E-03 -0.26031050681E-02  0.37133650434E+01  0.37134198321E+01  0.20000000000E-01 0. -1.
</event>
<event>
 5   0  0.3603037E+08  0.9118800E+02  0.7818608E-02  0.1180000E+00
       11   -1    0    0    0    0  0.00000000000E+00  0.00000000000E+00  0.39999999673E+01  0.40000000000E+01  0.51109989000E-03 0. -1.
     -623   -1    0    0    0    0  0.00000000000E+00  0.00000000000E+00  0.12525980253E-10  0.17130000000E+03  0.17130000000E+03 0. -1.
       11    1    1    2    0    0 -0.96162417203E-03  0.10080087497E-02  0.12987476314E+01  0.12987484791E+01  0.51109989000E-03 0. -1.
     -623    1    1    2    0    0  0.52478977896E-02 -0.74933905457E-02  0.86286505366E-04  0.17130000024E+03  0.17130000000E+03 0. -1.
      622    1    1    2    0    0 -0.42862736176E-02  0.64853817960E-02  0.27011660495E+01  0.27012512766E+01  0.20000000000E-01 0. -1.
</event>
<event>
 5   0  0.3603037E+08  0.9118800E+02  0.7818608E-02  0.1180000E+00
       11   -1    0    0    0    0  0.00000000000E+00  0.00000000000E+00  0.39999999673E+01  0.40000000000E+01  0.51109989000E-03 0.  1.
     -623   -1    0    0    0    0  0.00000000000E+00  0.00000000000E+00  0.12525980253E-10  0.17130000000E+03  0.17130000000E+03 0.  1.
       11    1    1    2    0    0 -0.35094343303E-02  0.54148741982E-03  0.82975609538E-01  0.83053129606E-01  0.51109989000E-03 0.  1.
     -623    1    1    2    0    0  0.53574492063E-03 -0.12212663538E-02  0.12974097182E-03  0.17130000001E+03  0.17130000000E+03 0.  1.
      622    1    1    2    0    0  0.29736894097E-02  0.67977893399E-03  0.39168946169E+01  0.39169468652E+01  0.20000000000E-01 0.  1.
</event>
<event>
 5   0  0.3603037E+08  0.9118800E+02  0.7818608E-02  0.1180000E+00
       11   -1    0    0    0    0  0.00000000000E+00  0.00000000000E+00  0.39999999673E+01  0.40000000000E+01  0.51109989000E-03 0.  1.
     -623   -1    0    0    0    0  0.00000000000E+00  0.00000000000E+00  0.12525980253E-10  0.17130000000E+03  0.17130000000E+03 0. -1.
       11    1    1    2    0    0  0.18364886044E-04 -0.58258036814E-02  0.81331721627E-01  0.81541710118E-01  0.51109989000E-03 0.  1.
     -623    1    1    2    0    0  0.25111474096E-03  0.37984886274E-03  0.26479124387E-03  0.17130000000E+03  0.17130000000E+03 0. -1.
      622    1    1    2    0    0 -0.26947962701E-03  0.54459548187E-02  0.39184034545E+01  0.39184582891E+01  0.20000000000E-01 0.  1.
</event>
<event>
 5   0  0.3603037E+08  0.9118800E+02  0.7818608E-02  0.1180000E+00
       11   -1    0    0    0    0  0.00000000000E+00  0.00000000000E+00  0.39999999673E+01  0.40000000000E+01  0.51109989000E-03 0.  1.
     -623   -1    0    0    0    0  0.00000000000E+00  0.00000000000E+00  0.12525980253E-10  0.17130000000E+03  0.17130000000E+03 0.  1.
       11    1    1    2    0    0 -0.64691804740E-02 -0.29358313494E-03  0.48930314924E+00  0.48934626754E+00  0.51109989000E-03 0.  1.
     -623    1    1    2    0    0 -0.39714802180E-02  0.53163798023E-02  0.11930287987E-03  0.17130000013E+03  0.17130000000E+03 0.  1.
      622    1    1    2    0    0  0.10440660692E-01 -0.50227966673E-02  0.35105775152E+01  0.35106536039E+01  0.20000000000E-01 0.  0.
</event>
<event>
 5   0  0.3603037E+08  0.9118800E+02  0.7818608E-02  0.1180000E+00
       11   -1    0    0    0    0  0.00000000000E+00  0.00000000000E+00  0.39999999673E+01  0.40000000000E+01  0.51109989000E-03 0. -1.
     -623   -1    0    0    0    0  0.00000000000E+00  0.00000000000E+00  0.12525980253E-10  0.17130000000E+03  0.17130000000E+03 0. -1.
       11    1    1    2    0    0  0.72108792188E-02  0.17903135902E-02  0.41237019258E+00  0.41243743641E+00  0.51109989000E-03 0. -1.
     -623    1    1    2    0    0 -0.95992401365E-02  0.15411054877E-03  0.12455081444E-03  0.17130000027E+03  0.17130000000E+03 0. -1.
      622    1    1    2    0    0  0.23883609177E-02 -0.19444241390E-02  0.35875052240E+01  0.35875622945E+01  0.20000000000E-01 0.  0.
</event>
<event>
 5   0  0.3603037E+08  0.9118800E+02  0.7818608E-02  0.1180000E+00
       11   -1    0    0    0    0  0.00000000000E+00  0.00000000000E+00  0.39999999673E+01  0.40000000000E+01  0.51109989000E-03 0. -1.
     -623   -1    0    0    0    0  0.00000000000E+00  0.00000000000E+00  0.12525980253E-10  0.17130000000E+03  0.17130000000E+03 0. -1.
       11    1    1    2    0    0 -0.80083267086E-03 -0.38597297287E-02  0.77999446119E+00  0.78000458944E+00  0.51109989000E-03 0. -1.
     -623    1    1    2    0    0  0.53563608396E-04  0.72260228740E-04  0.74522375025E-04  0.17130000000E+03  0.17130000000E+03 0. -1.
      622    1    1    2    0    0  0.74726906246E-03  0.37874694999E-02  0.32199309838E+01  0.32199954105E+01  0.20000000000E-01 0. -1.
</event>
<event>
 5   0  0.3603037E+08  0.9118800E+02  0.7818608E-02  0.1180000E+00
       11   -1    0    0    0    0  0.00000000000E+00  0.00000000000E+00  0.39999999673E+01  0.40000000000E+01  0.51109989000E-03 0.  1.
     -623   -1    0    0    0    0  0.00000000000E+00  0.00000000000E+00  0.12525980253E-10  0.17130000000E+03  0.17130000000E+03 0.  1.
       11    1    1    2    0    0 -0.16595004830E-01 -0.33690856406E-02  0.27921638158E+01  0.27922152102E+01  0.51109989000E-03 0.  1.
     -623    1    1    2    0    0  0.32133912904E-02  0.41029953513E-02  0.29141117840E-03  0.17130000008E+03  0.17130000000E+03 0.  1.
      622    1    1    2    0    0  0.13381613540E-01 -0.73390971073E-03  0.12075447404E+01  0.12077847102E+01  0.20000000000E-01 0.  0.
</event>
<event>
 5   0  0.3603037E+08  0.9118800E+02  0.7818608E-02  0.1180000E+00
       11   -1    0    0    0    0  0.00000000000E+00  0.00000000000E+00  0.39999999673E+01  0.40000000000E+01  0.51109989000E-03 0.  1.
     -623   -1    0    0    0    0  0.00000000000E+00  0.00000000000E+00  0.12525980253E-10  0.17130000000E+03  0.17130000000E+03 0.  1.
       11    1    1    2    0    0  0.15797613315E-03 -0.23094426166E-02  0.98310360292E+00  0.98310646106E+00  0.51109989000E-03 0.  1.
     -623    1    1    2    0    0 -0.47643234399E-04  0.91488031315E-04  0.69936962134E-04  0.17130000000E+03  0.17130000000E+03 0.  1.
      622    1    1    2    0    0 -0.11033289875E-03  0.22179545852E-02  0.30168264275E+01  0.30168935389E+01  0.20000000000E-01 0.  1.
</event>
<event>
 5   0  0.3603037E+08  0.9118800E+02  0.7818608E-02  0.1180000E+00
       11   -1    0    0    0    0  0.00000000000E+00  0.00000000000E+00  0.39999999673E+01  0.40000000000E+01  0.51109989000E-03 0.  1.
     -623   -1    0    0    0    0  0.00000000000E+00  0.00000000000E+00  0.12525980253E-10  0.17130000000E+03  0.17130000000E+03 0.  1.
       11    1    1    2    0    0  0.22504923254E-02 -0.24476188240E-02  0.18915317991E+00  0.18918309186E+00  0.51109989000E-03 0.  1.
     -623    1    1    2    0    0 -0.11758155984E-01 -0.37385546412E-02  0.99687975482E-04  0.17130000044E+03  0.17130000000E+03 0.  1.
      622    1    1    2    0    0  0.95076636583E-02  0.61861734652E-02  0.38107470995E+01  0.38108164638E+01  0.20000000000E-01 0.  1.
</event>
<event>
 5   0  0.3603037E+08  0.9118800E+02  0.7818608E-02  0.1180000E+00
       11   -1    0    0    0    0  0.00000000000E+00  0.00000000000E+00  0.39999999673E+01  0.40000000000E+01  0.51109989000E-03 0. -1.
     -623   -1    0    0    0    0  0.00000000000E+00  0.00000000000E+00  0.12525980253E-10  0.17130000000E+03  0.17130000000E+03 0. -1.
       11    1    1    2    0    0  0.28735865080E-03  0.15009364926E-03  0.13603679083E-01  0.13617136559E-01  0.51109989000E-03 0. -1.
     -623    1    1    2    0    0 -0.91118361860E-03  0.73026974522E-03  0.63745962875E-04  0.17130000000E+03  0.17130000000E+03 0. -1.
      622    1    1    2    0    0  0.62382496779E-03 -0.88036339448E-03  0.39863325423E+01  0.39863828594E+01  0.20000000000E-01 0. -1.
</event>
<event>
 5   0  0.3603037E+08  0.9118800E+02  0.7818608E-02  0.1180000E+00
       11   -1    0    0    0    0  0.00000000000E+00  0.00000000000E+00  0.39999999673E+01  0.40000000000E+01  0.51109989000E-03 0. -1.
     -623   -1    0    0    0    0  0.00000000000E+00  0.00000000000E+00  0.12525980253E-10  0.17130000000E+03  0.17130000000E+03 0.  1.
       11    1    1    2    0    0 -0.46895545378E-02  0.88812150122E-02  0.70527564596E-01  0.71240904620E-01  0.51109989000E-03 0. -1.
     -623    1    1    2    0    0  0.34527321917E-03 -0.19188591543E-02  0.77279838242E-03  0.17130000001E+03  0.17130000000E+03 0.  1.
      622    1    1    2    0    0  0.43442813187E-02 -0.69623558579E-02  0.39286996044E+01  0.39287590825E+01  0.20000000000E-01 0. -1.
</event>
<event>
 5   0  0.3603037E+08  0.9118800E+02  0.7818608E-02  0.1180000E+00
       11   -1    0    0    0    0  0.00000000000E+00  0.00000000000E+00  0.39999999673E+01  0.40000000000E+01  0.51109989000E-03 0.  1.
     -623   -1    0    0    0    0  0.00000000000E+00  0.00000000000E+00  0.12525980253E-10  0.17130000000E+03  0.17130000000E+03 0.  1.
       11    1    1    2    0    0  0.46583296976E-02  0.92239661425E-02  0.15773198430E+00  0.15807093875E+00  0.51109989000E-03 0.  1.
     -623    1    1    2    0    0 -0.30538010697E-02 -0.11802290193E-01  0.39261383762E-03  0.17130000043E+03  0.17130000000E+03 0.  1.
      622    1    1    2    0    0 -0.16045286279E-02  0.25783240507E-02  0.38418753692E+01  0.38419286270E+01  0.20000000000E-01 0.  1.
</event>
<event>
 5   0  0.3603037E+08  0.9118800E+02  0.7818608E-02  0.1180000E+00
       11   -1    0    0    0    0  0.00000000000E+00  0.00000000000E+00  0.39999999673E+01  0.40000000000E+01  0.51109989000E-03 0. -1.
     -623   -1    0    0    0    0  0.00000000000E+00  0.00000000000E+00  0.12525980253E-10  0.17130000000E+03  0.17130000000E+03 0. -1.
       11    1    1    2    0    0  0.45594783560E-03 -0.59577967040E-03  0.13565432117E+00  0.13565735851E+00  0.51109989000E-03 0. -1.
     -623    1    1    2    0    0  0.96166519260E-03 -0.13185754625E-02  0.55502273899E-04  0.17130000001E+03  0.17130000000E+03 0. -1.
      622    1    1    2    0    0 -0.14176130282E-02  0.19143551329E-02  0.38642901439E+01  0.38643426337E+01  0.20000000000E-01 0. -1.
</event>
<event>
 5   0  0.3603037E+08  0.9118800E+02  0.7818608E-02  0.1180000E+00
       11   -1    0    0    0    0  0.00000000000E+00  0.00000000000E+00  0.39999999673E+01  0.40000000000E+01  0.51109989000E-03 0.  1.
     -623   -1    0    0    0    0  0.00000000000E+00  0.00000000000E+00  0.12525980253E-10  0.17130000000E+03  0.17130000000E+03 0.  1.
       11    1    1    2    0    0  0.68586578810E-02 -0.14375986742E-01  0.28780553258E+00  0.28824641539E+00  0.51109989000E-03 0.  1.
     -623    1    1    2    0    0  0.47578286770E-02  0.48296613812E-02  0.52532293339E-03  0.17130000013E+03  0.17130000000E+03 0.  1.
      622    1    1    2    0    0 -0.11616486558E-01  0.95463253603E-02  0.37116691118E+01  0.37117534496E+01  0.20000000000E-01 0.  1.
</event>
<event>
 5   0  0.3603037E+08  0.9118800E+02  0.7818608E-02  0.1180000E+00
       11   -1    0    0    0    0  0.00000000000E+00  0.00000000000E+00  0.39999999673E+01  0.40000000000E+01  0.51109989000E-03 0. -1.
     -623   -1    0    0    0    0  0.00000000000E+00  0.00000000000E+00  0.12525980253E-10  0.17130000000E+03  0.17130000000E+03 0.  1.
       11    1    1    2    0    0  0.64939273981E-02 -0.44243278837E-02  0.59717190060E+00  0.59722381555E+00  0.51109989000E-03 0. -1.
     -623    1    1    2    0    0  0.62648285230E-04  0.58285542847E-03  0.11914462676E-03  0.17130000000E+03  0.17130000000E+03 0.  1.
      622    1    1    2    0    0 -0.65565756833E-02  0.38414724552E-02  0.34027089221E+01  0.34027761834E+01  0.20000000000E-01 0. -1.
</event>
<event>
 5   0  0.3603037E+08  0.9118800E+02  0.7818608E-02  0.1180000E+00
       11   -1    0    0    0    0  0.00000000000E+00  0.00000000000E+00  0.39999999673E+01  0.40000000000E+01  0.51109989000E-03 0. -1.
     -623   -1    0    0    0    0  0.00000000000E+00  0.00000000000E+00  0.12525980253E-10  0.17130000000E+03  0.17130000000E+03 0.  1.
       11    1    1    2    0    0  0.28284066680E-02 -0.12056715080E-02  0.26063470446E+01  0.26063489083E+01  0.51109989000E-03 0. -1.
     -623    1    1    2    0    0  0.67299761679E-04 -0.26285778713E-03  0.14912907881E-03  0.17130000000E+03  0.17130000000E+03 0.  1.
      622    1    1    2    0    0 -0.28957064296E-02  0.14685292952E-02  0.13935037937E+01  0.13936510914E+01  0.20000000000E-01 0. -1.
</event>
<event>
 5   0  0.3603037E+08  0.9118800E+02  0.7818608E-02  0.1180000E+00
       11   -1    0    0    0    0  0.00000000000E+00  0.00000000000E+00  0.39999999673E+01  0.40000000000E+01  0.51109989000E-03 0.  1.
     -623   -1    0    0    0    0  0.00000000000E+00  0.00000000000E+00  0.12525980253E-10  0.17130000000E+03  0.17130000000E+03 0. -1.
       11    1    1    2    0    0  0.23655792819E-03  0.36103283018E-04  0.14086630458E-01  0.14097930432E-01  0.51109989000E-03 0.  1.
     -623    1    1    2    0    0 -0.35695826343E-03  0.95052853885E-04  0.61448883706E-04  0.17130000000E+03  0.17130000000E+03 0. -1.
      622    1    1    2    0    0  0.12040033525E-03 -0.13115613690E-03  0.39858518880E+01  0.39859020692E+01  0.20000000000E-01 0.  1.
</event>
<event>
 5   0  0.3603037E+08  0.9118800E+02  0.7818608E-02  0.1180000E+00
       11   -1    0    0    0    0  0.00000000000E+00  0.00000000000E+00  0.39999999673E+01  0.40000000000E+01  0.51109989000E-03 0. -1.
     -623   -1    0    0    0    0  0.00000000000E+00  0.00000000000E+00  0.12525980253E-10  0.17130000000E+03  0.17130000000E+03 0. -1.
       11    1    1    2    0    0  0.89832723518E-03 -0.16088666796E-02  0.16104324861E-01  0.16217458008E-01  0.51109989000E-03 0. -1.
     -623    1    1    2    0    0 -0.24482249915E-02  0.52048233301E-02  0.16532547882E-03  0.17130000010E+03  0.17130000000E+03 0. -1.
      622    1    1    2    0    0  0.15498977563E-02 -0.35959566505E-02  0.39837303170E+01  0.39837824453E+01  0.20000000000E-01 0. -1.
</event>
<event>
 5   0  0.3603037E+08  0.9118800E+02  0.7818608E-02  0.1180000E+00
       11   -1    0    0    0    0  0.00000000000E+00  0.00000000000E+00  0.39999999673E+01  0.40000000000E+01  0.51109989000E-03 0. -1.
     -623   -1    0    0    0    0  0.00000000000E+00  0.00000000000E+00  0.12525980253E-10  0.17130000000E+03  0.17130000000E+03 0.  1.
       11    1    1    2    0    0  0.14817301905E-01 -0.13649142345E-01  0.50381552238E+00  0.50421839845E+00  0.51109989000E-03 0. -1.
     -623    1    1    2    0    0  0.66508402077E-02  0.29897826208E-02  0.54238499394E-03  0.17130000016E+03  0.17130000000E+03 0.  1.
      622    1    1    2    0    0 -0.21468142113E-01  0.10659359724E-01  0.34956420600E+01  0.34957814455E+01  0.20000000000E-01 0. -1.
</event>
<event>
 5   0  0.3603037E+08  0.9118800E+02  0.7818608E-02  0.1180000E+00
       11   -1    0    0    0    0  0.00000000000E+00  0.00000000000E+00  0.39999999673E+01  0.40000000000E+01  0.51109989000E-03 0.  1.
     -623   -1    0    0    0    0  0.00000000000E+00  0.00000000000E+00  0.12525980253E-10  0.17130000000E+03  0.17130000000E+03 0.  1.
       11    1    1    2    0    0 -0.47915596025E-03 -0.12476345170E-02  0.50272567041E+00  0.50272770671E+00  0.51109989000E-03 0.  1.
     -623    1    1    2    0    0  0.33970012096E-03  0.20397940709E-04  0.59410012445E-04  0.17130000000E+03  0.17130000000E+03 0.  1.
      622    1    1    2    0    0  0.13945583929E-03  0.12272365762E-02  0.34972148869E+01  0.34972722929E+01  0.20000000000E-01 0.  1.
</event>
<event>
 5   0  0.3603037E+08  0.9118800E+02  0.7818608E-02  0.1180000E+00
       11   -1    0    0    0    0  0.00000000000E+00  0.00000000000E+00  0.39999999673E+01  0.40000000000E+01  0.51109989000E-03 0. -1.
     -623   -1    0    0    0    0  0.00000000000E+00  0.00000000000E+00  0.12525980253E-10  0.17130000000E+03  0.17130000000E+03 0. -1.
       11    1    1    2    0    0 -0.95730539711E-02 -0.62114581458E-02  0.26041975406E+01  0.26042225936E+01  0.51109989000E-03 0. -1.
     -623    1    1    2    0    0  0.32661810067E-03  0.51263692070E-03  0.21058400199E-03  0.17130000000E+03  0.17130000000E+03 0. -1.
      622    1    1    2    0    0  0.92464358704E-02  0.56988212251E-02  0.13955918428E+01  0.13957774052E+01  0.20000000000E-01 0.  0.
</event>
<event>
 5   0  0.3603037E+08  0.9118800E+02  0.7818608E-02  0.1180000E+00
       11   -1    0    0    0    0  0.00000000000E+00  0.00000000000E+00  0.39999999673E+01  0.40000000000E+01  0.51109989000E-03 0.  1.
     -623   -1    0    0    0    0  0.00000000000E+00  0.00000000000E+00  0.12525980253E-10  0.17130000000E+03  0.17130000000E+03 0. -1.
       11    1    1    2    0    0  0.46807155658E-02  0.99271298924E-03  0.43117053544E+00  0.43119738685E+00  0.51109989000E-03 0.  1.
     -623    1    1    2    0    0  0.61338141284E-04  0.29453058439E-03  0.86243417087E-04  0.17130000000E+03  0.17130000000E+03 0. -1.
      622    1    1    2    0    0 -0.47420537071E-02 -0.12872435736E-02  0.35687431885E+01  0.35688026129E+01  0.20000000000E-01 0.  1.
</event>
<event>
 5   0  0.3603037E+08  0.9118800E+02  0.7818608E-02  0.1180000E+00
       11   -1    0    0    0    0  0.00000000000E+00  0.00000000000E+00  0.39999999673E+01  0.40000000000E+01  0.51109989000E-03 0. -1.
     -623   -1    0    0    0    0  0.00000000000E+00  0.00000000000E+00  0.12525980253E-10  0.17130000000E+03  0.17130000000E+03 0. -1.
       11    1    1    2    0    0 -0.85329893683E-03  0.12837716597E-02  0.48083820921E-01  0.48111238236E-01  0.51109989000E-03 0. -1.
     -623    1    1    2    0    0 -0.10444319806E-03  0.16969421500E-03  0.78377189091E-04  0.17130000000E+03  0.17130000000E+03 0. -1.
      622    1    1    2    0    0  0.95774213489E-03 -0.14534658747E-02  0.39518377692E+01  0.39518887616E+01  0.20000000000E-01 0. -1.
</event>
<event>
 5   0  0.3603037E+08  0.9118800E+02  0.7818608E-02  0.1180000E+00
       11   -1    0    0    0    0  0.00000000000E+00  0.00000000000E+00  0.39999999673E+01  0.40000000000E+01  0.51109989000E-03 0. -1.
     -623   -1    0    0    0    0  0.00000000000E+00  0.00000000000E+00  0.12525980253E-10  0.17130000000E+03  0.17130000000E+03 0.  1.
       11    1    1    2    0    0 -0.32630333405E-03  0.16644257601E-02  0.51659941501E-01  0.51690304351E-01  0.51109989000E-03 0. -1.
     -623    1    1    2    0    0 -0.19551762331E-02  0.82231565610E-03  0.82440559759E-04  0.17130000001E+03  0.17130000000E+03 0.  1.
      622    1    1    2    0    0  0.22814795672E-02 -0.24867414162E-02  0.39482575853E+01  0.39483096825E+01  0.20000000000E-01 0. -1.
</event>
<event>
 5   0  0.3603037E+08  0.9118800E+02  0.7818608E-02  0.1180000E+00
       11   -1    0    0    0    0  0.00000000000E+00  0.00000000000E+00  0.39999999673E+01  0.40000000000E+01  0.51109989000E-03 0.  1.
     -623   -1    0    0    0    0  0.00000000000E+00  0.00000000000E+00  0.12525980253E-10  0.17130000000E+03  0.17130000000E+03 0.  1.
       11    1    1    2    0    0  0.38229499714E-02  0.89264523180E-02  0.75182395016E+00  0.75188683307E+00  0.51109989000E-03 0.  1.
     -623    1    1    2    0    0  0.71556260413E-03  0.44199746591E-02  0.15507525153E-03  0.17130000006E+03  0.17130000000E+03 0.  1.
      622    1    1    2    0    0 -0.45385125756E-02 -0.13346426977E-01  0.32480209419E+01  0.32481131083E+01  0.20000000000E-01 0.  0.
</event>
<event>
 5   0  0.3603037E+08  0.9118800E+02  0.7818608E-02  0.1180000E+00
       11   -1    0    0    0    0  0.00000000000E+00  0.00000000000E+00  0.39999999673E+01  0.40000000000E+01  0.51109989000E-03 0. -1.
     -623   -1    0    0    0    0  0.00000000000E+00  0.00000000000E+00  0.12525980253E-10  0.17130000000E+03  0.17130000000E+03 0.  1.
       11    1    1    2    0    0 -0.81370500220E-03 -0.27395969846E-02  0.73345184332E-02  0.78882121489E-02  0.51109989000E-03 0. -1.
     -623    1    1    2    0    0 -0.27423821781E-03  0.17305755177E-02  0.60404597914E-03  0.17130000001E+03  0.17130000000E+03 0.  1.
      622    1    1    2    0    0  0.10879432200E-02  0.10090214668E-02  0.39920614029E+01  0.39921117778E+01  0.20000000000E-01 0. -1.
</event>
<event>
 5   0  0.3603037E+08  0.9118800E+02  0.7818608E-02  0.1180000E+00
       11   -1    0    0    0    0  0.00000000000E+00  0.00000000000E+00  0.39999999673E+01  0.40000000000E+01  0.51109989000E-03 0. -1.
     -623   -1    0    0    0    0  0.00000000000E+00  0.00000000000E+00  0.12525980253E-10  0.17130000000E+03  0.17130000000E+03 0.  1.
       11    1    1    2    0    0 -0.27372418574E-02 -0.47718026744E-02  0.19422334141E+01  0.19422412720E+01  0.51109989000E-03 0. -1.
     -623    1    1    2    0    0 -0.36891750573E-04  0.27089171548E-03  0.11181361253E-03  0.17130000000E+03  0.17130000000E+03 0.  1.
      622    1    1    2    0    0  0.27741336080E-02  0.45009109589E-02  0.20576547396E+01  0.20577587277E+01  0.20000000000E-01 0. -1.
</event>
<event>
 5   0  0.3603037E+08  0.9118800E+02  0.7818608E-02  0.1180000E+00
       11   -1    0    0    0    0  0.00000000000E+00  0.00000000000E+00  0.39999999673E+01  0.40000000000E+01  0.51109989000E-03 0.  1.
     -623   -1    0    0    0    0  0.00000000000E+00  0.00000000000E+00  0.12525980253E-10  0.17130000000E+03  0.17130000000E+03 0.  1.
       11    1    1    2    0    0 -0.93732197484E-03  0.41201020670E-04  0.32233863070E-02  0.33958372606E-02  0.51109989000E-03 0.  1.
     -623    1    1    2    0    0 -0.22779058409E-03  0.78646444712E-04  0.22263305429E-03  0.17130000000E+03  0.17130000000E+03 0.  1.
      622    1    1    2    0    0  0.11651125589E-02 -0.11984746538E-03  0.39965539480E+01  0.39966041624E+01  0.20000000000E-01 0.  1.
</event>
<event>
 5   0  0.3603037E+08  0.9118800E+02  0.7818608E-02  0.1180000E+00
       11   -1    0    0    0    0  0.00000000000E+00  0.00000000000E+00  0.39999999673E+01  0.40000000000E+01  0.51109989000E-03 0. -1.
     -623   -1    0    0    0    0  0.00000000000E+00  0.00000000000E+00  0.12525980253E-10  0.17130000000E+03  0.17130000000E+03 0. -1.
       11    1    1    2    0    0  0.11718736906E-02  0.51166723437E-03  0.31765060867E-01  0.31794895880E-01  0.51109989000E-03 0. -1.
     -623    1    1    2    0    0 -0.73324164704E-03 -0.17804556334E-02  0.80441240957E-04  0.17130000001E+03  0.17130000000E+03 0. -1.
      622    1    1    2    0    0 -0.43863204355E-03  0.12687883990E-02  0.39681544653E+01  0.39682050933E+01  0.20000000000E-01 0. -1.
</event>
<event>
 5   0  0.3603037E+08  0.9118800E+02  0.7818608E-02  0.1180000E+00
       11   -1    0    0    0    0  0.00000000000E+00  0.00000000000E+00  0.39999999673E+01  0.40000000000E+01  0.51109989000E-03 0. -1.
     -623   -1    0    0    0    0  0.00000000000E+00  0.00000000000E+00  0.12525980253E-10  0.17130000000E+03  0.17130000000E+03 0.  1.
       11    1    1    2    0    0  0.13295455843E-01  0.21760677769E-02  0.74582776470E+00  0.74594960972E+00  0.51109989000E-03 0. -1.
     -623    1    1    2    0    0 -0.23077500145E-03 -0.94993454701E-03  0.20973603161E-03  0.17130000000E+03  0.17130000000E+03 0.  1.
      622    1    1    2    0    0 -0.13064680842E-01 -0.12261332299E-02  0.32539624666E+01  0.32540503874E+01  0.20000000000E-01 0. -1.
</event>
<event>
 5   0  0.3603037E+08  0.9118800E+02  0.7818608E-02  0.1180000E+00
       11   -1    0    0    0    0  0.00000000000E+00  0.00000000000E+00  0.39999999673E+01  0.40000000000E+01  0.51109989000E-03 0. -1.
     -623   -1    0    0    0    0  0.00000000000E+00  0.00000000000E+00  0.12525980253E-10  0.17130000000E+03  0.17130000000E+03 0. -1.
       11    1    1    2    0    0 -0.25425454400E-02  0.24161087156E-01  0.21893062120E+01  0.21894410642E+01  0.51109989000E-03 0. -1.
     -623    1    1    2    0    0  0.49973572801E-02 -0.12839252123E-03  0.40654128145E-03  0.17130000007E+03  0.17130000000E+03 0. -1.
      622    1    1    2    0    0 -0.24548118400E-02 -0.24032694635E-01  0.18102872141E+01  0.18105588623E+01  0.20000000000E-01 0. -1.
</event>
<event>
 5   0  0.3603037E+08  0.9118800E+02  0.7818608E-02  0.1180000E+00
       11   -1    0    0    0    0  0.00000000000E+00  0.00000000000E+00  0.39999999673E+01  0.40000000000E+01  0.51109989000E-03 0. -1.
     -623   -1    0    0    0    0  0.00000000000E+00  0.00000000000E+00  0.12525980253E-10  0.17130000000E+03  0.17130000000E+03 0.  1.
       11    1    1    2    0    0 -0.80867220625E-03 -0.24356642822E-02  0.48650354540E+00  0.48651058295E+00  0.51109989000E-03 0. -1.
     -623    1    1    2    0    0  0.16429133239E-02  0.58866315496E-03  0.64522262778E-04  0.17130000001E+03  0.17130000000E+03 0.  1.
      622    1    1    2    0    0 -0.83424111767E-03  0.18470011273E-02  0.35134318997E+01  0.35134894081E+01  0.20000000000E-01 0. -1.
</event>
<event>
 5   0  0.3603037E+08  0.9118800E+02  0.7818608E-02  0.1180000E+00
       11   -1    0    0    0    0  0.00000000000E+00  0.00000000000E+00  0.39999999673E+01  0.40000000000E+01  0.51109989000E-03 0. -1.
     -623   -1    0    0    0    0  0.00000000000E+00  0.00000000000E+00  0.12525980253E-10  0.17130000000E+03  0.17130000000E+03 0. -1.
       11    1    1    2    0    0  0.65273742726E-05  0.19160420041E-02  0.54496238968E-02  0.57992139882E-02  0.51109989000E-03 0.  1.
     -623    1    1    2    0    0 -0.20002179728E-03 -0.10078332810E-02  0.39974185183E-03  0.17130000000E+03  0.17130000000E+03 0. -1.
      622    1    1    2    0    0  0.19349442301E-03 -0.90820872308E-03  0.39941506016E+01  0.39942007825E+01  0.20000000000E-01 0. -1.
</event>
<event>
 5   0  0.3603037E+08  0.9118800E+02  0.7818608E-02  0.1180000E+00
       11   -1    0    0    0    0  0.00000000000E+00  0.00000000000E+00  0.39999999673E+01  0.40000000000E+01  0.51109989000E-03 0. -1.
     -623   -1    0    0    0    0  0.00000000000E+00  0.00000000000E+00  0.12525980253E-10  0.17130000000E+03  0.17130000000E+03 0.  1.
       11    1    1    2    0    0  0.78342417085E-02 -0.48078230780E-03  0.22850281676E+00  0.22863815295E+00  0.51109989000E-03 0. -1.
     -623    1    1    2    0    0 -0.73429535701E-02 -0.51431554214E-02  0.19279519772E-03  0.17130000023E+03  0.17130000000E+03 0.  1.
      622    1    1    2    0    0 -0.49128813834E-03  0.56239377292E-02  0.37713043554E+01  0.37713616123E+01  0.20000000000E-01 0. -1.
</event>
<event>
 5   0  0.3603037E+08  0.9118800E+02  0.7818608E-02  0.1180000E+00
       11   -1    0    0    0    0  0.00000000000E+00  0.00000000000E+00  0.39999999673E+01  0.40000000000E+01  0.51109989000E-03 0.  1.
     -623   -1    0    0    0    0  0.00000000000E+00  0.00000000000E+00  0.12525980253E-10  0.17130000000E+03  0.17130000000E+03 0. -1.
       11    1    1    2    0    0  0.45688119100E-02  0.62890452292E-02  0.74419977590E+00  0.74424054834E+00  0.51109989000E-03 0.  1.
     -623    1    1    2    0    0  0.22578193149E-02 -0.66560199277E-02  0.10949203426E-03  0.17130000014E+03  0.17130000000E+03 0. -1.
      622    1    1    2    0    0 -0.68266312248E-02  0.36697469848E-03  0.32556906994E+01  0.32557593074E+01  0.20000000000E-01 0.  1.
</event>
<event>
 5   0  0.3603037E+08  0.9118800E+02  0.7818608E-02  0.1180000E+00
       11   -1    0    0    0    0  0.00000000000E+00  0.00000000000E+00  0.39999999673E+01  0.40000000000E+01  0.51109989000E-03 0. -1.
     -623   -1    0    0    0    0  0.00000000000E+00  0.00000000000E+00  0.12525980253E-10  0.17130000000E+03  0.17130000000E+03 0. -1.
       11    1    1    2    0    0 -0.41372864216E-02  0.49814579980E-02  0.13601937831E+00  0.13617439025E+00  0.51109989000E-03 0. -1.
     -623    1    1    2    0    0 -0.91626397106E-03 -0.91135186854E-02  0.21250117393E-03  0.17130000025E+03  0.17130000000E+03 0. -1.
      622    1    1    2    0    0  0.50535503926E-02  0.41320606874E-02  0.38637680879E+01  0.38638253647E+01  0.20000000000E-01 0. -1.
</event>
<event>
 5   0  0.3603037E+08  0.9118800E+02  0.7818608E-02  0.1180000E+00
       11   -1    0    0    0    0  0.00000000000E+00  0.00000000000E+00  0.39999999673E+01  0.40000000000E+01  0.51109989000E-03 0. -1.
     -623   -1    0    0    0    0  0.00000000000E+00  0.00000000000E+00  0.12525980253E-10  0.17130000000E+03  0.17130000000E+03 0. -1.
       11    1    1    2    0    0  0.83051393968E-02  0.16596338492E-01  0.12710247065E+00  0.12845120886E+00  0.51109989000E-03 0. -1.
     -623    1    1    2    0    0 -0.80460833426E-02 -0.59761547668E-02  0.14152390824E-02  0.17130000030E+03  0.17130000000E+03 0. -1.
      622    1    1    2    0    0 -0.25905605418E-03 -0.10620183726E-01  0.38714822576E+01  0.38715484921E+01  0.20000000000E-01 0. -1.
</event>
<event>
 5   0  0.3603037E+08  0.9118800E+02  0.7818608E-02  0.1180000E+00
       11   -1    0    0    0    0  0.00000000000E+00  0.00000000000E+00  0.39999999673E+01  0.40000000000E+01  0.51109989000E-03 0.  1.
     -623   -1    0    0    0    0  0.00000000000E+00  0.00000000000E+00  0.12525980253E-10  0.17130000000E+03  0.17130000000E+03 0.  1.
       11    1    1    2    0    0  0.39525221366E-03 -0.12680598663E-03  0.23632912783E-01  0.23642083105E-01  0.51109989000E-03 0.  1.
     -623    1    1    2    0    0  0.14629432016E-04  0.50361007535E-04  0.59457162234E-04  0.17130000000E+03  0.17130000000E+03 0.  1.
      622    1    1    2    0    0 -0.40988164568E-03  0.76444979092E-04  0.39763075974E+01  0.39763579169E+01  0.20000000000E-01 0.  1.
</event>
<event>
 5   0  0.3603037E+08  0.9118800E+02  0.7818608E-02  0.1180000E+00
       11   -1    0    0    0    0  0.00000000000E+00  0.00000000000E+00  0.39999999673E+01  0.40000000000E+01  0.51109989000E-03 0. -1.
     -623   -1    0    0    0    0  0.00000000000E+00  0.00000000000E+00  0.12525980253E-10  0.17130000000E+03  0.17130000000E+03 0. -1.
       11    1    1    2    0    0  0.19717081667E-01  0.70497237573E-02  0.16109216244E+01  0.16110577901E+01  0.51109989000E-03 0. -1.
     -623    1    1    2    0    0 -0.43510564434E-03  0.34535291784E-02  0.32080004500E-03  0.17130000004E+03  0.17130000000E+03 0. -1.
      622    1    1    2    0    0 -0.19281976023E-01 -0.10503252936E-01  0.23887575429E+01  0.23889421742E+01  0.20000000000E-01 0. -1.
</event>
<event>
 5   0  0.3603037E+08  0.9118800E+02  0.7818608E-02  0.1180000E+00
       11   -1    0    0    0    0  0.00000000000E+00  0.00000000000E+00  0.39999999673E+01  0.40000000000E+01  0.51109989000E-03 0. -1.
     -623   -1    0    0    0    0  0.00000000000E+00  0.00000000000E+00  0.12525980253E-10  0.17130000000E+03  0.17130000000E+03 0. -1.
       11    1    1    2    0    0 -0.25115593172E-02 -0.10450347857E-02  0.76995304251E-01  0.77045039595E-01  0.51109989000E-03 0. -1.
     -623    1    1    2    0    0  0.13808213563E-02 -0.59393231336E-03  0.10119697513E-03  0.17130000001E+03  0.17130000000E+03 0. -1.
      622    1    1    2    0    0  0.11307379609E-02  0.16389670990E-02  0.39229034661E+01  0.39229549538E+01  0.20000000000E-01 0. -1.
</event>
<event>
 5   0  0.3603037E+08  0.9118800E+02  0.7818608E-02  0.1180000E+00
       11   -1    0    0    0    0  0.00000000000E+00  0.00000000000E+00  0.39999999673E+01  0.40000000000E+01  0.51109989000E-03 0.  1.
     -623   -1    0    0    0    0  0.00000000000E+00  0.00000000000E+00  0.12525980253E-10  0.17130000000E+03  0.17130000000E+03 0.  1.
       11    1    1    2    0    0 -0.43250434294E-02 -0.21495113494E-02  0.82032452446E-01  0.82176096745E-01  0.51109989000E-03 0.  1.
     -623    1    1    2    0    0 -0.18728942999E-02  0.11725729642E-02  0.19969950033E-03  0.17130000001E+03  0.17130000000E+03 0.  1.
      622    1    1    2    0    0  0.61979377293E-02  0.97693838524E-03  0.39177678154E+01  0.39178238889E+01  0.20000000000E-01 0.  1.
</event>
<event>
 5   0  0.3603037E+08  0.9118800E+02  0.7818608E-02  0.1180000E+00
       11   -1    0    0    0    0  0.00000000000E+00  0.00000000000E+00  0.39999999673E+01  0.40000000000E+01  0.51109989000E-03 0. -1.
     -623   -1    0    0    0    0  0.00000000000E+00  0.00000000000E+00  0.12525980253E-10  0.17130000000E+03  0.17130000000E+03 0.  1.
       11    1    1    2    0    0 -0.32175938967E-01 -0.96875191267E-03  0.10745864365E+01  0.10750686025E+01  0.51109989000E-03 0. -1.
     -623    1    1    2    0    0  0.94862655996E-02  0.56089309813E-02  0.64255755727E-03  0.17130000036E+03  0.17130000000E+03 0.  1.
      622    1    1    2    0    0  0.22689673367E-01 -0.46401790687E-02  0.29247709734E+01  0.29249310418E+01  0.20000000000E-01 0. -1.
</event>
<event>
 5   0  0.3603037E+08  0.9118800E+02  0.7818608E-02  0.1180000E+00
       11   -1    0    0    0    0  0.00000000000E+00  0.00000000000E+00  0.39999999673E+01  0.40000000000E+01  0.51109989000E-03 0. -1.
     -623   -1    0    0    0    0  0.00000000000E+00  0.00000000000E+00  0.12525980253E-10  0.17130000000E+03  0.17130000000E+03 0. -1.
       11    1    1    2    0    0  0.15461737534E-02  0.30129089322E-02  0.25943129896E+00  0.25945390414E+00  0.51109989000E-03 0. -1.
     -623    1    1    2    0    0  0.13548494802E-03 -0.78238639614E-04  0.77570385884E-04  0.17130000000E+03  0.17130000000E+03 0. -1.
      622    1    1    2    0    0 -0.16816587014E-02 -0.29346702926E-02  0.37404910980E+01  0.37405460958E+01  0.20000000000E-01 0. -1.
</event>
<event>
 5   0  0.3603037E+08  0.9118800E+02  0.7818608E-02  0.1180000E+00
       11   -1    0    0    0    0  0.00000000000E+00  0.00000000000E+00  0.39999999673E+01  0.40000000000E+01  0.51109989000E-03 0. -1.
     -623   -1    0    0    0    0  0.00000000000E+00  0.00000000000E+00  0.12525980253E-10  0.17130000000E+03  0.17130000000E+03 0.  1.
       11    1    1    2    0    0  0.10891047182E-01  0.78196990546E-03  0.40842137479E+00  0.40856762842E+00  0.51109989000E-03 0. -1.
     -623    1    1    2    0    0 -0.54306596902E-03  0.10262928577E-02  0.21727687993E-03  0.17130000000E+03  0.17130000000E+03 0.  1.
      622    1    1    2    0    0 -0.10347981213E-01 -0.18082627632E-02  0.35913613157E+01  0.35914323675E+01  0.20000000000E-01 0. -1.
</event>
<event>
 5   0  0.3603037E+08  0.9118800E+02  0.7818608E-02  0.1180000E+00
       11   -1    0    0    0    0  0.00000000000E+00  0.00000000000E+00  0.39999999673E+01  0.40000000000E+01  0.51109989000E-03 0.  1.
     -623   -1    0    0    0    0  0.00000000000E+00  0.00000000000E+00  0.12525980253E-10  0.17130000000E+03  0.17130000000E+03 0.  1.
       11    1    1    2    0    0  0.98833488567E-02 -0.34586496898E-02  0.22683891677E+00  0.22708103889E+00  0.51109989000E-03 0.  1.
     -623    1    1    2    0    0 -0.97820184060E-02 -0.69051121066E-02  0.30975357248E-03  0.17130000042E+03  0.17130000000E+03 0.  1.
      622    1    1    2    0    0 -0.10133045070E-03  0.10363761796E-01  0.37728512970E+01  0.37729185424E+01  0.20000000000E-01 0.  1.
</event>
<event>
 5   0  0.3603037E+08  0.9118800E+02  0.7818608E-02  0.1180000E+00
       11   -1    0    0    0    0  0.00000000000E+00  0.00000000000E+00  0.39999999673E+01  0.40000000000E+01  0.51109989000E-03 0.  1.
     -623   -1    0    0    0    0  0.00000000000E+00  0.00000000000E+00  0.12525980253E-10  0.17130000000E+03  0.17130000000E+03 0. -1.
       11    1    1    2    0    0  0.71827662581E-02  0.33167653806E-02  0.58800318832E+00  0.58805663312E+00  0.51109989000E-03 0.  1.
     -623    1    1    2    0    0  0.44765993790E-02  0.31199267309E-02  0.13811057909E-03  0.17130000009E+03  0.17130000000E+03 0. -1.
      622    1    1    2    0    0 -0.11659365637E-01 -0.64366921115E-02  0.34118586685E+01  0.34119432799E+01  0.20000000000E-01 0.  0.
</event>
<event>
 5   0  0.3603037E+08  0.9118800E+02  0.7818608E-02  0.1180000E+00
       11   -1    0    0    0    0  0.00000000000E+00  0.00000000000E+00  0.39999999673E+01  0.40000000000E+01  0.51109989000E-03 0. -1.
     -623   -1    0    0    0    0  0.00000000000E+00  0.00000000000E+00  0.12525980253E-10  0.17130000000E+03  0.17130000000E+03 0. -1.
       11    1    1    2    0    0  0.36105460460E-03  0.13753859928E-03  0.29302997527E-01  0.29310001093E-01  0.51109989000E-03 0. -1.
     -623    1    1    2    0    0  0.51101211529E-03 -0.63607561185E-03  0.57469340555E-04  0.17130000000E+03  0.17130000000E+03 0. -1.
      622    1    1    2    0    0 -0.87206671988E-03  0.49853701257E-03  0.39706395005E+01  0.39706899970E+01  0.20000000000E-01 0. -1.
</event>
<event>
 5   0  0.3603037E+08  0.9118800E+02  0.7818608E-02  0.1180000E+00
       11   -1    0    0    0    0  0.00000000000E+00  0.00000000000E+00  0.39999999673E+01  0.40000000000E+01  0.51109989000E-03 0. -1.
     -623   -1    0    0    0    0  0.00000000000E+00  0.00000000000E+00  0.12525980253E-10  0.17130000000E+03  0.17130000000E+03 0. -1.
       11    1    1    2    0    0 -0.12599062352E-02 -0.22213427722E-03  0.99772052141E-01  0.99781563006E-01  0.51109989000E-03 0. -1.
     -623    1    1    2    0    0  0.83673167207E-03  0.44345796243E-04  0.60786811554E-04  0.17130000000E+03  0.17130000000E+03 0. -1.
      622    1    1    2    0    0  0.42317456314E-03  0.17778848098E-03  0.39001671284E+01  0.39002184349E+01  0.20000000000E-01 0. -1.
</event>
<event>
 5   0  0.3603037E+08  0.9118800E+02  0.7818608E-02  0.1180000E+00
       11   -1    0    0    0    0  0.00000000000E+00  0.00000000000E+00  0.39999999673E+01  0.40000000000E+01  0.51109989000E-03 0. -1.
     -623   -1    0    0    0    0  0.00000000000E+00  0.00000000000E+00  0.12525980253E-10  0.17130000000E+03  0.17130000000E+03 0.  1.
       11    1    1    2    0    0  0.30864587905E-02  0.34249014280E-02  0.12011250965E-01  0.12875851362E-01  0.51109989000E-03 0. -1.
     -623    1    1    2    0    0 -0.56260724665E-02 -0.38815466771E-02  0.91570332409E-03  0.17130000014E+03  0.17130000000E+03 0.  1.
      622    1    1    2    0    0  0.25396136760E-02  0.45664524903E-03  0.39870730131E+01  0.39871240098E+01  0.20000000000E-01 0. -1.
</event>
<event>
 5   0  0.3603037E+08  0.9118800E+02  0.7818608E-02  0.1180000E+00
       11   -1    0    0    0    0  0.00000000000E+00  0.00000000000E+00  0.39999999673E+01  0.40000000000E+01  0.51109989000E-03 0. -1.
     -623   -1    0    0    0    0  0.00000000000E+00  0.00000000000E+00  0.12525980253E-10  0.17130000000E+03  0.17130000000E+03 0.  1.
       11    1    1    2    0    0  0.10266523429E-01 -0.13361399079E-01  0.21101334636E+01  0.21102008018E+01  0.51109989000E-03 0. -1.
     -623    1    1    2    0    0 -0.24788459318E-01  0.75650644293E-02  0.23979074765E-03  0.17130000196E+03  0.17130000000E+03 0.  1.
      622    1    1    2    0    0  0.14521935889E-01  0.57963346495E-02  0.18896267131E+01  0.18897972375E+01  0.20000000000E-01 0. -1.
</event>
<event>
 5   0  0.3603037E+08  0.9118800E+02  0.7818608E-02  0.1180000E+00
       11   -1    0    0    0    0  0.00000000000E+00  0.00000000000E+00  0.39999999673E+01  0.40000000000E+01  0.51109989000E-03 0.  1.
     -623   -1    0    0    0    0  0.00000000000E+00  0.00000000000E+00  0.12525980253E-10  0.17130000000E+03  0.17130000000E+03 0. -1.
       11    1    1    2    0    0  0.31748310787E-02  0.37174263323E-04  0.57194979270E-01  0.57285319308E-01  0.51109989000E-03 0.  1.
     -623    1    1    2    0    0  0.73429940881E-04  0.20151480424E-03  0.14237969340E-03  0.17130000000E+03  0.17130000000E+03 0. -1.
      622    1    1    2    0    0 -0.32482610195E-02 -0.23868906757E-03  0.39426626084E+01  0.39427146805E+01  0.20000000000E-01 0.  1.
</event>
<event>
 5   0  0.3603037E+08  0.9118800E+02  0.7818608E-02  0.1180000E+00
       11   -1    0    0    0    0  0.00000000000E+00  0.00000000000E+00  0.39999999673E+01  0.40000000000E+01  0.51109989000E-03 0. -1.
     -623   -1    0    0    0    0  0.00000000000E+00  0.00000000000E+00  0.12525980253E-10  0.17130000000E+03  0.17130000000E+03 0. -1.
       11    1    1    2    0    0 -0.49805046803E-02  0.24340525613E-02  0.33424671301E-02  0.64933310059E-02  0.51109989000E-03 0. -1.
     -623    1    1    2    0    0  0.34882942616E-02 -0.65791059471E-03  0.32016533233E-02  0.17130000007E+03  0.17130000000E+03 0. -1.
      622    1    1    2    0    0  0.14922104187E-02 -0.17761419666E-02  0.39934558469E+01  0.39935066023E+01  0.20000000000E-01 0. -1.
</event>
<event>
 5   0  0.3603037E+08  0.9118800E+02  0.7818608E-02  0.1180000E+00
       11   -1    0    0    0    0  0.00000000000E+00  0.00000000000E+00  0.39999999673E+01  0.40000000000E+01  0.51109989000E-03 0. -1.
     -623   -1    0    0    0    0  0.00000000000E+00  0.00000000000E+00  0.12525980253E-10  0.17130000000E+03  0.17130000000E+03 0.  1.
       11    1    1    2    0    0 -0.27882838312E-04 -0.11440635281E-01  0.11988183700E+00  0.12042759226E+00  0.51109989000E-03 0. -1.
     -623    1    1    2    0    0  0.27238764973E-02 -0.78291384158E-03  0.61749331345E-03  0.17130000002E+03  0.17130000000E+03 0.  1.
      622    1    1    2    0    0 -0.26959936590E-02  0.12223549123E-01  0.38795006370E+01  0.38795723832E+01  0.20000000000E-01 0. -1.
</event>
<event>
 5   0  0.3603037E+08  0.9118800E+02  0.7818608E-02  0.1180000E+00
       11   -1    0    0    0    0  0.00000000000E+00  0.00000000000E+00  0.39999999673E+01  0.40000000000E+01  0.51109989000E-03 0.  1.
     -623   -1    0    0    0    0  0.00000000000E+00  0.00000000000E+00  0.12525980253E-10  0.17130000000E+03  0.17130000000E+03 0.  1.
       11    1    1    2    0    0  0.30618186175E-02  0.31616666506E-02  0.37598616422E-01  0.37858790869E-01  0.51109989000E-03 0.  1.
     -623    1    1    2    0    0  0.97198535470E-03  0.14513844607E-03  0.31405634953E-03  0.17130000000E+03  0.17130000000E+03 0.  1.
      622    1    1    2    0    0 -0.40338039722E-02 -0.33068050967E-02  0.39620872946E+01  0.39621412060E+01  0.20000000000E-01 0.  1.
</event>
<event>
 5   0  0.3603037E+08  0.9118800E+02  0.7818608E-02  0.1180000E+00
       11   -1    0    0    0    0  0.00000000000E+00  0.00000000000E+00  0.39999999673E+01  0.40000000000E+01  0.51109989000E-03 0. -1.
     -623   -1    0    0    0    0  0.00000000000E+00  0.00000000000E+00  0.12525980253E-10  0.17130000000E+03  0.17130000000E+03 0. -1.
       11    1    1    2    0    0  0.38161640599E-03 -0.16767332330E-02  0.20939132640E-01  0.21015840770E-01  0.51109989000E-03 0. -1.
     -623    1    1    2    0    0 -0.26677187153E-03 -0.10510979211E-03  0.12734080966E-03  0.17130000000E+03  0.17130000000E+03 0. -1.
      622    1    1    2    0    0 -0.11484453446E-03  0.17818430252E-02  0.39789334939E+01  0.39789841589E+01  0.20000000000E-01 0. -1.
</event>
<event>
 5   0  0.3603037E+08  0.9118800E+02  0.7818608E-02  0.1180000E+00
       11   -1    0    0    0    0  0.00000000000E+00  0.00000000000E+00  0.39999999673E+01  0.40000000000E+01  0.51109989000E-03 0. -1.
     -623   -1    0    0    0    0  0.00000000000E+00  0.00000000000E+00  0.12525980253E-10  0.17130000000E+03  0.17130000000E+03 0.  1.
       11    1    1    2    0    0 -0.62218634964E-02 -0.94756793631E-03  0.26330626021E+00  0.26338196096E+00  0.51109989000E-03 0. -1.
     -623    1    1    2    0    0  0.65668759054E-02 -0.19084200429E-02  0.13043677462E-03  0.17130000014E+03  0.17130000000E+03 0.  1.
      622    1    1    2    0    0 -0.34501240904E-03  0.28559879792E-02  0.37365632704E+01  0.37366179025E+01  0.20000000000E-01 0. -1.
</event>
<event>
 5   0  0.3603037E+08  0.9118800E+02  0.7818608E-02  0.1180000E+00
       11   -1    0    0    0    0  0.00000000000E+00  0.00000000000E+00  0.39999999673E+01  0.40000000000E+01  0.51109989000E-03 0. -1.
     -623   -1    0    0    0    0  0.00000000000E+00  0.00000000000E+00  0.12525980253E-10  0.17130000000E+03  0.17130000000E+03 0.  1.
       11    1    1    2    0    0 -0.10746550499E-01 -0.10442665070E-01  0.12572901833E+01  0.12573795782E+01  0.51109989000E-03 0. -1.
     -623    1    1    2    0    0  0.18155790140E-01  0.63582608765E-02  0.17641632905E-03  0.17130000108E+03  0.17130000000E+03 0.  1.
      622    1    1    2    0    0 -0.74092396413E-02  0.40844041938E-02  0.27425333678E+01  0.27426193415E+01  0.20000000000E-01 0. -1.
</event>
<event>
 5   0  0.3603037E+08  0.9118800E+02  0.7818608E-02  0.1180000E+00
       11   -1    0    0    0    0  0.00000000000E+00  0.00000000000E+00  0.39999999673E+01  0.40000000000E+01  0.51109989000E-03 0. -1.
     -623   -1    0    0    0    0  0.00000000000E+00  0.00000000000E+00  0.12525980253E-10  0.17130000000E+03  0.17130000000E+03 0.  1.
       11    1    1    2    0    0  0.25601640025E-02 -0.21206457636E-02  0.47037956907E+00  0.47039159410E+00  0.51109989000E-03 0. -1.
     -623    1    1    2    0    0 -0.88187955728E-05  0.11044262970E-03  0.70150965506E-04  0.17130000000E+03  0.17130000000E+03 0.  1.
      622    1    1    2    0    0 -0.25513452069E-02  0.20102031339E-02  0.35295502473E+01  0.35296084058E+01  0.20000000000E-01 0. -1.
</event>
<event>
 5   0  0.3603037E+08  0.9118800E+02  0.7818608E-02  0.1180000E+00
       11   -1    0    0    0    0  0.00000000000E+00  0.00000000000E+00  0.39999999673E+01  0.40000000000E+01  0.51109989000E-03 0.  1.
     -623   -1    0    0    0    0  0.00000000000E+00  0.00000000000E+00  0.12525980253E-10  0.17130000000E+03  0.17130000000E+03 0. -1.
       11    1    1    2    0    0  0.14418242790E-02 -0.21045539818E-02  0.39242732725E-01  0.39328886313E-01  0.51109989000E-03 0.  1.
     -623    1    1    2    0    0  0.13744404353E-02  0.30848208880E-03  0.13803212966E-03  0.17130000001E+03  0.17130000000E+03 0. -1.
      622    1    1    2    0    0 -0.28162647143E-02  0.17960718930E-02  0.39606192025E+01  0.39606711078E+01  0.20000000000E-01 0.  1.
</event>
<event>
 5   0  0.3603037E+08  0.9118800E+02  0.7818608E-02  0.1180000E+00
       11   -1    0    0    0    0  0.00000000000E+00  0.00000000000E+00  0.39999999673E+01  0.40000000000E+01  0.51109989000E-03 0. -1.
     -623   -1    0    0    0    0  0.00000000000E+00  0.00000000000E+00  0.12525980253E-10  0.17130000000E+03  0.17130000000E+03 0. -1.
       11    1    1    2    0    0  0.12660680174E-01  0.66166907640E-02  0.82830473155E+00  0.82842806746E+00  0.51109989000E-03 0. -1.
     -623    1    1    2    0    0 -0.11708694865E-01  0.38236765921E-02  0.20413444392E-03  0.17130000044E+03  0.17130000000E+03 0. -1.
      622    1    1    2    0    0 -0.95198530902E-03 -0.10440367356E-01  0.31714911014E+01  0.31715714896E+01  0.20000000000E-01 0.  1.
</event>
<event>
 5   0  0.3603037E+08  0.9118800E+02  0.7818608E-02  0.1180000E+00
       11   -1    0    0    0    0  0.00000000000E+00  0.00000000000E+00  0.39999999673E+01  0.40000000000E+01  0.51109989000E-03 0. -1.
     -623   -1    0    0    0    0  0.00000000000E+00  0.00000000000E+00  0.12525980253E-10  0.17130000000E+03  0.17130000000E+03 0.  1.
       11    1    1    2    0    0 -0.12430078155E-02  0.24147578101E-02  0.25264379155E-01  0.25415078159E-01  0.51109989000E-03 0. -1.
     -623    1    1    2    0    0  0.31585894633E-02 -0.18187112778E-02  0.20153161082E-03  0.17130000004E+03  0.17130000000E+03 0.  1.
      622    1    1    2    0    0 -0.19155816478E-02 -0.59604653235E-03  0.39745340566E+01  0.39745848829E+01  0.20000000000E-01 0. -1.
</event>
<event>
 5   0  0.3603037E+08  0.9118800E+02  0.7818608E-02  0.1180000E+00
       11   -1    0    0    0    0  0.00000000000E+00  0.00000000000E+00  0.39999999673E+01  0.40000000000E+01  0.51109989000E-03 0.  1.
     -623   -1    0    0    0    0  0.00000000000E+00  0.00000000000E+00  0.12525980253E-10  0.17130000000E+03  0.17130000000E+03 0. -1.
       11    1    1    2    0    0  0.46090181316E-02 -0.25861510950E-02  0.14101727987E+00  0.14111720543E+00  0.51109989000E-03 0.  1.
     -623    1    1    2    0    0  0.15482537824E-03  0.26324656381E-03  0.15536179988E-03  0.17130000000E+03  0.17130000000E+03 0. -1.
      622    1    1    2    0    0 -0.47638435099E-02  0.23229045312E-02  0.38588273257E+01  0.38588827942E+01  0.20000000000E-01 0.  1.
</event>
<event>
 5   0  0.3603037E+08  0.9118800E+02  0.7818608E-02  0.1180000E+00
       11   -1    0    0    0    0  0.00000000000E+00  0.00000000000E+00  0.39999999673E+01  0.40000000000E+01  0.51109989000E-03 0.  1.
     -623   -1    0    0    0    0  0.00000000000E+00  0.00000000000E+00  0.12525980253E-10  0.17130000000E+03  0.17130000000E+03 0.  1.
       11    1    1    2    0    0  0.17490423775E-02  0.89703018225E-02  0.16159621141E+00  0.16185525085E+00  0.51109989000E-03 0.  1.
     -623    1    1    2    0    0  0.13869116966E-02 -0.17969142196E-03  0.32246965487E-03  0.17130000001E+03  0.17130000000E+03 0.  1.
      622    1    1    2    0    0 -0.31359540742E-02 -0.87906104005E-02  0.38380812863E+01  0.38381447431E+01  0.20000000000E-01 0.  1.
</event>
<event>
 5   0  0.3603037E+08  0.9118800E+02  0.7818608E-02  0.1180000E+00
       11   -1    0    0    0    0  0.00000000000E+00  0.00000000000E+00  0.39999999673E+01  0.40000000000E+01  0.51109989000E-03 0.  1.
     -623   -1    0    0    0    0  0.00000000000E+00  0.00000000000E+00  0.12525980253E-10  0.17130000000E+03  0.17130000000E+03 0.  1.
       11    1    1    2    0    0  0.96343831447E-02 -0.12415869696E-02  0.64576216282E+00  0.64583542411E+00  0.51109989000E-03 0.  1.
     -623    1    1    2    0    0  0.16172042698E-03 -0.61829055190E-03  0.14767889098E-03  0.17130000000E+03  0.17130000000E+03 0.  1.
      622    1    1    2    0    0 -0.97961035717E-02  0.18598775215E-02  0.33540901256E+01  0.33541645746E+01  0.20000000000E-01 0.  1.
</event>
<event>
 5   0  0.3603037E+08  0.9118800E+02  0.7818608E-02  0.1180000E+00
       11   -1    0    0    0    0  0.00000000000E+00  0.00000000000E+00  0.39999999673E+01  0.40000000000E+01  0.51109989000E-03 0.  1.
     -623   -1    0    0    0    0  0.00000000000E+00  0.00000000000E+00  0.12525980253E-10  0.17130000000E+03  0.17130000000E+03 0.  1.
       11    1    1    2    0    0 -0.69356658720E-02 -0.93918632519E-03  0.18585302428E+01  0.18585434916E+01  0.51109989000E-03 0.  1.
     -623    1    1    2    0    0  0.53068201767E-03  0.17904131484E-02  0.11637090399E-03  0.17130000001E+03  0.17130000000E+03 0.  1.
      622    1    1    2    0    0  0.64049838543E-02 -0.85122682318E-03  0.21413533537E+01  0.21414564982E+01  0.20000000000E-01 0.  1.
</event>
<event>
 5   0  0.3603037E+08  0.9118800E+02  0.7818608E-02  0.1180000E+00
       11   -1    0    0    0    0  0.00000000000E+00  0.00000000000E+00  0.39999999673E+01  0.40000000000E+01  0.51109989000E-03 0.  1.
     -623   -1    0    0    0    0  0.00000000000E+00  0.00000000000E+00  0.12525980253E-10  0.17130000000E+03  0.17130000000E+03 0. -1.
       11    1    1    2    0    0 -0.16672135821E-02 -0.26865249504E-02  0.64309663623E-02  0.71843974957E-02  0.51109989000E-03 0.  1.
     -623    1    1    2    0    0  0.77454285724E-03  0.11755240013E-02  0.80388214061E-03  0.17130000001E+03  0.17130000000E+03 0. -1.
      622    1    1    2    0    0  0.89267072483E-03  0.15110009491E-02  0.39927651189E+01  0.39928155948E+01  0.20000000000E-01 0.  1.
</event>
<event>
 5   0  0.3603037E+08  0.9118800E+02  0.7818608E-02  0.1180000E+00
       11   -1    0    0    0    0  0.00000000000E+00  0.00000000000E+00  0.39999999673E+01  0.40000000000E+01  0.51109989000E-03 0.  1.
     -623   -1    0    0    0    0  0.00000000000E+00  0.00000000000E+00  0.12525980253E-10  0.17130000000E+03  0.17130000000E+03 0. -1.
       11    1    1    2    0    0  0.16674429179E-01 -0.26388092310E-02  0.16423129943E+01  0.16423998394E+01  0.51109989000E-03 0.  1.
     -623    1    1    2    0    0 -0.11467672230E-01 -0.86499493736E-02  0.20502599881E-03  0.17130000060E+03  0.17130000000E+03 0. -1.
      622    1    1    2    0    0 -0.52067569484E-02  0.11288758605E-01  0.23574819471E+01  0.23575995583E+01  0.20000000000E-01 0.  1.
</event>
<event>
 5   0  0.3603037E+08  0.9118800E+02  0.7818608E-02  0.1180000E+00
       11   -1    0    0    0    0  0.00000000000E+00  0.00000000000E+00  0.39999999673E+01  0.40000000000E+01  0.51109989000E-03 0. -1.
     -623   -1    0    0    0    0  0.00000000000E+00  0.00000000000E+00  0.12525980253E-10  0.17130000000E+03  0.17130000000E+03 0. -1.
       11    1    1    2    0    0 -0.12795351487E-01 -0.11927174520E-01  0.16600278458E+01  0.16601200825E+01  0.51109989000E-03 0. -1.
     -623    1    1    2    0    0  0.18959308827E-01  0.35357219565E-02  0.20193288415E-03  0.17130000109E+03  0.17130000000E+03 0. -1.
      622    1    1    2    0    0 -0.61639573401E-02  0.83914525639E-02  0.23397701887E+01  0.23398788317E+01  0.20000000000E-01 0. -1.
</event>
<event>
 5   0  0.3603037E+08  0.9118800E+02  0.7818608E-02  0.1180000E+00
       11   -1    0    0    0    0  0.00000000000E+00  0.00000000000E+00  0.39999999673E+01  0.40000000000E+01  0.51109989000E-03 0.  1.
     -623   -1    0    0    0    0  0.00000000000E+00  0.00000000000E+00  0.12525980253E-10  0.17130000000E+03  0.17130000000E+03 0.  1.
       11    1    1    2    0    0  0.68663294454E-02 -0.58695766715E-02  0.15196488592E-01  0.17685951985E-01  0.51109989000E-03 0.  1.
     -623    1    1    2    0    0 -0.69920962445E-02  0.91748110441E-02  0.25414340256E-02  0.17130000041E+03  0.17130000000E+03 0.  1.
      622    1    1    2    0    0  0.12576679917E-03 -0.33052343726E-02  0.39822620447E+01  0.39823136408E+01  0.20000000000E-01 0.  1.
</event>
<event>
 5   0  0.3603037E+08  0.9118800E+02  0.7818608E-02  0.1180000E+00
       11   -1    0    0    0    0  0.00000000000E+00  0.00000000000E+00  0.39999999673E+01  0.40000000000E+01  0.51109989000E-03 0. -1.
     -623   -1    0    0    0    0  0.00000000000E+00  0.00000000000E+00  0.12525980253E-10  0.17130000000E+03  0.17130000000E+03 0.  1.
       11    1    1    2    0    0  0.28503700132E-03  0.14337643935E-03  0.36696908828E-01  0.36701854748E-01  0.51109989000E-03 0. -1.
     -623    1    1    2    0    0  0.69980037345E-03 -0.57389820729E-03  0.55524768155E-04  0.17130000000E+03  0.17130000000E+03 0.  1.
      622    1    1    2    0    0 -0.98483737477E-03  0.43052176794E-03  0.39632475338E+01  0.39632981429E+01  0.20000000000E-01 0. -1.
</event>
<event>
 5   0  0.3603037E+08  0.9118800E+02  0.7818608E-02  0.1180000E+00
       11   -1    0    0    0    0  0.00000000000E+00  0.00000000000E+00  0.39999999673E+01  0.40000000000E+01  0.51109989000E-03 0. -1.
     -623   -1    0    0    0    0  0.00000000000E+00  0.00000000000E+00  0.12525980253E-10  0.17130000000E+03  0.17130000000E+03 0. -1.
       11    1    1    2    0    0 -0.19337626078E-01  0.20474813360E-01  0.20238323355E+01  0.20240283459E+01  0.51109989000E-03 0. -1.
     -623    1    1    2    0    0 -0.75689940277E-04  0.67084039556E-03  0.50572912964E-03  0.17130000000E+03  0.17130000000E+03 0. -1.
      622    1    1    2    0    0  0.19413316019E-01 -0.21145653755E-01  0.19756619027E+01  0.19759716520E+01  0.20000000000E-01 0.  0.
</event>
<event>
 5   0  0.3603037E+08  0.9118800E+02  0.7818608E-02  0.1180000E+00
       11   -1    0    0    0    0  0.00000000000E+00  0.00000000000E+00  0.39999999673E+01  0.40000000000E+01  0.51109989000E-03 0. -1.
     -623   -1    0    0    0    0  0.00000000000E+00  0.00000000000E+00  0.12525980253E-10  0.17130000000E+03  0.17130000000E+03 0. -1.
       11    1    1    2    0    0 -0.52593026110E-03 -0.14911162305E-02  0.13858553778E+00  0.13859549968E+00  0.51109989000E-03 0. -1.
     -623    1    1    2    0    0 -0.75594499099E-04  0.65880324036E-04  0.62034159031E-04  0.17130000000E+03  0.17130000000E+03 0. -1.
      622    1    1    2    0    0  0.60152476020E-03  0.14252359065E-02  0.38613523954E+01  0.38614045003E+01  0.20000000000E-01 0. -1.
</event>
<event>
 5   0  0.3603037E+08  0.9118800E+02  0.7818608E-02  0.1180000E+00
       11   -1    0    0    0    0  0.00000000000E+00  0.00000000000E+00  0.39999999673E+01  0.40000000000E+01  0.51109989000E-03 0. -1.
     -623   -1    0    0    0    0  0.00000000000E+00  0.00000000000E+00  0.12525980253E-10  0.17130000000E+03  0.17130000000E+03 0. -1.
       11    1    1    2    0    0 -0.10050635465E-01 -0.56338548125E-02  0.21444567487E+01  0.21444877626E+01  0.51109989000E-03 0. -1.
     -623    1    1    2    0    0 -0.17795664398E-03 -0.28316085431E-03  0.17640142602E-03  0.17130000000E+03  0.17130000000E+03 0. -1.
      622    1    1    2    0    0  0.10228592109E-01  0.59170156668E-02  0.18553668172E+01  0.18555122370E+01  0.20000000000E-01 0.  0.
</event>
<event>
 5   0  0.3603037E+08  0.9118800E+02  0.7818608E-02  0.1180000E+00
       11   -1    0    0    0    0  0.00000000000E+00  0.00000000000E+00  0.39999999673E+01  0.40000000000E+01  0.51109989000E-03 0. -1.
     -623   -1    0    0    0    0  0.00000000000E+00  0.00000000000E+00  0.12525980253E-10  0.17130000000E+03  0.17130000000E+03 0.  1.
       11    1    1    2    0    0  0.35430963901E-03  0.24864489120E-02  0.46212954827E+00  0.46213665573E+00  0.51109989000E-03 0. -1.
     -623    1    1    2    0    0  0.11869785950E-02  0.24191816530E-03  0.64998666274E-04  0.17130000000E+03  0.17130000000E+03 0.  1.
      622    1    1    2    0    0 -0.15412882340E-02 -0.27283670773E-02  0.35378054204E+01  0.35378633400E+01  0.20000000000E-01 0. -1.
</event>
<event>
 5   0  0.3603037E+08  0.9118800E+02  0.7818608E-02  0.1180000E+00
       11   -1    0    0    0    0  0.00000000000E+00  0.00000000000E+00  0.39999999673E+01  0.40000000000E+01  0.51109989000E-03 0. -1.
     -623   -1    0    0    0    0  0.00000000000E+00  0.00000000000E+00  0.12525980253E-10  0.17130000000E+03  0.17130000000E+03 0. -1.
       11    1    1    2    0    0  0.18677353860E-03 -0.14551470379E-01  0.17761344415E+00  0.17820936265E+00  0.51109989000E-03 0. -1.
     -623    1    1    2    0    0  0.76488440411E-03  0.96569059207E-03  0.67248986431E-03  0.17130000001E+03  0.17130000000E+03 0. -1.
      622    1    1    2    0    0 -0.95165794271E-03  0.13585779787E-01  0.38217140333E+01  0.38217906316E+01  0.20000000000E-01 0. -1.
</event>
<event>
 5   0  0.3603037E+08  0.9118800E+02  0.7818608E-02  0.1180000E+00
       11   -1    0    0    0    0  0.00000000000E+00  0.00000000000E+00  0.39999999673E+01  0.40000000000E+01  0.51109989000E-03 0. -1.
     -623   -1    0    0    0    0  0.00000000000E+00  0.00000000000E+00  0.12525980253E-10  0.17130000000E+03  0.17130000000E+03 0. -1.
       11    1    1    2    0    0  0.79126201517E-02  0.60783087924E-02  0.68057727915E+00  0.68065060752E+00  0.51109989000E-03 0. -1.
     -623    1    1    2    0    0  0.71927247030E-03  0.49937934001E-03  0.15129247785E-03  0.17130000000E+03  0.17130000000E+03 0. -1.
      622    1    1    2    0    0 -0.86318926220E-02 -0.65776881324E-02  0.33192713957E+01  0.33193493902E+01  0.20000000000E-01 0.  0.
</event>
<event>
 5   0  0.3603037E+08  0.9118800E+02  0.7818608E-02  0.1180000E+00
       11   -1    0    0    0    0  0.00000000000E+00  0.00000000000E+00  0.39999999673E+01  0.40000000000E+01  0.51109989000E-03 0. -1.
     -623   -1    0    0    0    0  0.00000000000E+00  0.00000000000E+00  0.12525980253E-10  0.17130000000E+03  0.17130000000E+03 0. -1.
       11    1    1    2    0    0 -0.39504941849E-02  0.25791513969E-02  0.11623827263E-01  0.12555198440E-01  0.51109989000E-03 0. -1.
     -623    1    1    2    0    0  0.39678321644E-02 -0.17857560669E-02  0.98163333225E-03  0.17130000006E+03  0.17130000000E+03 0. -1.
      622    1    1    2    0    0 -0.17337979493E-04 -0.79339532999E-03  0.39873945068E+01  0.39874447435E+01  0.20000000000E-01 0. -1.
</event>
<event>
 5   0  0.3603037E+08  0.9118800E+02  0.7818608E-02  0.1180000E+00
       11   -1    0    0    0    0  0.00000000000E+00  0.00000000000E+00  0.39999999673E+01  0.40000000000E+01  0.51109989000E-03 0. -1.
     -623   -1    0    0    0    0  0.00000000000E+00  0.00000000000E+00  0.12525980253E-10  0.17130000000E+03  0.17130000000E+03 0.  1.
       11    1    1    2    0    0 -0.29121221859E-02 -0.83744023412E-04  0.12119165685E+00  0.12122774592E+00  0.51109989000E-03 0. -1.
     -623    1    1    2    0    0  0.97105192380E-03 -0.14169099945E-02  0.88404101132E-04  0.17130000001E+03  0.17130000000E+03 0.  1.
      622    1    1    2    0    0  0.19410702621E-02  0.15006540179E-02  0.38787199064E+01  0.38787722454E+01  0.20000000000E-01 0. -1.
</event>
<event>
 5   0  0.3603037E+08  0.9118800E+02  0.7818608E-02  0.1180000E+00
       11   -1    0    0    0    0  0.00000000000E+00  0.00000000000E+00  0.39999999673E+01  0.40000000000E+01  0.51109989000E-03 0.  1.
     -623   -1    0    0    0    0  0.00000000000E+00  0.00000000000E+00  0.12525980253E-10  0.17130000000E+03  0.17130000000E+03 0.  1.
       11    1    1    2    0    0  0.12575782655E-02  0.81861613394E-03  0.48782310532E-02  0.51293269924E-02  0.51109989000E-03 0.  1.
     -623    1    1    2    0    0  0.24669196481E-03 -0.17039217092E-02  0.30151804772E-03  0.17130000001E+03  0.17130000000E+03 0.  1.
      622    1    1    2    0    0 -0.15042702303E-02  0.88530557530E-03  0.39948202183E+01  0.39948706641E+01  0.20000000000E-01 0.  1.
</event>
<event>
 5   0  0.3603037E+08  0.9118800E+02  0.7818608E-02  0.1180000E+00
       11   -1    0    0    0    0  0.00000000000E+00  0.00000000000E+00  0.39999999673E+01  0.40000000000E+01  0.51109989000E-03 0.  1.
     -623   -1    0    0    0    0  0.00000000000E+00  0.00000000000E+00  0.12525980253E-10  0.17130000000E+03  0.17130000000E+03 0.  1.
       11    1    1    2    0    0 -0.67994514640E-03  0.25043475719E-03  0.17881574992E-01  0.17903546810E-01  0.51109989000E-03 0.  1.
     -623    1    1    2    0    0  0.10958354896E-03  0.32981167583E-03  0.72247785194E-04  0.17130000000E+03  0.17130000000E+03 0.  1.
      622    1    1    2    0    0  0.57036159744E-03 -0.58024643302E-03  0.39820461446E+01  0.39820964528E+01  0.20000000000E-01 0.  1.
</event>
<event>
 5   0  0.3603037E+08  0.9118800E+02  0.7818608E-02  0.1180000E+00
       11   -1    0    0    0    0  0.00000000000E+00  0.00000000000E+00  0.39999999673E+01  0.40000000000E+01  0.51109989000E-03 0.  1.
     -623   -1    0    0    0    0  0.00000000000E+00  0.00000000000E+00  0.12525980253E-10  0.17130000000E+03  0.17130000000E+03 0.  1.
       11    1    1    2    0    0 -0.97580535160E-02  0.38793712816E-02  0.19428832839E+01  0.19429117287E+01  0.51109989000E-03 0.  1.
     -623    1    1    2    0    0 -0.31183262995E-03  0.35612636034E-03  0.15464899684E-03  0.17130000000E+03  0.17130000000E+03 0.  1.
      622    1    1    2    0    0  0.10069886146E-01 -0.42354976419E-02  0.20569620344E+01  0.20570882706E+01  0.20000000000E-01 0.  0.
</event>
<event>
 5   0  0.3603037E+08  0.9118800E+02  0.7818608E-02  0.1180000E+00
       11   -1    0    0    0    0  0.00000000000E+00  0.00000000000E+00  0.39999999673E+01  0.40000000000E+01  0.51109989000E-03 0. -1.
     -623   -1    0    0    0    0  0.00000000000E+00  0.00000000000E+00  0.12525980253E-10  0.17130000000E+03  0.17130000000E+03 0.  1.
       11    1    1    2    0    0 -0.28680791822E-02  0.11636663549E-01  0.25919120824E+01  0.25919398415E+01  0.51109989000E-03 0. -1.
     -623    1    1    2    0    0  0.17051430968E-01 -0.10694326999E-01  0.24271449660E-03  0.17130000118E+03  0.17130000000E+03 0.  1.
      622    1    1    2    0    0 -0.14183351786E-01 -0.94233655005E-03  0.14078451705E+01  0.14080589759E+01  0.20000000000E-01 0. -1.
</event>
<event>
 5   0  0.3603037E+08  0.9118800E+02  0.7818608E-02  0.1180000E+00
       11   -1    0    0    0    0  0.00000000000E+00  0.00000000000E+00  0.39999999673E+01  0.40000000000E+01  0.51109989000E-03 0.  1.
     -623   -1    0    0    0    0  0.00000000000E+00  0.00000000000E+00  0.12525980253E-10  0.17130000000E+03  0.17130000000E+03 0.  1.
       11    1    1    2    0    0 -0.49723415721E-01  0.41428593941E-01  0.38701707224E+00  0.39239166899E+00  0.51109989000E-03 0.  1.
     -623    1    1    2    0    0  0.36558937967E-02 -0.12533651030E-01  0.58404766133E-02  0.17130000060E+03  0.17130000000E+03 0.  1.
      622    1    1    2    0    0  0.46067521924E-01 -0.28894942911E-01  0.36071424185E+01  0.36076077339E+01  0.20000000000E-01 0.  1.
</event>
<event>
 5   0  0.3603037E+08  0.9118800E+02  0.7818608E-02  0.1180000E+00
       11   -1    0    0    0    0  0.00000000000E+00  0.00000000000E+00  0.39999999673E+01  0.40000000000E+01  0.51109989000E-03 0.  1.
     -623   -1    0    0    0    0  0.00000000000E+00  0.00000000000E+00  0.12525980253E-10  0.17130000000E+03  0.17130000000E+03 0.  1.
       11    1    1    2    0    0  0.12738383630E-02  0.73126322657E-04  0.25276782966E+00  0.25277156672E+00  0.51109989000E-03 0.  1.
     -623    1    1    2    0    0  0.65790535405E-04  0.18350390405E-03  0.57325954701E-04  0.17130000000E+03  0.17130000000E+03 0.  1.
      622    1    1    2    0    0 -0.13396288984E-02 -0.25663022671E-03  0.37471748117E+01  0.37472284332E+01  0.20000000000E-01 0.  1.
</event>
<event>
 5   0  0.3603037E+08  0.9118800E+02  0.7818608E-02  0.1180000E+00
       11   -1    0    0    0    0  0.00000000000E+00  0.00000000000E+00  0.39999999673E+01  0.40000000000E+01  0.51109989000E-03 0.  1.
     -623   -1    0    0    0    0  0.00000000000E+00  0.00000000000E+00  0.12525980253E-10  0.17130000000E+03  0.17130000000E+03 0. -1.
       11    1    1    2    0    0  0.14503862786E-02  0.47091831744E-03  0.48754830245E+00  0.48755095511E+00  0.51109989000E-03 0.  1.
     -623    1    1    2    0    0 -0.47201664773E-04 -0.58139904439E-04  0.59865374413E-04  0.17130000000E+03  0.17130000000E+03 0. -1.
      622    1    1    2    0    0 -0.14031846138E-02 -0.41277841300E-03  0.35123917995E+01  0.35124490449E+01  0.20000000000E-01 0.  1.
</event>
<event>
 5   0  0.3603037E+08  0.9118800E+02  0.7818608E-02  0.1180000E+00
       11   -1    0    0    0    0  0.00000000000E+00  0.00000000000E+00  0.39999999673E+01  0.40000000000E+01  0.51109989000E-03 0. -1.
     -623   -1    0    0    0    0  0.00000000000E+00  0.00000000000E+00  0.12525980253E-10  0.17130000000E+03  0.17130000000E+03 0.  1.
       11    1    1    2    0    0 -0.41523721533E-02 -0.23124985195E-02  0.84672809118E-01  0.84807639214E-01  0.51109989000E-03 0. -1.
     -623    1    1    2    0    0  0.13314312830E-02  0.21175884357E-02  0.18692033824E-03  0.17130000002E+03  0.17130000000E+03 0.  1.
      622    1    1    2    0    0  0.28209408703E-02  0.19491008379E-03  0.39151402379E+01  0.39151923424E+01  0.20000000000E-01 0. -1.
</event>
<event>
 5   0  0.3603037E+08  0.9118800E+02  0.7818608E-02  0.1180000E+00
       11   -1    0    0    0    0  0.00000000000E+00  0.00000000000E+00  0.39999999673E+01  0.40000000000E+01  0.51109989000E-03 0.  1.
     -623   -1    0    0    0    0  0.00000000000E+00  0.00000000000E+00  0.12525980253E-10  0.17130000000E+03  0.17130000000E+03 0. -1.
       11    1    1    2    0    0 -0.23499178746E-01  0.55284682585E-01  0.18329302402E+01  0.18339144294E+01  0.51109989000E-03 0.  1.
     -623    1    1    2    0    0  0.11432073171E-01 -0.49621977403E-01  0.11250802934E-02  0.17130000757E+03  0.17130000000E+03 0. -1.
      622    1    1    2    0    0  0.12067105575E-01 -0.56627051824E-02  0.21659446469E+01  0.21660779983E+01  0.20000000000E-01 0. -1.
</event>
<event>
 5   0  0.3603037E+08  0.9118800E+02  0.7818608E-02  0.1180000E+00
       11   -1    0    0    0    0  0.00000000000E+00  0.00000000000E+00  0.39999999673E+01  0.40000000000E+01  0.51109989000E-03 0. -1.
     -623   -1    0    0    0    0  0.00000000000E+00  0.00000000000E+00  0.12525980253E-10  0.17130000000E+03  0.17130000000E+03 0.  1.
       11    1    1    2    0    0  0.15487613828E-01 -0.66575403919E-02  0.60149828606E+00  0.60173469103E+00  0.51109989000E-03 0. -1.
     -623    1    1    2    0    0  0.59856498464E-03 -0.76980001386E-03  0.34142043989E-03  0.17130000000E+03  0.17130000000E+03 0.  1.
      622    1    1    2    0    0 -0.16086178813E-01  0.74273404058E-02  0.33981602609E+01  0.33982653059E+01  0.20000000000E-01 0.  0.
</event>
<event>
 5   0  0.3603037E+08  0.9118800E+02  0.7818608E-02  0.1180000E+00
       11   -1    0    0    0    0  0.00000000000E+00  0.00000000000E+00  0.39999999673E+01  0.40000000000E+01  0.51109989000E-03 0.  1.
     -623   -1    0    0    0    0  0.00000000000E+00  0.00000000000E+00  0.12525980253E-10  0.17130000000E+03  0.17130000000E+03 0. -1.
       11    1    1    2    0    0  0.38276809080E-02  0.99475211996E-03  0.19709201195E-01  0.20108568005E-01  0.51109989000E-03 0.  1.
     -623    1    1    2    0    0 -0.98034230456E-03  0.24160931766E-03  0.45080127471E-03  0.17130000000E+03  0.17130000000E+03 0. -1.
      622    1    1    2    0    0 -0.28473386034E-02 -0.12363614376E-02  0.39798399649E+01  0.39798914284E+01  0.20000000000E-01 0.  1.
</event>
<event>
 5   0  0.3603037E+08  0.9118800E+02  0.7818608E-02  0.1180000E+00
       11   -1    0    0    0    0  0.00000000000E+00  0.00000000000E+00  0.39999999673E+01  0.40000000000E+01  0.51109989000E-03 0. -1.
     -623   -1    0    0    0    0  0.00000000000E+00  0.00000000000E+00  0.12525980253E-10  0.17130000000E+03  0.17130000000E+03 0.  1.
       11    1    1    2    0    0 -0.91527209273E-02 -0.23387654330E-02  0.69696417306E+00  0.69702837953E+00  0.51109989000E-03 0. -1.
     -623    1    1    2    0    0 -0.56657457543E-03  0.17116146264E-03  0.13973852331E-03  0.17130000000E+03  0.17130000000E+03 0.  1.
      622    1    1    2    0    0  0.97192955027E-02  0.21676039704E-02  0.33028960558E+01  0.33029716194E+01  0.20000000000E-01 0.  0.
</event>
<event>
 5   0  0.3603037E+08  0.9118800E+02  0.7818608E-02  0.1180000E+00
       11   -1    0    0    0    0  0.00000000000E+00  0.00000000000E+00  0.39999999673E+01  0.40000000000E+01  0.51109989000E-03 0. -1.
     -623   -1    0    0    0    0  0.00000000000E+00  0.00000000000E+00  0.12525980253E-10  0.17130000000E+03  0.17130000000E+03 0. -1.
       11    1    1    2    0    0 -0.13739398946E-01  0.79105306836E-02  0.28197087396E+01  0.28197533553E+01  0.51109989000E-03 0. -1.
     -623    1    1    2    0    0 -0.22340502838E-02  0.78297972833E-03  0.35420633013E-03  0.17130000002E+03  0.17130000000E+03 0. -1.
      622    1    1    2    0    0  0.15973449230E-01 -0.86935104120E-02  0.11799370215E+01  0.11802466280E+01  0.20000000000E-01 0.  0.
</event>
<event>
 5   0  0.3603037E+08  0.9118800E+02  0.7818608E-02  0.1180000E+00
       11   -1    0    0    0    0  0.00000000000E+00  0.00000000000E+00  0.39999999673E+01  0.40000000000E+01  0.51109989000E-03 0.  1.
     -623   -1    0    0    0    0  0.00000000000E+00  0.00000000000E+00  0.12525980253E-10  0.17130000000E+03  0.17130000000E+03 0.  1.
       11    1    1    2    0    0  0.69527259418E-03 -0.59884333929E-03  0.26268745331E-01  0.26289736042E-01  0.51109989000E-03 0.  1.
     -623    1    1    2    0    0  0.13899515454E-03  0.53470222394E-03  0.71378185431E-04  0.17130000000E+03  0.17130000000E+03 0.  1.
      622    1    1    2    0    0 -0.83426774872E-03  0.64141115354E-04  0.39736598438E+01  0.39737102631E+01  0.20000000000E-01 0.  1.
</event>
<event>
 5   0  0.3603037E+08  0.9118800E+02  0.7818608E-02  0.1180000E+00
       11   -1    0    0    0    0  0.00000000000E+00  0.00000000000E+00  0.39999999673E+01  0.40000000000E+01  0.51109989000E-03 0. -1.
     -623   -1    0    0    0    0  0.00000000000E+00  0.00000000000E+00  0.12525980253E-10  0.17130000000E+03  0.17130000000E+03 0. -1.
       11    1    1    2    0    0 -0.60858102411E-03 -0.93219772336E-03  0.15519391816E+00  0.15519875263E+00  0.51109989000E-03 0. -1.
     -623    1    1    2    0    0 -0.26176892243E-04  0.31126993469E-04  0.56978480974E-04  0.17130000000E+03  0.17130000000E+03 0. -1.
      622    1    1    2    0    0  0.63475791635E-03  0.90107072989E-03  0.38447490707E+01  0.38448012474E+01  0.20000000000E-01 0. -1.
</event>
<event>
 5   0  0.3603037E+08  0.9118800E+02  0.7818608E-02  0.1180000E+00
       11   -1    0    0    0    0  0.00000000000E+00  0.00000000000E+00  0.39999999673E+01  0.40000000000E+01  0.51109989000E-03 0.  1.
     -623   -1    0    0    0    0  0.00000000000E+00  0.00000000000E+00  0.12525980253E-10  0.17130000000E+03  0.17130000000E+03 0.  1.
       11    1    1    2    0    0  0.81702377310E-02  0.14621641202E-02  0.21794531929E+01  0.21794690573E+01  0.51109989000E-03 0.  1.
     -623    1    1    2    0    0  0.36549446546E-04 -0.15232332926E-02  0.14419998813E-03  0.17130000001E+03  0.17130000000E+03 0.  1.
      622    1    1    2    0    0 -0.82067871776E-02  0.61069172401E-04  0.18204025745E+01  0.18205309358E+01  0.20000000000E-01 0.  1.
</event>
<event>
 5   0  0.3603037E+08  0.9118800E+02  0.7818608E-02  0.1180000E+00
       11   -1    0    0    0    0  0.00000000000E+00  0.00000000000E+00  0.39999999673E+01  0.40000000000E+01  0.51109989000E-03 0. -1.
     -623   -1    0    0    0    0  0.00000000000E+00  0.00000000000E+00  0.12525980253E-10  0.17130000000E+03  0.17130000000E+03 0.  1.
       11    1    1    2    0    0  0.42814530936E-03 -0.15950424598E-03  0.12603165635E+00  0.12603352084E+00  0.51109989000E-03 0. -1.
     -623    1    1    2    0    0 -0.37173629860E-04  0.11026072299E-03  0.53478958211E-04  0.17130000000E+03  0.17130000000E+03 0.  1.
      622    1    1    2    0    0 -0.39097167950E-03  0.49243522985E-04  0.38739148321E+01  0.38739664791E+01  0.20000000000E-01 0. -1.
</event>
<event>
 5   0  0.3603037E+08  0.9118800E+02  0.7818608E-02  0.1180000E+00
       11   -1    0    0    0    0  0.00000000000E+00  0.00000000000E+00  0.39999999673E+01  0.40000000000E+01  0.51109989000E-03 0. -1.
     -623   -1    0    0    0    0  0.00000000000E+00  0.00000000000E+00  0.12525980253E-10  0.17130000000E+03  0.17130000000E+03 0. -1.
       11    1    1    2    0    0 -0.14839969498E-01 -0.83388451105E-03  0.93720782415E+00  0.93732581685E+00  0.51109989000E-03 0. -1.
     -623    1    1    2    0    0  0.10885283474E-02  0.23751119764E-02  0.21454390369E-03  0.17130000002E+03  0.17130000000E+03 0. -1.
      622    1    1    2    0    0  0.13751441151E-01 -0.15412274654E-02  0.30625775993E+01  0.30626741631E+01  0.20000000000E-01 0. -1.
</event>
<event>
 5   0  0.3603037E+08  0.9118800E+02  0.7818608E-02  0.1180000E+00
       11   -1    0    0    0    0  0.00000000000E+00  0.00000000000E+00  0.39999999673E+01  0.40000000000E+01  0.51109989000E-03 0.  1.
     -623   -1    0    0    0    0  0.00000000000E+00  0.00000000000E+00  0.12525980253E-10  0.17130000000E+03  0.17130000000E+03 0. -1.
       11    1    1    2    0    0 -0.38008468674E-02 -0.42480462246E-02  0.10564220467E+00  0.10579711226E+00  0.51109989000E-03 0.  1.
     -623    1    1    2    0    0 -0.26631676152E-02 -0.12365754836E-02  0.21548623707E-03  0.17130000003E+03  0.17130000000E+03 0. -1.
      622    1    1    2    0    0  0.64640144826E-02  0.54846217082E-02  0.38941422765E+01  0.38942028624E+01  0.20000000000E-01 0.  0.
</event>
<event>
 5   0  0.3603037E+08  0.9118800E+02  0.7818608E-02  0.1180000E+00
       11   -1    0    0    0    0  0.00000000000E+00  0.00000000000E+00  0.39999999673E+01  0.40000000000E+01  0.51109989000E-03 0. -1.
     -623   -1    0    0    0    0  0.00000000000E+00  0.00000000000E+00  0.12525980253E-10  0.17130000000E+03  0.17130000000E+03 0. -1.
       11    1    1    2    0    0  0.12243005436E-02  0.55079816175E-03  0.23720736434E+00  0.23721171390E+00  0.51109989000E-03 0. -1.
     -623    1    1    2    0    0 -0.77446979945E-03 -0.41497313276E-02  0.59269410950E-04  0.17130000005E+03  0.17130000000E+03 0. -1.
      622    1    1    2    0    0 -0.44983074413E-03  0.35989331659E-02  0.37627333336E+01  0.37627882341E+01  0.20000000000E-01 0. -1.
</event>
<event>
 5   0  0.3603037E+08  0.9118800E+02  0.7818608E-02  0.1180000E+00
       11   -1    0    0    0    0  0.00000000000E+00  0.00000000000E+00  0.39999999673E+01  0.40000000000E+01  0.51109989000E-03 0. -1.
     -623   -1    0    0    0    0  0.00000000000E+00  0.00000000000E+00  0.12525980253E-10  0.17130000000E+03  0.17130000000E+03 0. -1.
       11    1    1    2    0    0  0.97691986603E-02 -0.10709615819E-01  0.23328611283E+01  0.23329062215E+01  0.51109989000E-03 0. -1.
     -623    1    1    2    0    0 -0.68082817316E-03  0.31059654696E-02  0.20718072621E-03  0.17130000003E+03  0.17130000000E+03 0. -1.
      622    1    1    2    0    0 -0.90883704871E-02  0.76036503494E-02  0.16669316583E+01  0.16670937488E+01  0.20000000000E-01 0. -1.
</event>
<event>
 5   0  0.3603037E+08  0.9118800E+02  0.7818608E-02  0.1180000E+00
       11   -1    0    0    0    0  0.00000000000E+00  0.00000000000E+00  0.39999999673E+01  0.40000000000E+01  0.51109989000E-03 0.  1.
     -623   -1    0    0    0    0  0.00000000000E+00  0.00000000000E+00  0.12525980253E-10  0.17130000000E+03  0.17130000000E+03 0.  1.
       11    1    1    2    0    0 -0.32505581484E-01 -0.39242451048E-01  0.47785445340E+00  0.48056396312E+00  0.51109989000E-03 0.  1.
     -623    1    1    2    0    0  0.19589276653E-01  0.44039584275E-01  0.28000802836E-02  0.17130000680E+03  0.17130000000E+03 0.  1.
      622    1    1    2    0    0  0.12916304830E-01 -0.47971332278E-02  0.35193454337E+01  0.35194292328E+01  0.20000000000E-01 0.  1.
</event>
<event>
 5   0  0.3603037E+08  0.9118800E+02  0.7818608E-02  0.1180000E+00
       11   -1    0    0    0    0  0.00000000000E+00  0.00000000000E+00  0.39999999673E+01  0.40000000000E+01  0.51109989000E-03 0. -1.
     -623   -1    0    0    0    0  0.00000000000E+00  0.00000000000E+00  0.12525980253E-10  0.17130000000E+03  0.17130000000E+03 0. -1.
       11    1    1    2    0    0  0.33576541700E-03  0.34747030700E-02  0.19991932934E-01  0.20300859685E-01  0.51109989000E-03 0.  1.
     -623    1    1    2    0    0  0.23922858062E-03 -0.25516850462E-02  0.35931761123E-03  0.17130000002E+03  0.17130000000E+03 0. -1.
      622    1    1    2    0    0 -0.57499399761E-03 -0.92301802384E-03  0.39796487168E+01  0.39796991208E+01  0.20000000000E-01 0. -1.
</event>
<event>
 5   0  0.3603037E+08  0.9118800E+02  0.7818608E-02  0.1180000E+00
       11   -1    0    0    0    0  0.00000000000E+00  0.00000000000E+00  0.39999999673E+01  0.40000000000E+01  0.51109989000E-03 0. -1.
     -623   -1    0    0    0    0  0.00000000000E+00  0.00000000000E+00  0.12525980253E-10  0.17130000000E+03  0.17130000000E+03 0.  1.
       11    1    1    2    0    0  0.51596586596E-02 -0.66345472100E-02  0.19900548042E+00  0.19918353786E+00  0.51109989000E-03 0. -1.
     -623    1    1    2    0    0  0.39210709341E-03  0.22018333521E-02  0.23729979861E-03  0.17130000001E+03  0.17130000000E+03 0.  1.
      622    1    1    2    0    0 -0.55517657530E-02  0.44327138579E-02  0.38007571871E+01  0.38008164474E+01  0.20000000000E-01 0. -1.
</event>
<event>
 5   0  0.3603037E+08  0.9118800E+02  0.7818608E-02  0.1180000E+00
       11   -1    0    0    0    0  0.00000000000E+00  0.00000000000E+00  0.39999999673E+01  0.40000000000E+01  0.51109989000E-03 0.  1.
     -623   -1    0    0    0    0  0.00000000000E+00  0.00000000000E+00  0.12525980253E-10  0.17130000000E+03  0.17130000000E+03 0.  1.
       11    1    1    2    0    0  0.41067105925E-03 -0.71648285401E-03  0.15061667184E-01  0.15092946646E-01  0.51109989000E-03 0.  1.
     -623    1    1    2    0    0  0.17520594615E-03 -0.54755704299E-04  0.81554335367E-04  0.17130000000E+03  0.17130000000E+03 0.  1.
      622    1    1    2    0    0 -0.58587700540E-03  0.77123855831E-03  0.39848567458E+01  0.39849070532E+01  0.20000000000E-01 0.  1.
</event>
<event>
 5   0  0.3603037E+08  0.9118800E+02  0.7818608E-02  0.1180000E+00
       11   -1    0    0    0    0  0.00000000000E+00  0.00000000000E+00  0.39999999673E+01  0.40000000000E+01  0.51109989000E-03 0. -1.
     -623   -1    0    0    0    0  0.00000000000E+00  0.00000000000E+00  0.12525980253E-10  0.17130000000E+03  0.17130000000E+03 0. -1.
       11    1    1    2    0    0 -0.44020497842E-03 -0.11937591006E-02  0.55350880746E+00  0.55351050577E+00  0.51109989000E-03 0. -1.
     -623    1    1    2    0    0 -0.14097949855E-02 -0.96339252750E-03  0.60876361708E-04  0.17130000001E+03  0.17130000000E+03 0. -1.
      622    1    1    2    0    0  0.18499999639E-02  0.21571516281E-02  0.34464302835E+01  0.34464894857E+01  0.20000000000E-01 0. -1.
</event>
<event>
 5   0  0.3603037E+08  0.9118800E+02  0.7818608E-02  0.1180000E+00
       11   -1    0    0    0    0  0.00000000000E+00  0.00000000000E+00  0.39999999673E+01  0.40000000000E+01  0.51109989000E-03 0. -1.
     -623   -1    0    0    0    0  0.00000000000E+00  0.00000000000E+00  0.12525980253E-10  0.17130000000E+03  0.17130000000E+03 0. -1.
       11    1    1    2    0    0  0.15507859767E-02  0.27240739851E-02  0.16602573751E+00  0.16605611177E+00  0.51109989000E-03 0. -1.
     -623    1    1    2    0    0 -0.77481066396E-02  0.51276640039E-03  0.89058834847E-04  0.17130000018E+03  0.17130000000E+03 0. -1.
      622    1    1    2    0    0  0.61973206629E-02 -0.32368403855E-02  0.38338851710E+01  0.38339437122E+01  0.20000000000E-01 0. -1.
</event>
<event>
 5   0  0.3603037E+08  0.9118800E+02  0.7818608E-02  0.1180000E+00
       11   -1    0    0    0    0  0.00000000000E+00  0.00000000000E+00  0.39999999673E+01  0.40000000000E+01  0.51109989000E-03 0. -1.
     -623   -1    0    0    0    0  0.00000000000E+00  0.00000000000E+00  0.12525980253E-10  0.17130000000E+03  0.17130000000E+03 0.  1.
       11    1    1    2    0    0  0.46392117392E-03 -0.26032495004E-02  0.48278590639E+00  0.48279341831E+00  0.51109989000E-03 0. -1.
     -623    1    1    2    0    0  0.29300188160E-02 -0.55152527323E-03  0.67421398906E-04  0.17130000003E+03  0.17130000000E+03 0.  1.
      622    1    1    2    0    0 -0.33939399899E-02  0.31547747736E-02  0.35171466396E+01  0.35172065557E+01  0.20000000000E-01 0. -1.
</event>
<event>
 5   0  0.3603037E+08  0.9118800E+02  0.7818608E-02  0.1180000E+00
       11   -1    0    0    0    0  0.00000000000E+00  0.00000000000E+00  0.39999999673E+01  0.40000000000E+01  0.51109989000E-03 0. -1.
     -623   -1    0    0    0    0  0.00000000000E+00  0.00000000000E+00  0.12525980253E-10  0.17130000000E+03  0.17130000000E+03 0. -1.
       11    1    1    2    0    0 -0.48495317729E-03  0.65207798419E-02  0.69347574088E-01  0.69657038428E-01  0.51109989000E-03 0. -1.
     -623    1    1    2    0    0 -0.36767853915E-03 -0.47836833274E-03  0.36505689936E-03  0.17130000000E+03  0.17130000000E+03 0. -1.
      622    1    1    2    0    0  0.85263171644E-03 -0.60424115092E-02  0.39302873364E+01  0.39303429601E+01  0.20000000000E-01 0. -1.
</event>
<event>
 5   0  0.3603037E+08  0.9118800E+02  0.7818608E-02  0.1180000E+00
       11   -1    0    0    0    0  0.00000000000E+00  0.00000000000E+00  0.39999999673E+01  0.40000000000E+01  0.51109989000E-03 0. -1.
     -623   -1    0    0    0    0  0.00000000000E+00  0.00000000000E+00  0.12525980253E-10  0.17130000000E+03  0.17130000000E+03 0. -1.
       11    1    1    2    0    0  0.91997139002E-03  0.80142449806E-03  0.87104663317E-01  0.87114707259E-01  0.51109989000E-03 0. -1.
     -623    1    1    2    0    0  0.12625390289E-02 -0.53975774421E-03  0.61747759664E-04  0.17130000001E+03  0.17130000000E+03 0. -1.
      622    1    1    2    0    0 -0.21825104189E-02 -0.26166675385E-03  0.39128335563E+01  0.39128852872E+01  0.20000000000E-01 0. -1.
</event>
<event>
 5   0  0.3603037E+08  0.9118800E+02  0.7818608E-02  0.1180000E+00
       11   -1    0    0    0    0  0.00000000000E+00  0.00000000000E+00  0.39999999673E+01  0.40000000000E+01  0.51109989000E-03 0. -1.
     -623   -1    0    0    0    0  0.00000000000E+00  0.00000000000E+00  0.12525980253E-10  0.17130000000E+03  0.17130000000E+03 0. -1.
       11    1    1    2    0    0 -0.62767757183E-02  0.10038264363E-04  0.14051895212E+01  0.14052036328E+01  0.51109989000E-03 0. -1.
     -623    1    1    2    0    0  0.41621011953E-02 -0.97613891425E-02  0.11067153453E-03  0.17130000033E+03  0.17130000000E+03 0. -1.
      622    1    1    2    0    0  0.21146745230E-02  0.97513508782E-02  0.25946997746E+01  0.25947960385E+01  0.20000000000E-01 0. -1.
</event>
<event>
 5   0  0.3603037E+08  0.9118800E+02  0.7818608E-02  0.1180000E+00
       11   -1    0    0    0    0  0.00000000000E+00  0.00000000000E+00  0.39999999673E+01  0.40000000000E+01  0.51109989000E-03 0. -1.
     -623   -1    0    0    0    0  0.00000000000E+00  0.00000000000E+00  0.12525980253E-10  0.17130000000E+03  0.17130000000E+03 0. -1.
       11    1    1    2    0    0  0.89975529114E-03 -0.15157486935E-01  0.10747871547E+01  0.10748945289E+01  0.51109989000E-03 0. -1.
     -623    1    1    2    0    0 -0.11764574404E-02 -0.83639996645E-03  0.21946222051E-03  0.17130000001E+03  0.17130000000E+03 0. -1.
      622    1    1    2    0    0  0.27670214927E-03  0.15993886901E-01  0.29249933504E+01  0.29251054649E+01  0.20000000000E-01 0.  0.
</event>
<event>
 5   0  0.3603037E+08  0.9118800E+02  0.7818608E-02  0.1180000E+00
       11   -1    0    0    0    0  0.00000000000E+00  0.00000000000E+00  0.39999999673E+01  0.40000000000E+01  0.51109989000E-03 0. -1.
     -623   -1    0    0    0    0  0.00000000000E+00  0.00000000000E+00  0.12525980253E-10  0.17130000000E+03  0.17130000000E+03 0.  1.
       11    1    1    2    0    0  0.10622701948E-01  0.80594100932E-02  0.21689673467E+01  0.21690083928E+01  0.51109989000E-03 0. -1.
     -623    1    1    2    0    0 -0.64706546600E-03  0.37786933411E-02  0.21573906789E-03  0.17130000004E+03  0.17130000000E+03 0.  1.
      622    1    1    2    0    0 -0.99756364819E-02 -0.11838103434E-01  0.18308168816E+01  0.18309915642E+01  0.20000000000E-01 0.  0.
</event>
<event>
 5   0  0.3603037E+08  0.9118800E+02  0.7818608E-02  0.1180000E+00
       11   -1    0    0    0    0  0.00000000000E+00  0.00000000000E+00  0.39999999673E+01  0.40000000000E+01  0.51109989000E-03 0. -1.
     -623   -1    0    0    0    0  0.00000000000E+00  0.00000000000E+00  0.12525980253E-10  0.17130000000E+03  0.17130000000E+03 0. -1.
       11    1    1    2    0    0  0.51805530532E-03 -0.11503515521E-03  0.35485986176E-01  0.35493633943E-01  0.51109989000E-03 0. -1.
     -623    1    1    2    0    0  0.99269382253E-04  0.25067886498E-03  0.58113696065E-04  0.17130000000E+03  0.17130000000E+03 0. -1.
      622    1    1    2    0    0 -0.61732468758E-03 -0.13564370977E-03  0.39644558675E+01  0.39645063658E+01  0.20000000000E-01 0. -1.
</event>
<event>
 5   0  0.3603037E+08  0.9118800E+02  0.7818608E-02  0.1180000E+00
       11   -1    0    0    0    0  0.00000000000E+00  0.00000000000E+00  0.39999999673E+01  0.40000000000E+01  0.51109989000E-03 0.  1.
     -623   -1    0    0    0    0  0.00000000000E+00  0.00000000000E+00  0.12525980253E-10  0.17130000000E+03  0.17130000000E+03 0.  1.
       11    1    1    2    0    0  0.13062509561E-02  0.51121787316E-02  0.26058506519E-01  0.26592247884E-01  0.51109989000E-03 0. -1.
     -623    1    1    2    0    0 -0.10668438411E-02 -0.43429838509E-02  0.58418471059E-03  0.17130000006E+03  0.17130000000E+03 0.  1.
      622    1    1    2    0    0 -0.23940711497E-03 -0.76919488069E-03  0.39733572761E+01  0.39734076927E+01  0.20000000000E-01 0.  1.
</event>
<event>
 5   0  0.3603037E+08  0.9118800E+02  0.7818608E-02  0.1180000E+00
       11   -1    0    0    0    0  0.00000000000E+00  0.00000000000E+00  0.39999999673E+01  0.40000000000E+01  0.51109989000E-03 0. -1.
     -623   -1    0    0    0    0  0.00000000000E+00  0.00000000000E+00  0.12525980253E-10  0.17130000000E+03  0.17130000000E+03 0. -1.
       11    1    1    2    0    0  0.28893707922E-02  0.49840296444E-03  0.12180275141E+00  0.12183910842E+00  0.51109989000E-03 0. -1.
     -623    1    1    2    0    0  0.63486812343E-04 -0.13942128731E-03  0.89036435555E-04  0.17130000000E+03  0.17130000000E+03 0. -1.
      622    1    1    2    0    0 -0.29528576046E-02 -0.35898167713E-03  0.38781081795E+01  0.38781608915E+01  0.20000000000E-01 0. -1.
</event>
<event>
 5   0  0.3603037E+08  0.9118800E+02  0.7818608E-02  0.1180000E+00
       11   -1    0    0    0    0  0.00000000000E+00  0.00000000000E+00  0.39999999673E+01  0.40000000000E+01  0.51109989000E-03 0. -1.
     -623   -1    0    0    0    0  0.00000000000E+00  0.00000000000E+00  0.12525980253E-10  0.17130000000E+03  0.17130000000E+03 0. -1.
       11    1    1    2    0    0  0.16477523962E-02 -0.40973861884E-03  0.82373776081E-02  0.84260657693E-02  0.51109989000E-03 0. -1.
     -623    1    1    2    0    0 -0.12779360651E-03 -0.49016679353E-03  0.23915314104E-03  0.17130000000E+03  0.17130000000E+03 0. -1.
      622    1    1    2    0    0 -0.15199587897E-02  0.89990541237E-03  0.39915234366E+01  0.39915739333E+01  0.20000000000E-01 0. -1.
</event>
<event>
 5   0  0.3603037E+08  0.9118800E+02  0.7818608E-02  0.1180000E+00
       11   -1    0    0    0    0  0.00000000000E+00  0.00000000000E+00  0.39999999673E+01  0.40000000000E+01  0.51109989000E-03 0. -1.
     -623   -1    0    0    0    0  0.00000000000E+00  0.00000000000E+00  0.12525980253E-10  0.17130000000E+03  0.17130000000E+03 0. -1.
       11    1    1    2    0    0  0.49200932992E-04  0.40275440854E-02  0.30578263216E+00  0.30580958599E+00  0.51109989000E-03 0. -1.
     -623    1    1    2    0    0 -0.81148010229E-04 -0.48499906161E-04  0.83203797568E-04  0.17130000000E+03  0.17130000000E+03 0. -1.
      622    1    1    2    0    0  0.31947077237E-04 -0.39790441792E-02  0.36941341314E+01  0.36941904140E+01  0.20000000000E-01 0.  0.
</event>
<event>
 5   0  0.3603037E+08  0.9118800E+02  0.7818608E-02  0.1180000E+00
       11   -1    0    0    0    0  0.00000000000E+00  0.00000000000E+00  0.39999999673E+01  0.40000000000E+01  0.51109989000E-03 0.  1.
     -623   -1    0    0    0    0  0.00000000000E+00  0.00000000000E+00  0.12525980253E-10  0.17130000000E+03  0.17130000000E+03 0.  1.
       11    1    1    2    0    0 -0.73117055769E-04 -0.10719664429E-03  0.29797617778E-01  0.29802283206E-01  0.51109989000E-03 0.  1.
     -623    1    1    2    0    0 -0.68120997480E-05 -0.18429551708E-03  0.55020046435E-04  0.17130000000E+03  0.17130000000E+03 0.  1.
      622    1    1    2    0    0  0.79929155517E-04  0.29149216137E-03  0.39701473295E+01  0.39701977167E+01  0.20000000000E-01 0.  1.
</event>
<event>
 5   0  0.3603037E+08  0.9118800E+02  0.7818608E-02  0.1180000E+00
       11   -1    0    0    0    0  0.00000000000E+00  0.00000000000E+00  0.39999999673E+01  0.40000000000E+01  0.51109989000E-03 0.  1.
     -623   -1    0    0    0    0  0.00000000000E+00  0.00000000000E+00  0.12525980253E-10  0.17130000000E+03  0.17130000000E+03 0.  1.
       11    1    1    2    0    0 -0.67765657414E-03  0.37307806824E-03  0.96390823722E-02  0.96835704550E-02  0.51109989000E-03 0.  1.
     -623    1    1    2    0    0  0.69872952632E-04  0.72497121622E-03  0.94776039729E-04  0.17130000000E+03  0.17130000000E+03 0.  1.
      622    1    1    2    0    0  0.60778362151E-03 -0.10980492845E-02  0.39902661089E+01  0.39903164280E+01  0.20000000000E-01 0.  1.
</event>
<event>
 5   0  0.3603037E+08  0.9118800E+02  0.7818608E-02  0.1180000E+00
       11   -1    0    0    0    0  0.00000000000E+00  0.00000000000E+00  0.39999999673E+01  0.40000000000E+01  0.51109989000E-03 0.  1.
     -623   -1    0    0    0    0  0.00000000000E+00  0.00000000000E+00  0.12525980253E-10  0.17130000000E+03  0.17130000000E+03 0.  1.
       11    1    1    2    0    0 -0.30133009306E-01 -0.90094748388E-02  0.81351567402E+00  0.81412356678E+00  0.51109989000E-03 0.  1.
     -623    1    1    2    0    0  0.49973424006E-02 -0.28653954343E-02  0.79202875569E-03  0.17130000010E+03  0.17130000000E+03 0.  1.
      622    1    1    2    0    0  0.25135666905E-01  0.11874870273E-01  0.31856922646E+01  0.31858763345E+01  0.20000000000E-01 0.  1.
</event>
<event>
 5   0  0.3603037E+08  0.9118800E+02  0.7818608E-02  0.1180000E+00
       11   -1    0    0    0    0  0.00000000000E+00  0.00000000000E+00  0.39999999673E+01  0.40000000000E+01  0.51109989000E-03 0.  1.
     -623   -1    0    0    0    0  0.00000000000E+00  0.00000000000E+00  0.12525980253E-10  0.17130000000E+03  0.17130000000E+03 0. -1.
       11    1    1    2    0    0 -0.31538708393E-02 -0.38794871150E-02  0.29472077589E-01  0.29897523330E-01  0.51109989000E-03 0.  1.
     -623    1    1    2    0    0  0.16521096041E-02 -0.16986463268E-02  0.48000984242E-03  0.17130000002E+03  0.17130000000E+03 0. -1.
      622    1    1    2    0    0  0.15017612352E-02  0.55781334418E-02  0.39700478799E+01  0.39701024596E+01  0.20000000000E-01 0.  1.
</event>
<event>
 5   0  0.3603037E+08  0.9118800E+02  0.7818608E-02  0.1180000E+00
       11   -1    0    0    0    0  0.00000000000E+00  0.00000000000E+00  0.39999999673E+01  0.40000000000E+01  0.51109989000E-03 0. -1.
     -623   -1    0    0    0    0  0.00000000000E+00  0.00000000000E+00  0.12525980253E-10  0.17130000000E+03  0.17130000000E+03 0. -1.
       11    1    1    2    0    0 -0.12084528689E-01  0.15331273490E-02  0.39330596699E+00  0.39349489349E+00  0.51109989000E-03 0. -1.
     -623    1    1    2    0    0 -0.19496203280E-03  0.43056378713E-02  0.27003561607E-03  0.17130000005E+03  0.17130000000E+03 0. -1.
      622    1    1    2    0    0  0.12279490722E-01 -0.58387652202E-02  0.36064239648E+01  0.36065050521E+01  0.20000000000E-01 0. -1.
</event>
<event>
 5   0  0.3603037E+08  0.9118800E+02  0.7818608E-02  0.1180000E+00
       11   -1    0    0    0    0  0.00000000000E+00  0.00000000000E+00  0.39999999673E+01  0.40000000000E+01  0.51109989000E-03 0. -1.
     -623   -1    0    0    0    0  0.00000000000E+00  0.00000000000E+00  0.12525980253E-10  0.17130000000E+03  0.17130000000E+03 0. -1.
       11    1    1    2    0    0  0.11725285609E-02  0.42129531129E-02  0.23396059455E+00  0.23400201884E+00  0.51109989000E-03 0. -1.
     -623    1    1    2    0    0 -0.82379170704E-02 -0.19246706515E-02  0.10203072214E-03  0.17130000021E+03  0.17130000000E+03 0. -1.
      622    1    1    2    0    0  0.70653885095E-02 -0.22882824613E-02  0.37659373421E+01  0.37659977722E+01  0.20000000000E-01 0. -1.
</event>
<event>
 5   0  0.3603037E+08  0.9118800E+02  0.7818608E-02  0.1180000E+00
       11   -1    0    0    0    0  0.00000000000E+00  0.00000000000E+00  0.39999999673E+01  0.40000000000E+01  0.51109989000E-03 0. -1.
     -623   -1    0    0    0    0  0.00000000000E+00  0.00000000000E+00  0.12525980253E-10  0.17130000000E+03  0.17130000000E+03 0.  1.
       11    1    1    2    0    0  0.35833397255E-02  0.56010904751E-04  0.88453192738E+00  0.88453933504E+00  0.51109989000E-03 0. -1.
     -623    1    1    2    0    0  0.10033868726E-02  0.14012905331E-02  0.75297645979E-04  0.17130000001E+03  0.17130000000E+03 0.  1.
      622    1    1    2    0    0 -0.45867265981E-02 -0.14573014378E-02  0.31153927423E+01  0.31154606563E+01  0.20000000000E-01 0. -1.
</event>
<event>
 5   0  0.3603037E+08  0.9118800E+02  0.7818608E-02  0.1180000E+00
       11   -1    0    0    0    0  0.00000000000E+00  0.00000000000E+00  0.39999999673E+01  0.40000000000E+01  0.51109989000E-03 0.  1.
     -623   -1    0    0    0    0  0.00000000000E+00  0.00000000000E+00  0.12525980253E-10  0.17130000000E+03  0.17130000000E+03 0.  1.
       11    1    1    2    0    0  0.50523190053E-02  0.50121094864E-03  0.11168046430E+00  0.11179697880E+00  0.51109989000E-03 0.  1.
     -623    1    1    2    0    0 -0.58377398846E-04  0.10758158964E-02  0.17145024486E-03  0.17130000000E+03  0.17130000000E+03 0.  1.
      622    1    1    2    0    0 -0.49939416064E-02 -0.15770268450E-02  0.38881480528E+01  0.38882030177E+01  0.20000000000E-01 0.  1.
</event>
<event>
 5   0  0.3603037E+08  0.9118800E+02  0.7818608E-02  0.1180000E+00
       11   -1    0    0    0    0  0.00000000000E+00  0.00000000000E+00  0.39999999673E+01  0.40000000000E+01  0.51109989000E-03 0.  1.
     -623   -1    0    0    0    0  0.00000000000E+00  0.00000000000E+00  0.12525980253E-10  0.17130000000E+03  0.17130000000E+03 0. -1.
       11    1    1    2    0    0 -0.76413380180E-02 -0.44696228427E-02  0.45837460112E+00  0.45846036224E+00  0.51109989000E-03 0.  1.
     -623    1    1    2    0    0 -0.47979678293E-02  0.44410096188E-03  0.16640360075E-03  0.17130000007E+03  0.17130000000E+03 0. -1.
      622    1    1    2    0    0  0.12439305847E-01  0.40255218809E-02  0.35414589626E+01  0.35415395699E+01  0.20000000000E-01 0.  1.
</event>
<event>
 5   0  0.3603037E+08  0.9118800E+02  0.7818608E-02  0.1180000E+00
       11   -1    0    0    0    0  0.00000000000E+00  0.00000000000E+00  0.39999999673E+01  0.40000000000E+01  0.51109989000E-03 0.  1.
     -623   -1    0    0    0    0  0.00000000000E+00  0.00000000000E+00  0.12525980253E-10  0.17130000000E+03  0.17130000000E+03 0. -1.
       11    1    1    2    0    0 -0.12163273756E-02  0.19390181967E-02  0.10452618160E-01  0.10712501620E-01  0.51109989000E-03 0.  1.
     -623    1    1    2    0    0  0.13036684740E-02 -0.40138985078E-03  0.31028840341E-03  0.17130000001E+03  0.17130000000E+03 0. -1.
      622    1    1    2    0    0 -0.87341098404E-04 -0.15376283460E-02  0.39892370608E+01  0.39892874927E+01  0.20000000000E-01 0.  1.
</event>
<event>
 5   0  0.3603037E+08  0.9118800E+02  0.7818608E-02  0.1180000E+00
       11   -1    0    0    0    0  0.00000000000E+00  0.00000000000E+00  0.39999999673E+01  0.40000000000E+01  0.51109989000E-03 0.  1.
     -623   -1    0    0    0    0  0.00000000000E+00  0.00000000000E+00  0.12525980253E-10  0.17130000000E+03  0.17130000000E+03 0. -1.
       11    1    1    2    0    0 -0.61050432315E-02 -0.13658363433E-01  0.30777264524E+01  0.30777628563E+01  0.51109989000E-03 0.  1.
     -623    1    1    2    0    0  0.89477651844E-03  0.15141694092E-02  0.34797369765E-03  0.17130000001E+03  0.17130000000E+03 0. -1.
      622    1    1    2    0    0  0.52102667131E-02  0.12144194024E-01  0.92192554127E+00  0.92223713435E+00  0.20000000000E-01 0.  0.
</event>
<event>
 5   0  0.3603037E+08  0.9118800E+02  0.7818608E-02  0.1180000E+00
       11   -1    0    0    0    0  0.00000000000E+00  0.00000000000E+00  0.39999999673E+01  0.40000000000E+01  0.51109989000E-03 0.  1.
     -623   -1    0    0    0    0  0.00000000000E+00  0.00000000000E+00  0.12525980253E-10  0.17130000000E+03  0.17130000000E+03 0. -1.
       11    1    1    2    0    0 -0.10884021539E-02  0.79449973715E-03  0.24093460323E-01  0.24136526289E-01  0.51109989000E-03 0.  1.
     -623    1    1    2    0    0  0.44735974780E-03 -0.10546041925E-02  0.93401226156E-04  0.17130000000E+03  0.17130000000E+03 0. -1.
      622    1    1    2    0    0  0.64104240610E-03  0.26010445532E-03  0.39758131058E+01  0.39758634699E+01  0.20000000000E-01 0.  1.
</event>
<event>
 5   0  0.3603037E+08  0.9118800E+02  0.7818608E-02  0.1180000E+00
       11   -1    0    0    0    0  0.00000000000E+00  0.00000000000E+00  0.39999999673E+01  0.40000000000E+01  0.51109989000E-03 0. -1.
     -623   -1    0    0    0    0  0.00000000000E+00  0.00000000000E+00  0.12525980253E-10  0.17130000000E+03  0.17130000000E+03 0.  1.
       11    1    1    2    0    0 -0.74484532597E-01  0.71490778966E-02  0.15494333181E+01  0.15512391574E+01  0.51109989000E-03 0. -1.
     -623    1    1    2    0    0  0.58337146555E-01  0.20800061161E-01  0.21114477059E-02  0.17130001121E+03  0.17130000000E+03 0.  1.
      622    1    1    2    0    0  0.16147386042E-01 -0.27949139057E-01  0.24484552015E+01  0.24487496332E+01  0.20000000000E-01 0. -1.
</event>
<event>
 5   0  0.3603037E+08  0.9118800E+02  0.7818608E-02  0.1180000E+00
       11   -1    0    0    0    0  0.00000000000E+00  0.00000000000E+00  0.39999999673E+01  0.40000000000E+01  0.51109989000E-03 0.  1.
     -623   -1    0    0    0    0  0.00000000000E+00  0.00000000000E+00  0.12525980253E-10  0.17130000000E+03  0.17130000000E+03 0. -1.
       11    1    1    2    0    0 -0.80342500184E-02  0.27873883126E-02  0.32441686056E+01  0.32441797918E+01  0.51109989000E-03 0.  1.
     -623    1    1    2    0    0  0.12892225748E-02 -0.81368450021E-02  0.32505793405E-03  0.17130000020E+03  0.17130000000E+03 0. -1.
      622    1    1    2    0    0  0.67450274436E-02  0.53494566896E-02  0.75550630380E+00  0.75582000977E+00  0.20000000000E-01 0.  1.
</event>
<event>
 5   0  0.3603037E+08  0.9118800E+02  0.7818608E-02  0.1180000E+00
       11   -1    0    0    0    0  0.00000000000E+00  0.00000000000E+00  0.39999999673E+01  0.40000000000E+01  0.51109989000E-03 0.  1.
     -623   -1    0    0    0    0  0.00000000000E+00  0.00000000000E+00  0.12525980253E-10  0.17130000000E+03  0.17130000000E+03 0.  1.
       11    1    1    2    0    0 -0.25425887803E-02 -0.17385997053E-02  0.43132972878E+00  0.43134102939E+00  0.51109989000E-03 0.  1.
     -623    1    1    2    0    0 -0.57293134803E-03  0.53356893498E-03  0.68877112041E-04  0.17130000000E+03  0.17130000000E+03 0.  1.
      622    1    1    2    0    0  0.31155201284E-02  0.12050307703E-02  0.35686013615E+01  0.35686589688E+01  0.20000000000E-01 0.  1.
</event>
<event>
 5   0  0.3603037E+08  0.9118800E+02  0.7818608E-02  0.1180000E+00
       11   -1    0    0    0    0  0.00000000000E+00  0.00000000000E+00  0.39999999673E+01  0.40000000000E+01  0.51109989000E-03 0.  1.
     -623   -1    0    0    0    0  0.00000000000E+00  0.00000000000E+00  0.12525980253E-10  0.17130000000E+03  0.17130000000E+03 0.  1.
       11    1    1    2    0    0 -0.79776091814E-04  0.43865599799E-02  0.63889700595E-01  0.64042199660E-01  0.51109989000E-03 0.  1.
     -623    1    1    2    0    0  0.26257195287E-03 -0.18339293011E-03  0.20552926155E-03  0.17130000000E+03  0.17130000000E+03 0.  1.
      622    1    1    2    0    0 -0.18279586106E-03 -0.42031670498E-02  0.39359047375E+01  0.39359577999E+01  0.20000000000E-01 0.  1.
</event>
<event>
 5   0  0.3603037E+08  0.9118800E+02  0.7818608E-02  0.1180000E+00
       11   -1    0    0    0    0  0.00000000000E+00  0.00000000000E+00  0.39999999673E+01  0.40000000000E+01  0.51109989000E-03 0. -1.
     -623   -1    0    0    0    0  0.00000000000E+00  0.00000000000E+00  0.12525980253E-10  0.17130000000E+03  0.17130000000E+03 0. -1.
       11    1    1    2    0    0 -0.13561490391E-02 -0.39768986472E-03  0.56496071342E+00  0.56496271225E+00  0.51109989000E-03 0. -1.
     -623    1    1    2    0    0 -0.19322809924E-03  0.21874743952E-04  0.60560318766E-04  0.17130000000E+03  0.17130000000E+03 0. -1.
      622    1    1    2    0    0  0.15493771383E-02  0.37581512077E-03  0.34349786936E+01  0.34350372876E+01  0.20000000000E-01 0. -1.
</event>
<event>
 5   0  0.3603037E+08  0.9118800E+02  0.7818608E-02  0.1180000E+00
       11   -1    0    0    0    0  0.00000000000E+00  0.00000000000E+00  0.39999999673E+01  0.40000000000E+01  0.51109989000E-03 0. -1.
     -623   -1    0    0    0    0  0.00000000000E+00  0.00000000000E+00  0.12525980253E-10  0.17130000000E+03  0.17130000000E+03 0.  1.
       11    1    1    2    0    0  0.41669663270E-03 -0.68248492462E-03  0.89456995932E+00  0.89457046271E+00  0.51109989000E-03 0. -1.
     -623    1    1    2    0    0  0.12285255858E-02  0.24238828303E-02  0.65820400513E-04  0.17130000002E+03  0.17130000000E+03 0.  1.
      622    1    1    2    0    0 -0.16452222185E-02 -0.17413979057E-02  0.31053641876E+01  0.31054295157E+01  0.20000000000E-01 0. -1.
</event>
<event>
 5   0  0.3603037E+08  0.9118800E+02  0.7818608E-02  0.1180000E+00
       11   -1    0    0    0    0  0.00000000000E+00  0.00000000000E+00  0.39999999673E+01  0.40000000000E+01  0.51109989000E-03 0.  1.
     -623   -1    0    0    0    0  0.00000000000E+00  0.00000000000E+00  0.12525980253E-10  0.17130000000E+03  0.17130000000E+03 0.  1.
       11    1    1    2    0    0  0.21656043707E-02 -0.11264445612E-02  0.21046056637E+00  0.21047534283E+00  0.51109989000E-03 0.  1.
     -623    1    1    2    0    0  0.62305541368E-03 -0.16875030032E-02  0.69601572762E-04  0.17130000001E+03  0.17130000000E+03 0.  1.
      622    1    1    2    0    0 -0.27886597844E-02  0.28139475644E-02  0.37894697994E+01  0.37895246477E+01  0.20000000000E-01 0.  1.
</event>
<event>
 5   0  0.3603037E+08  0.9118800E+02  0.7818608E-02  0.1180000E+00
       11   -1    0    0    0    0  0.00000000000E+00  0.00000000000E+00  0.39999999673E+01  0.40000000000E+01  0.51109989000E-03 0. -1.
     -623   -1    0    0    0    0  0.00000000000E+00  0.00000000000E+00  0.12525980253E-10  0.17130000000E+03  0.17130000000E+03 0. -1.
       11    1    1    2    0    0  0.13271452938E-02 -0.52486738959E-02  0.23910722004E+01  0.23910783840E+01  0.51109989000E-03 0. -1.
     -623    1    1    2    0    0 -0.15421579259E-02  0.83596887284E-03  0.13653780091E-03  0.17130000001E+03  0.17130000000E+03 0. -1.
      622    1    1    2    0    0  0.21501263212E-03  0.44127050230E-02  0.16087912292E+01  0.16089216069E+01  0.20000000000E-01 0. -1.
</event>
<event>
 5   0  0.3603037E+08  0.9118800E+02  0.7818608E-02  0.1180000E+00
       11   -1    0    0    0    0  0.00000000000E+00  0.00000000000E+00  0.39999999673E+01  0.40000000000E+01  0.51109989000E-03 0. -1.
     -623   -1    0    0    0    0  0.00000000000E+00  0.00000000000E+00  0.12525980253E-10  0.17130000000E+03  0.17130000000E+03 0. -1.
       11    1    1    2    0    0  0.12660390933E-02  0.12261586811E-01  0.15894299337E+01  0.15894778151E+01  0.51109989000E-03 0. -1.
     -623    1    1    2    0    0 -0.24581835346E-01 -0.84618438631E-02  0.24855556029E-03  0.17130000197E+03  0.17130000000E+03 0. -1.
      622    1    1    2    0    0  0.23315796252E-01 -0.37997429483E-02  0.24103214781E+01  0.24105202120E+01  0.20000000000E-01 0. -1.
</event>
<event>
 5   0  0.3603037E+08  0.9118800E+02  0.7818608E-02  0.1180000E+00
       11   -1    0    0    0    0  0.00000000000E+00  0.00000000000E+00  0.39999999673E+01  0.40000000000E+01  0.51109989000E-03 0. -1.
     -623   -1    0    0    0    0  0.00000000000E+00  0.00000000000E+00  0.12525980253E-10  0.17130000000E+03  0.17130000000E+03 0. -1.
       11    1    1    2    0    0 -0.26733556543E-01 -0.20669020625E-02  0.51886786904E+00  0.51956046989E+00  0.51109989000E-03 0. -1.
     -623    1    1    2    0    0  0.18042526476E-01 -0.21941529010E-04  0.76246284313E-03  0.17130000095E+03  0.17130000000E+03 0. -1.
      622    1    1    2    0    0  0.86910300665E-02  0.20888435915E-02  0.34803696355E+01  0.34804385782E+01  0.20000000000E-01 0. -1.
</event>
<event>
 5   0  0.3603037E+08  0.9118800E+02  0.7818608E-02  0.1180000E+00
       11   -1    0    0    0    0  0.00000000000E+00  0.00000000000E+00  0.39999999673E+01  0.40000000000E+01  0.51109989000E-03 0.  1.
     -623   -1    0    0    0    0  0.00000000000E+00  0.00000000000E+00  0.12525980253E-10  0.17130000000E+03  0.17130000000E+03 0.  1.
       11    1    1    2    0    0 -0.30565946540E-02 -0.56236617495E-02  0.63022795708E+00  0.63026066627E+00  0.51109989000E-03 0.  1.
     -623    1    1    2    0    0  0.16879225554E-02 -0.85530989267E-03  0.98545935369E-04  0.17130000001E+03  0.17130000000E+03 0.  1.
      622    1    1    2    0    0  0.13686720986E-02  0.64789716421E-02  0.33696734643E+01  0.33697393233E+01  0.20000000000E-01 0.  1.
</event>
<event>
 5   0  0.3603037E+08  0.9118800E+02  0.7818608E-02  0.1180000E+00
       11   -1    0    0    0    0  0.00000000000E+00  0.00000000000E+00  0.39999999673E+01  0.40000000000E+01  0.51109989000E-03 0.  1.
     -623   -1    0    0    0    0  0.00000000000E+00  0.00000000000E+00  0.12525980253E-10  0.17130000000E+03  0.17130000000E+03 0. -1.
       11    1    1    2    0    0  0.43846521995E-03 -0.60087406986E-03  0.75220929490E-01  0.75226343493E-01  0.51109989000E-03 0. -1.
     -623    1    1    2    0    0 -0.15499355938E-02 -0.94096165111E-03  0.56809891607E-04  0.17130000001E+03  0.17130000000E+03 0. -1.
      622    1    1    2    0    0  0.11114703738E-02  0.15418357210E-02  0.39247222280E+01  0.39247736469E+01  0.20000000000E-01 0.  1.
</event>
<event>
 5   0  0.3603037E+08  0.9118800E+02  0.7818608E-02  0.1180000E+00
       11   -1    0    0    0    0  0.00000000000E+00  0.00000000000E+00  0.39999999673E+01  0.40000000000E+01  0.51109989000E-03 0. -1.
     -623   -1    0    0    0    0  0.00000000000E+00  0.00000000000E+00  0.12525980253E-10  0.17130000000E+03  0.17130000000E+03 0. -1.
       11    1    1    2    0    0  0.48639911843E-02  0.74815371300E-03  0.49082118988E-01  0.49330860224E-01  0.51109989000E-03 0. -1.
     -623    1    1    2    0    0 -0.50419921135E-03 -0.16275871143E-03  0.30178338537E-03  0.17130000000E+03  0.17130000000E+03 0. -1.
      622    1    1    2    0    0 -0.43597919729E-02 -0.58539500156E-03  0.39506160650E+01  0.39506691387E+01  0.20000000000E-01 0. -1.
</event>
<event>
 5   0  0.3603037E+08  0.9118800E+02  0.7818608E-02  0.1180000E+00
       11   -1    0    0    0    0  0.00000000000E+00  0.00000000000E+00  0.39999999673E+01  0.40000000000E+01  0.51109989000E-03 0.  1.
     -623   -1    0    0    0    0  0.00000000000E+00  0.00000000000E+00  0.12525980253E-10  0.17130000000E+03  0.17130000000E+03 0. -1.
       11    1    1    2    0    0 -0.53904498219E-02  0.43607451468E-02  0.15233417198E+00  0.15249273498E+00  0.51109989000E-03 0.  1.
     -623    1    1    2    0    0  0.51810208926E-02 -0.90533993986E-03  0.21215064587E-03  0.17130000008E+03  0.17130000000E+03 0. -1.
      622    1    1    2    0    0  0.20942892924E-03 -0.34554052070E-02  0.38474536447E+01  0.38475071841E+01  0.20000000000E-01 0.  1.
</event>
<event>
 5   0  0.3603037E+08  0.9118800E+02  0.7818608E-02  0.1180000E+00
       11   -1    0    0    0    0  0.00000000000E+00  0.00000000000E+00  0.39999999673E+01  0.40000000000E+01  0.51109989000E-03 0.  1.
     -623   -1    0    0    0    0  0.00000000000E+00  0.00000000000E+00  0.12525980253E-10  0.17130000000E+03  0.17130000000E+03 0. -1.
       11    1    1    2    0    0  0.34164981282E-02 -0.16417631298E-02  0.69247957828E+00  0.69249014101E+00  0.51109989000E-03 0.  1.
     -623    1    1    2    0    0  0.62885288103E-03 -0.18853991409E-02  0.75365324112E-04  0.17130000001E+03  0.17130000000E+03 0. -1.
      622    1    1    2    0    0 -0.40453510092E-02  0.35271622707E-02  0.33074450238E+01  0.33075098474E+01  0.20000000000E-01 0.  1.
</event>
<event>
 5   0  0.3603037E+08  0.9118800E+02  0.7818608E-02  0.1180000E+00
       11   -1    0    0    0    0  0.00000000000E+00  0.00000000000E+00  0.39999999673E+01  0.40000000000E+01  0.51109989000E-03 0. -1.
     -623   -1    0    0    0    0  0.00000000000E+00  0.00000000000E+00  0.12525980253E-10  0.17130000000E+03  0.17130000000E+03 0. -1.
       11    1    1    2    0    0 -0.21714695974E-02 -0.22427538684E-02  0.11176957963E+01  0.11177002726E+01  0.51109989000E-03 0. -1.
     -623    1    1    2    0    0  0.25749943682E-03 -0.59285216443E-03  0.75865194455E-04  0.17130000000E+03  0.17130000000E+03 0. -1.
      622    1    1    2    0    0  0.19139701605E-02  0.28356060328E-02  0.28822283059E+01  0.28822997261E+01  0.20000000000E-01 0. -1.
</event>
<event>
 5   0  0.3603037E+08  0.9118800E+02  0.7818608E-02  0.1180000E+00
       11   -1    0    0    0    0  0.00000000000E+00  0.00000000000E+00  0.39999999673E+01  0.40000000000E+01  0.51109989000E-03 0.  1.
     -623   -1    0    0    0    0  0.00000000000E+00  0.00000000000E+00  0.12525980253E-10  0.17130000000E+03  0.17130000000E+03 0.  1.
       11    1    1    2    0    0 -0.21301422296E-02  0.95778502043E-03  0.35292385913E-01  0.35373274986E-01  0.51109989000E-03 0.  1.
     -623    1    1    2    0    0  0.42910935875E-03  0.43143064595E-03  0.13191231292E-03  0.17130000000E+03  0.17130000000E+03 0.  1.
      622    1    1    2    0    0  0.17010328708E-02 -0.13892156664E-02  0.39645756691E+01  0.39646267239E+01  0.20000000000E-01 0.  1.
</event>
<event>
 5   0  0.3603037E+08  0.9118800E+02  0.7818608E-02  0.1180000E+00
       11   -1    0    0    0    0  0.00000000000E+00  0.00000000000E+00  0.39999999673E+01  0.40000000000E+01  0.51109989000E-03 0.  1.
     -623   -1    0    0    0    0  0.00000000000E+00  0.00000000000E+00  0.12525980253E-10  0.17130000000E+03  0.17130000000E+03 0. -1.
       11    1    1    2    0    0 -0.14128669542E-03 -0.38172218014E-04  0.56441242511E-01  0.56443746316E-01  0.51109989000E-03 0.  1.
     -623    1    1    2    0    0 -0.41320096441E-04 -0.61576065530E-04  0.53192649331E-04  0.17130000000E+03  0.17130000000E+03 0. -1.
      622    1    1    2    0    0  0.18260679187E-03  0.99748283545E-04  0.39435055322E+01  0.39435562537E+01  0.20000000000E-01 0.  1.
</event>
<event>
 5   0  0.3603037E+08  0.9118800E+02  0.7818608E-02  0.1180000E+00
       11   -1    0    0    0    0  0.00000000000E+00  0.00000000000E+00  0.39999999673E+01  0.40000000000E+01  0.51109989000E-03 0. -1.
     -623   -1    0    0    0    0  0.00000000000E+00  0.00000000000E+00  0.12525980253E-10  0.17130000000E+03  0.17130000000E+03 0.  1.
       11    1    1    2    0    0 -0.20017767633E-01  0.88161551715E-02  0.11118122023E+01  0.11120274592E+01  0.51109989000E-03 0. -1.
     -623    1    1    2    0    0  0.52641005373E-03 -0.95969015142E-03  0.36094598883E-03  0.17130000000E+03  0.17130000000E+03 0.  1.
      622    1    1    2    0    0  0.19491357579E-01 -0.78564650201E-02  0.28878268191E+01  0.28879725369E+01  0.20000000000E-01 0. -1.
</event>
<event>
 5   0  0.3603037E+08  0.9118800E+02  0.7818608E-02  0.1180000E+00
       11   -1    0    0    0    0  0.00000000000E+00  0.00000000000E+00  0.39999999673E+01  0.40000000000E+01  0.51109989000E-03 0. -1.
     -623   -1    0    0    0    0  0.00000000000E+00  0.00000000000E+00  0.12525980253E-10  0.17130000000E+03  0.17130000000E+03 0.  1.
       11    1    1    2    0    0  0.69012105580E-02 -0.40888791826E-02  0.49759832734E+00  0.49766324180E+00  0.51109989000E-03 0. -1.
     -623    1    1    2    0    0  0.23139989323E-02  0.78910170901E-03  0.13568257443E-03  0.17130000002E+03  0.17130000000E+03 0.  1.
      622    1    1    2    0    0 -0.92152094903E-02  0.32997774735E-02  0.35022659574E+01  0.35023367407E+01  0.20000000000E-01 0.  0.
</event>
<event>
 5   0  0.3603037E+08  0.9118800E+02  0.7818608E-02  0.1180000E+00
       11   -1    0    0    0    0  0.00000000000E+00  0.00000000000E+00  0.39999999673E+01  0.40000000000E+01  0.51109989000E-03 0.  1.
     -623   -1    0    0    0    0  0.00000000000E+00  0.00000000000E+00  0.12525980253E-10  0.17130000000E+03  0.17130000000E+03 0. -1.
       11    1    1    2    0    0 -0.10733076079E-02 -0.12327557402E-02  0.73561318034E-01  0.73581250387E-01  0.51109989000E-03 0.  1.
     -623    1    1    2    0    0  0.40908539590E-02  0.63886288689E-02  0.75549783127E-04  0.17130000017E+03  0.17130000000E+03 0. -1.
      622    1    1    2    0    0 -0.30175463511E-02 -0.51558731287E-02  0.39263630995E+01  0.39264185816E+01  0.20000000000E-01 0.  1.
</event>
<event>
 5   0  0.3603037E+08  0.9118800E+02  0.7818608E-02  0.1180000E+00
       11   -1    0    0    0    0  0.00000000000E+00  0.00000000000E+00  0.39999999673E+01  0.40000000000E+01  0.51109989000E-03 0. -1.
     -623   -1    0    0    0    0  0.00000000000E+00  0.00000000000E+00  0.12525980253E-10  0.17130000000E+03  0.17130000000E+03 0. -1.
       11    1    1    2    0    0 -0.46505676902E-02 -0.10052364014E-01  0.33815346515E+01  0.33815528294E+01  0.51109989000E-03 0. -1.
     -623    1    1    2    0    0  0.17631107296E-02  0.30220860041E-02  0.38838228981E-03  0.17130000004E+03  0.17130000000E+03 0. -1.
      622    1    1    2    0    0  0.28874569606E-02  0.70302780102E-02  0.61807693357E+00  0.61844713439E+00  0.20000000000E-01 0.  1.
</event>
<event>
 5   0  0.3603037E+08  0.9118800E+02  0.7818608E-02  0.1180000E+00
       11   -1    0    0    0    0  0.00000000000E+00  0.00000000000E+00  0.39999999673E+01  0.40000000000E+01  0.51109989000E-03 0.  1.
     -623   -1    0    0    0    0  0.00000000000E+00  0.00000000000E+00  0.12525980253E-10  0.17130000000E+03  0.17130000000E+03 0.  1.
       11    1    1    2    0    0 -0.52476073093E-03 -0.27215383603E-02  0.79952289271E-01  0.80001949520E-01  0.51109989000E-03 0.  1.
     -623    1    1    2    0    0  0.19762807307E-03  0.11578556714E-03  0.10152828469E-03  0.17130000000E+03  0.17130000000E+03 0.  1.
      622    1    1    2    0    0  0.32713265786E-03  0.26057527932E-02  0.39199461498E+01  0.39199980503E+01  0.20000000000E-01 0.  1.
</event>
<event>
 5   0  0.3603037E+08  0.9118800E+02  0.7818608E-02  0.1180000E+00
       11   -1    0    0    0    0  0.00000000000E+00  0.00000000000E+00  0.39999999673E+01  0.40000000000E+01  0.51109989000E-03 0.  1.
     -623   -1    0    0    0    0  0.00000000000E+00  0.00000000000E+00  0.12525980253E-10  0.17130000000E+03  0.17130000000E+03 0. -1.
       11    1    1    2    0    0 -0.35399081976E-02 -0.21583780754E-02  0.44801984112E-01  0.44996317039E-01  0.51109989000E-03 0.  1.
     -623    1    1    2    0    0  0.10284523436E-02 -0.35014522999E-03  0.24646603809E-03  0.17130000000E+03  0.17130000000E+03 0. -1.
      622    1    1    2    0    0  0.25114558540E-02  0.25085233054E-02  0.39549515172E+01  0.39550036793E+01  0.20000000000E-01 0.  1.
</event>
<event>
 5   0  0.3603037E+08  0.9118800E+02  0.7818608E-02  0.1180000E+00
       11   -1    0    0    0    0  0.00000000000E+00  0.00000000000E+00  0.39999999673E+01  0.40000000000E+01  0.51109989000E-03 0.  1.
     -623   -1    0    0    0    0  0.00000000000E+00  0.00000000000E+00  0.12525980253E-10  0.17130000000E+03  0.17130000000E+03 0. -1.
       11    1    1    2    0    0 -0.80043485721E-03  0.59938184782E-03  0.75333871306E-01  0.75342241422E-01  0.51109989000E-03 0.  1.
     -623    1    1    2    0    0  0.22184806632E-02 -0.15331063774E-02  0.59686160740E-04  0.17130000002E+03  0.17130000000E+03 0. -1.
      622    1    1    2    0    0 -0.14180458060E-02  0.93372452959E-03  0.39246064099E+01  0.39246577373E+01  0.20000000000E-01 0.  1.
</event>
<event>
 5   0  0.3603037E+08  0.9118800E+02  0.7818608E-02  0.1180000E+00
       11   -1    0    0    0    0  0.00000000000E+00  0.00000000000E+00  0.39999999673E+01  0.40000000000E+01  0.51109989000E-03 0.  1.
     -623   -1    0    0    0    0  0.00000000000E+00  0.00000000000E+00  0.12525980253E-10  0.17130000000E+03  0.17130000000E+03 0.  1.
       11    1    1    2    0    0 -0.52785515029E-02  0.71852417841E-02  0.30848541306E+00  0.30861464984E+00  0.51109989000E-03 0.  1.
     -623    1    1    2    0    0  0.15512329196E-02 -0.71396989626E-02  0.18542276674E-03  0.17130000016E+03  0.17130000000E+03 0.  1.
      622    1    1    2    0    0  0.37273185833E-02 -0.45542821563E-04  0.36913291315E+01  0.36913851942E+01  0.20000000000E-01 0.  1.
</event>
<event>
 5   0  0.3603037E+08  0.9118800E+02  0.7818608E-02  0.1180000E+00
       11   -1    0    0    0    0  0.00000000000E+00  0.00000000000E+00  0.39999999673E+01  0.40000000000E+01  0.51109989000E-03 0. -1.
     -623   -1    0    0    0    0  0.00000000000E+00  0.00000000000E+00  0.12525980253E-10  0.17130000000E+03  0.17130000000E+03 0.  1.
       11    1    1    2    0    0 -0.10780631047E-02  0.25388583434E-03  0.63235964478E+00  0.63236082125E+00  0.51109989000E-03 0. -1.
     -623    1    1    2    0    0  0.16118872583E-02 -0.52439460229E-02  0.64360430418E-04  0.17130000009E+03  0.17130000000E+03 0.  1.
      622    1    1    2    0    0 -0.53382415362E-03  0.49900601885E-02  0.33675759621E+01  0.33676390909E+01  0.20000000000E-01 0. -1.
</event>
<event>
 5   0  0.3603037E+08  0.9118800E+02  0.7818608E-02  0.1180000E+00
       11   -1    0    0    0    0  0.00000000000E+00  0.00000000000E+00  0.39999999673E+01  0.40000000000E+01  0.51109989000E-03 0.  1.
     -623   -1    0    0    0    0  0.00000000000E+00  0.00000000000E+00  0.12525980253E-10  0.17130000000E+03  0.17130000000E+03 0.  1.
       11    1    1    2    0    0 -0.50736583863E-02  0.91734367201E-02  0.10784049302E+00  0.10835002127E+00  0.51109989000E-03 0.  1.
     -623    1    1    2    0    0  0.97256603319E-02 -0.83727373816E-02  0.56423254086E-03  0.17130000048E+03  0.17130000000E+03 0.  1.
      622    1    1    2    0    0 -0.46520019456E-02 -0.80069933848E-03  0.38915952418E+01  0.38916494971E+01  0.20000000000E-01 0.  1.
</event>
<event>
 5   0  0.3603037E+08  0.9118800E+02  0.7818608E-02  0.1180000E+00
       11   -1    0    0    0    0  0.00000000000E+00  0.00000000000E+00  0.39999999673E+01  0.40000000000E+01  0.51109989000E-03 0. -1.
     -623   -1    0    0    0    0  0.00000000000E+00  0.00000000000E+00  0.12525980253E-10  0.17130000000E+03  0.17130000000E+03 0.  1.
       11    1    1    2    0    0 -0.65643905143E-02 -0.47707140497E-02  0.24116929547E+00  0.24130632241E+00  0.51109989000E-03 0. -1.
     -623    1    1    2    0    0 -0.26793957232E-03  0.14051276343E-03  0.19926676504E-03  0.17130000000E+03  0.17130000000E+03 0.  1.
      622    1    1    2    0    0  0.68323300866E-02  0.46302012863E-02  0.37586314051E+01  0.37586936772E+01  0.20000000000E-01 0. -1.
</event>
<event>
 5   0  0.3603037E+08  0.9118800E+02  0.7818608E-02  0.1180000E+00
       11   -1    0    0    0    0  0.00000000000E+00  0.00000000000E+00  0.39999999673E+01  0.40000000000E+01  0.51109989000E-03 0.  1.
     -623   -1    0    0    0    0  0.00000000000E+00  0.00000000000E+00  0.12525980253E-10  0.17130000000E+03  0.17130000000E+03 0. -1.
       11    1    1    2    0    0  0.43989988490E-02  0.41573998738E-02  0.15616821883E+00  0.15628630445E+00  0.51109989000E-03 0.  1.
     -623    1    1    2    0    0  0.13644451472E-04  0.54388647180E-03  0.17549536492E-03  0.17130000000E+03  0.17130000000E+03 0. -1.
      622    1    1    2    0    0 -0.44126433005E-02 -0.47012863456E-02  0.38436562532E+01  0.38437136946E+01  0.20000000000E-01 0.  0.
</event>
<event>
 5   0  0.3603037E+08  0.9118800E+02  0.7818608E-02  0.1180000E+00
       11   -1    0    0    0    0  0.00000000000E+00  0.00000000000E+00  0.39999999673E+01  0.40000000000E+01  0.51109989000E-03 0.  1.
     -623   -1    0    0    0    0  0.00000000000E+00  0.00000000000E+00  0.12525980253E-10  0.17130000000E+03  0.17130000000E+03 0.  1.
       11    1    1    2    0    0 -0.20640331380E-02  0.65303760368E-02  0.34833774025E+00  0.34840543703E+00  0.51109989000E-03 0.  1.
     -623    1    1    2    0    0 -0.17289153785E-02 -0.25098281202E-03  0.12981321849E-03  0.17130000001E+03  0.17130000000E+03 0.  1.
      622    1    1    2    0    0  0.37929485165E-02 -0.62793932248E-02  0.36515324139E+01  0.36515945540E+01  0.20000000000E-01 0.  1.
</event>
<event>
 5   0  0.3603037E+08  0.9118800E+02  0.7818608E-02  0.1180000E+00
       11   -1    0    0    0    0  0.00000000000E+00  0.00000000000E+00  0.39999999673E+01  0.40000000000E+01  0.51109989000E-03 0. -1.
     -623   -1    0    0    0    0  0.00000000000E+00  0.00000000000E+00  0.12525980253E-10  0.17130000000E+03  0.17130000000E+03 0. -1.
       11    1    1    2    0    0  0.45281365364E-02  0.76933681404E-03  0.28466237105E+00  0.28469988165E+00  0.51109989000E-03 0. -1.
     -623    1    1    2    0    0 -0.10040289244E-02  0.10036446130E-02  0.93410163942E-04  0.17130000001E+03  0.17130000000E+03 0. -1.
      622    1    1    2    0    0 -0.35241076120E-02 -0.17729814271E-02  0.37152441861E+01  0.37153001124E+01  0.20000000000E-01 0. -1.
</event>
<event>
 5   0  0.3603037E+08  0.9118800E+02  0.7818608E-02  0.1180000E+00
       11   -1    0    0    0    0  0.00000000000E+00  0.00000000000E+00  0.39999999673E+01  0.40000000000E+01  0.51109989000E-03 0.  1.
     -623   -1    0    0    0    0  0.00000000000E+00  0.00000000000E+00  0.12525980253E-10  0.17130000000E+03  0.17130000000E+03 0.  1.
       11    1    1    2    0    0  0.38282436376E-03  0.10653331772E-02  0.16625773931E-01  0.16672104484E-01  0.51109989000E-03 0.  1.
     -623    1    1    2    0    0  0.20183749234E-03 -0.14195395845E-02  0.96572187877E-04  0.17130000001E+03  0.17130000000E+03 0.  1.
      622    1    1    2    0    0 -0.58466185609E-03  0.35420640726E-03  0.39832776212E+01  0.39833278895E+01  0.20000000000E-01 0.  1.
</event>
<event>
 5   0  0.3603037E+08  0.9118800E+02  0.7818608E-02  0.1180000E+00
       11   -1    0    0    0    0  0.00000000000E+00  0.00000000000E+00  0.39999999673E+01  0.40000000000E+01  0.51109989000E-03 0. -1.
     -623   -1    0    0    0    0  0.00000000000E+00  0.00000000000E+00  0.12525980253E-10  0.17130000000E+03  0.17130000000E+03 0. -1.
       11    1    1    2    0    0  0.61907294080E-03  0.34413065967E-02  0.38407863806E+00  0.38409489358E+00  0.51109989000E-03 0. -1.
     -623    1    1    2    0    0 -0.21709459463E-02  0.19347675476E-02  0.75888811453E-04  0.17130000002E+03  0.17130000000E+03 0. -1.
      622    1    1    2    0    0  0.15518730055E-02 -0.53760741442E-02  0.36158454405E+01  0.36159050817E+01  0.20000000000E-01 0. -1.
</event>
<event>
 5   0  0.3603037E+08  0.9118800E+02  0.7818608E-02  0.1180000E+00
       11   -1    0    0    0    0  0.00000000000E+00  0.00000000000E+00  0.39999999673E+01  0.40000000000E+01  0.51109989000E-03 0. -1.
     -623   -1    0    0    0    0  0.00000000000E+00  0.00000000000E+00  0.12525980253E-10  0.17130000000E+03  0.17130000000E+03 0. -1.
       11    1    1    2    0    0  0.32669315882E-02  0.49443827191E-02  0.23026683511E-01  0.23782538481E-01  0.51109989000E-03 0. -1.
     -623    1    1    2    0    0  0.64183655516E-03  0.10195920250E-02  0.81252190592E-03  0.17130000001E+03  0.17130000000E+03 0. -1.
      622    1    1    2    0    0 -0.39087681433E-02 -0.59639747441E-02  0.39761607619E+01  0.39762174554E+01  0.20000000000E-01 0. -1.
</event>
<event>
 5   0  0.3603037E+08  0.9118800E+02  0.7818608E-02  0.1180000E+00
       11   -1    0    0    0    0  0.00000000000E+00  0.00000000000E+00  0.39999999673E+01  0.40000000000E+01  0.51109989000E-03 0. -1.
     -623   -1    0    0    0    0  0.00000000000E+00  0.00000000000E+00  0.12525980253E-10  0.17130000000E+03  0.17130000000E+03 0.  1.
       11    1    1    2    0    0  0.31410337221E-03  0.35432955595E-05  0.72175329408E-01  0.72177822560E-01  0.51109989000E-03 0. -1.
     -623    1    1    2    0    0  0.36021407882E-04 -0.31961646324E-03  0.53408276646E-04  0.17130000000E+03  0.17130000000E+03 0.  1.
      622    1    1    2    0    0 -0.35012478009E-03  0.31607316768E-03  0.39277712297E+01  0.39278221771E+01  0.20000000000E-01 0. -1.
</event>
<event>
 5   0  0.3603037E+08  0.9118800E+02  0.7818608E-02  0.1180000E+00
       11   -1    0    0    0    0  0.00000000000E+00  0.00000000000E+00  0.39999999673E+01  0.40000000000E+01  0.51109989000E-03 0. -1.
     -623   -1    0    0    0    0  0.00000000000E+00  0.00000000000E+00  0.12525980253E-10  0.17130000000E+03  0.17130000000E+03 0. -1.
       11    1    1    2    0    0  0.82056339806E-04 -0.76260767435E-02  0.20707366579E-01  0.22073061207E-01  0.51109989000E-03 0. -1.
     -623    1    1    2    0    0  0.65147494073E-03  0.98346691776E-02  0.14169099243E-02  0.17130000029E+03  0.17130000000E+03 0. -1.
      622    1    1    2    0    0 -0.73353128053E-03 -0.22085924342E-02  0.39778756909E+01  0.39779266494E+01  0.20000000000E-01 0. -1.
</event>
<event>
 5   0  0.3603037E+08  0.9118800E+02  0.7818608E-02  0.1180000E+00
       11   -1    0    0    0    0  0.00000000000E+00  0.00000000000E+00  0.39999999673E+01  0.40000000000E+01  0.51109989000E-03 0. -1.
     -623   -1    0    0    0    0  0.00000000000E+00  0.00000000000E+00  0.12525980253E-10  0.17130000000E+03  0.17130000000E+03 0. -1.
       11    1    1    2    0    0  0.14571745248E-01 -0.10591098130E-01  0.81809410658E+00  0.81829257333E+00  0.51109989000E-03 0. -1.
     -623    1    1    2    0    0  0.43050590647E-02  0.21878336019E-03  0.33425493955E-03  0.17130000005E+03  0.17130000000E+03 0. -1.
      622    1    1    2    0    0 -0.18876804313E-01  0.10372314770E-01  0.31815716058E+01  0.31817073721E+01  0.20000000000E-01 0. -1.
</event>
<event>
 5   0  0.3603037E+08  0.9118800E+02  0.7818608E-02  0.1180000E+00
       11   -1    0    0    0    0  0.00000000000E+00  0.00000000000E+00  0.39999999673E+01  0.40000000000E+01  0.51109989000E-03 0.  1.
     -623   -1    0    0    0    0  0.00000000000E+00  0.00000000000E+00  0.12525980253E-10  0.17130000000E+03  0.17130000000E+03 0. -1.
       11    1    1    2    0    0 -0.10664264538E-02  0.83721472492E-03  0.12674352599E+00  0.12675180787E+00  0.51109989000E-03 0.  1.
     -623    1    1    2    0    0  0.97803498468E-03 -0.47078742310E-02  0.61888392491E-04  0.17130000007E+03  0.17130000000E+03 0. -1.
      622    1    1    2    0    0  0.88391469154E-04  0.38706595061E-02  0.38731945530E+01  0.38732481246E+01  0.20000000000E-01 0.  1.
</event>
<event>
 5   0  0.3603037E+08  0.9118800E+02  0.7818608E-02  0.1180000E+00
       11   -1    0    0    0    0  0.00000000000E+00  0.00000000000E+00  0.39999999673E+01  0.40000000000E+01  0.51109989000E-03 0.  1.
     -623   -1    0    0    0    0  0.00000000000E+00  0.00000000000E+00  0.12525980253E-10  0.17130000000E+03  0.17130000000E+03 0.  1.
       11    1    1    2    0    0  0.88241457680E-03 -0.37461321791E-02  0.26120762088E+00  0.26123647254E+00  0.51109989000E-03 0.  1.
     -623    1    1    2    0    0 -0.43705573839E-02 -0.14774847648E-02  0.87651511782E-04  0.17130000006E+03  0.17130000000E+03 0.  1.
      622    1    1    2    0    0  0.34881428071E-02  0.52236169439E-02  0.37387046950E+01  0.37387634653E+01  0.20000000000E-01 0.  1.
</event>
<event>
 5   0  0.3603037E+08  0.9118800E+02  0.7818608E-02  0.1180000E+00
       11   -1    0    0    0    0  0.00000000000E+00  0.00000000000E+00  0.39999999673E+01  0.40000000000E+01  0.51109989000E-03 0.  1.
     -623   -1    0    0    0    0  0.00000000000E+00  0.00000000000E+00  0.12525980253E-10  0.17130000000E+03  0.17130000000E+03 0.  1.
       11    1    1    2    0    0  0.47176723722E-02 -0.19463466854E-02  0.41971524430E+00  0.41974658095E+00  0.51109989000E-03 0.  1.
     -623    1    1    2    0    0 -0.50285471825E-03 -0.26046549178E-03  0.90328470056E-04  0.17130000000E+03  0.17130000000E+03 0.  1.
      622    1    1    2    0    0 -0.42148176539E-02  0.22068121772E-02  0.35801943946E+01  0.35802534181E+01  0.20000000000E-01 0.  1.
</event>
<event>
 5   0  0.3603037E+08  0.9118800E+02  0.7818608E-02  0.1180000E+00
       11   -1    0    0    0    0  0.00000000000E+00  0.00000000000E+00  0.39999999673E+01  0.40000000000E+01  0.51109989000E-03 0. -1.
     -623   -1    0    0    0    0  0.00000000000E+00  0.00000000000E+00  0.12525980253E-10  0.17130000000E+03  0.17130000000E+03 0.  1.
       11    1    1    2    0    0  0.91005413939E-02  0.88753812786E-03  0.15741948240E+01  0.15742214624E+01  0.51109989000E-03 0. -1.
     -623    1    1    2    0    0 -0.65814720381E-03 -0.31047382328E-03  0.12381666037E-03  0.17130000000E+03  0.17130000000E+03 0.  1.
      622    1    1    2    0    0 -0.84423941901E-02 -0.57706430459E-03  0.24256813267E+01  0.24257785360E+01  0.20000000000E-01 0.  0.
</event>
<event>
 5   0  0.3603037E+08  0.9118800E+02  0.7818608E-02  0.1180000E+00
       11   -1    0    0    0    0  0.00000000000E+00  0.00000000000E+00  0.39999999673E+01  0.40000000000E+01  0.51109989000E-03 0. -1.
     -623   -1    0    0    0    0  0.00000000000E+00  0.00000000000E+00  0.12525980253E-10  0.17130000000E+03  0.17130000000E+03 0. -1.
       11    1    1    2    0    0 -0.27844751215E-02 -0.11430360876E-02  0.43247923411E-01  0.43355552508E-01  0.51109989000E-03 0. -1.
     -623    1    1    2    0    0 -0.68798292811E-03  0.80826809360E-03  0.15968596916E-03  0.17130000000E+03  0.17130000000E+03 0. -1.
      622    1    1    2    0    0  0.34724580496E-02  0.33476799397E-03  0.39565923580E+01  0.39566444441E+01  0.20000000000E-01 0. -1.
</event>
<event>
 5   0  0.3603037E+08  0.9118800E+02  0.7818608E-02  0.1180000E+00
       11   -1    0    0    0    0  0.00000000000E+00  0.00000000000E+00  0.39999999673E+01  0.40000000000E+01  0.51109989000E-03 0. -1.
     -623   -1    0    0    0    0  0.00000000000E+00  0.00000000000E+00  0.12525980253E-10  0.17130000000E+03  0.17130000000E+03 0. -1.
       11    1    1    2    0    0  0.13525738336E-02 -0.19215226101E-03  0.26007594078E-01  0.26048465391E-01  0.51109989000E-03 0. -1.
     -623    1    1    2    0    0 -0.14028935330E-03 -0.12030045735E-04  0.91356970121E-04  0.17130000000E+03  0.17130000000E+03 0. -1.
      622    1    1    2    0    0 -0.12122844803E-02  0.20418230674E-03  0.39739010163E+01  0.39739515345E+01  0.20000000000E-01 0. -1.
</event>
<event>
 5   0  0.3603037E+08  0.9118800E+02  0.7818608E-02  0.1180000E+00
       11   -1    0    0    0    0  0.00000000000E+00  0.00000000000E+00  0.39999999673E+01  0.40000000000E+01  0.51109989000E-03 0.  1.
     -623   -1    0    0    0    0  0.00000000000E+00  0.00000000000E+00  0.12525980253E-10  0.17130000000E+03  0.17130000000E+03 0.  1.
       11    1    1    2    0    0  0.36959510233E-03  0.15645142311E-02  0.64433812488E-01  0.64455889706E-01  0.51109989000E-03 0.  1.
     -623    1    1    2    0    0  0.55471427790E-04  0.25516871452E-04  0.73207987493E-04  0.17130000000E+03  0.17130000000E+03 0.  1.
      622    1    1    2    0    0 -0.42506653012E-03 -0.15900311026E-02  0.39354929469E+01  0.39355441103E+01  0.20000000000E-01 0.  1.
</event>
<event>
 5   0  0.3603037E+08  0.9118800E+02  0.7818608E-02  0.1180000E+00
       11   -1    0    0    0    0  0.00000000000E+00  0.00000000000E+00  0.39999999673E+01  0.40000000000E+01  0.51109989000E-03 0.  1.
     -623   -1    0    0    0    0  0.00000000000E+00  0.00000000000E+00  0.12525980253E-10  0.17130000000E+03  0.17130000000E+03 0.  1.
       11    1    1    2    0    0 -0.17454055581E-02 -0.26061166914E-02  0.49975882846E-01  0.50076824714E-01  0.51109989000E-03 0.  1.
     -623    1    1    2    0    0 -0.74651745798E-03  0.63574556603E-03  0.15282383835E-03  0.17130000000E+03  0.17130000000E+03 0.  1.
      622    1    1    2    0    0  0.24919230161E-02  0.19703711253E-02  0.39498712607E+01  0.39499231724E+01  0.20000000000E-01 0.  1.
</event>
<event>
 5   0  0.3603037E+08  0.9118800E+02  0.7818608E-02  0.1180000E+00
       11   -1    0    0    0    0  0.00000000000E+00  0.00000000000E+00  0.39999999673E+01  0.40000000000E+01  0.51109989000E-03 0. -1.
     -623   -1    0    0    0    0  0.00000000000E+00  0.00000000000E+00  0.12525980253E-10  0.17130000000E+03  0.17130000000E+03 0. -1.
       11    1    1    2    0    0 -0.15405994996E-01  0.17308532488E-01  0.21235048939E+01  0.21236313771E+01  0.51109989000E-03 0. -1.
     -623    1    1    2    0    0  0.17162448220E-01 -0.75167462008E-02  0.26044023546E-03  0.17130000102E+03  0.17130000000E+03 0. -1.
      622    1    1    2    0    0 -0.17564532246E-02 -0.97917862875E-02  0.18762346332E+01  0.18763675981E+01  0.20000000000E-01 0. -1.
</event>
<event>
 5   0  0.3603037E+08  0.9118800E+02  0.7818608E-02  0.1180000E+00
       11   -1    0    0    0    0  0.00000000000E+00  0.00000000000E+00  0.39999999673E+01  0.40000000000E+01  0.51109989000E-03 0. -1.
     -623   -1    0    0    0    0  0.00000000000E+00  0.00000000000E+00  0.12525980253E-10  0.17130000000E+03  0.17130000000E+03 0.  1.
       11    1    1    2    0    0 -0.75441815541E-02  0.42637807595E-02  0.20333577674E+01  0.20333762971E+01  0.51109989000E-03 0. -1.
     -623    1    1    2    0    0 -0.24771404787E-02 -0.64145992892E-02  0.14704551517E-03  0.17130000014E+03  0.17130000000E+03 0.  1.
      622    1    1    2    0    0  0.10021322033E-01  0.21508185296E-02  0.19664951545E+01  0.19666235648E+01  0.20000000000E-01 0. -1.
</event>
<event>
 5   0  0.3603037E+08  0.9118800E+02  0.7818608E-02  0.1180000E+00
       11   -1    0    0    0    0  0.00000000000E+00  0.00000000000E+00  0.39999999673E+01  0.40000000000E+01  0.51109989000E-03 0. -1.
     -623   -1    0    0    0    0  0.00000000000E+00  0.00000000000E+00  0.12525980253E-10  0.17130000000E+03  0.17130000000E+03 0. -1.
       11    1    1    2    0    0 -0.86704207621E-02  0.56458918377E-02  0.15009040507E+01  0.15009397999E+01  0.51109989000E-03 0. -1.
     -623    1    1    2    0    0 -0.14033648328E-03 -0.16393436450E-02  0.13449997113E-03  0.17130000001E+03  0.17130000000E+03 0. -1.
      622    1    1    2    0    0  0.88107572454E-02 -0.40065481927E-02  0.24989614167E+01  0.24990601922E+01  0.20000000000E-01 0. -1.
</event>
<event>
 5   0  0.3603037E+08  0.9118800E+02  0.7818608E-02  0.1180000E+00
       11   -1    0    0    0    0  0.00000000000E+00  0.00000000000E+00  0.39999999673E+01  0.40000000000E+01  0.51109989000E-03 0. -1.
     -623   -1    0    0    0    0  0.00000000000E+00  0.00000000000E+00  0.12525980253E-10  0.17130000000E+03  0.17130000000E+03 0. -1.
       11    1    1    2    0    0 -0.56606416355E-03 -0.45361868253E-03  0.34784900406E-01  0.34796216983E-01  0.51109989000E-03 0. -1.
     -623    1    1    2    0    0 -0.99186452019E-04 -0.14634248729E-03  0.61824325033E-04  0.17130000000E+03  0.17130000000E+03 0. -1.
      622    1    1    2    0    0  0.66525061557E-03  0.59996116981E-03  0.39651532426E+01  0.39652037829E+01  0.20000000000E-01 0. -1.
</event>
<event>
 5   0  0.3603037E+08  0.9118800E+02  0.7818608E-02  0.1180000E+00
       11   -1    0    0    0    0  0.00000000000E+00  0.00000000000E+00  0.39999999673E+01  0.40000000000E+01  0.51109989000E-03 0.  1.
     -623   -1    0    0    0    0  0.00000000000E+00  0.00000000000E+00  0.12525980253E-10  0.17130000000E+03  0.17130000000E+03 0.  1.
       11    1    1    2    0    0 -0.86871148062E-04 -0.14669982093E-03  0.18985880920E-01  0.18993524220E-01  0.51109989000E-03 0.  1.
     -623    1    1    2    0    0  0.41808502038E-03  0.20344414700E-03  0.57864352546E-04  0.17130000000E+03  0.17130000000E+03 0.  1.
      622    1    1    2    0    0 -0.33121387232E-03 -0.56744326068E-04  0.39809562221E+01  0.39810064751E+01  0.20000000000E-01 0.  1.
</event>
<event>
 5   0  0.3603037E+08  0.9118800E+02  0.7818608E-02  0.1180000E+00
       11   -1    0    0    0    0  0.00000000000E+00  0.00000000000E+00  0.39999999673E+01  0.40000000000E+01  0.51109989000E-03 0. -1.
     -623   -1    0    0    0    0  0.00000000000E+00  0.00000000000E+00  0.12525980253E-10  0.17130000000E+03  0.17130000000E+03 0.  1.
       11    1    1    2    0    0 -0.15526630426E-01  0.29284629388E-01  0.22479065480E+01  0.22481509681E+01  0.51109989000E-03 0. -1.
     -623    1    1    2    0    0  0.15253720873E-02  0.63995774831E-02  0.77814683893E-03  0.17130000013E+03  0.17130000000E+03 0.  1.
      622    1    1    2    0    0  0.14001258338E-01 -0.35684206871E-01  0.17513152725E+01  0.17518489038E+01  0.20000000000E-01 0. -1.
</event>
<event>
 5   0  0.3603037E+08  0.9118800E+02  0.7818608E-02  0.1180000E+00
       11   -1    0    0    0    0  0.00000000000E+00  0.00000000000E+00  0.39999999673E+01  0.40000000000E+01  0.51109989000E-03 0.  1.
     -623   -1    0    0    0    0  0.00000000000E+00  0.00000000000E+00  0.12525980253E-10  0.17130000000E+03  0.17130000000E+03 0. -1.
       11    1    1    2    0    0  0.40296027393E-02 -0.47949256367E-02  0.12485065299E+00  0.12500870283E+00  0.51109989000E-03 0.  1.
     -623    1    1    2    0    0  0.14131321514E-02  0.49999086764E-02  0.21353734674E-03  0.17130000008E+03  0.17130000000E+03 0. -1.
      622    1    1    2    0    0 -0.54427348906E-02 -0.20498303972E-03  0.38749357770E+01  0.38749912182E+01  0.20000000000E-01 0.  1.
</event>
<event>
 5   0  0.3603037E+08  0.9118800E+02  0.7818608E-02  0.1180000E+00
       11   -1    0    0    0    0  0.00000000000E+00  0.00000000000E+00  0.39999999673E+01  0.40000000000E+01  0.51109989000E-03 0. -1.
     -623   -1    0    0    0    0  0.00000000000E+00  0.00000000000E+00  0.12525980253E-10  0.17130000000E+03  0.17130000000E+03 0. -1.
       11    1    1    2    0    0 -0.66430308537E-02 -0.52749781274E-02  0.84327193830E+00  0.84331475642E+00  0.51109989000E-03 0. -1.
     -623    1    1    2    0    0  0.32543852950E-02  0.29161120296E-02  0.10889971256E-03  0.17130000006E+03  0.17130000000E+03 0. -1.
      622    1    1    2    0    0  0.33886455588E-02  0.23588660978E-02  0.31566191293E+01  0.31566851878E+01  0.20000000000E-01 0.  0.
</event>
<event>
 5   0  0.3603037E+08  0.9118800E+02  0.7818608E-02  0.1180000E+00
       11   -1    0    0    0    0  0.00000000000E+00  0.00000000000E+00  0.39999999673E+01  0.40000000000E+01  0.51109989000E-03 0. -1.
     -623   -1    0    0    0    0  0.00000000000E+00  0.00000000000E+00  0.12525980253E-10  0.17130000000E+03  0.17130000000E+03 0.  1.
       11    1    1    2    0    0 -0.64086302555E-03 -0.83710642863E-03  0.35495553378E-01  0.35514883966E-01  0.51109989000E-03 0. -1.
     -623    1    1    2    0    0  0.48142298399E-04  0.10766096762E-03  0.69857653134E-04  0.17130000000E+03  0.17130000000E+03 0.  1.
      622    1    1    2    0    0  0.59272072715E-03  0.72944546101E-03  0.39644345563E+01  0.39644851160E+01  0.20000000000E-01 0. -1.
</event>
<event>
 5   0  0.3603037E+08  0.9118800E+02  0.7818608E-02  0.1180000E+00
       11   -1    0    0    0    0  0.00000000000E+00  0.00000000000E+00  0.39999999673E+01  0.40000000000E+01  0.51109989000E-03 0.  1.
     -623   -1    0    0    0    0  0.00000000000E+00  0.00000000000E+00  0.12525980253E-10  0.17130000000E+03  0.17130000000E+03 0. -1.
       11    1    1    2    0    0  0.59002138569E-02  0.16873847078E-01  0.57345282441E+00  0.57373159428E+00  0.51109989000E-03 0.  1.
     -623    1    1    2    0    0 -0.18007018166E-01 -0.35715207985E-02  0.38530822647E-03  0.17130000098E+03  0.17130000000E+03 0. -1.
      622    1    1    2    0    0  0.12106804309E-01 -0.13302326279E-01  0.34261618347E+01  0.34262674216E+01  0.20000000000E-01 0.  1.
</event>
<event>
 5   0  0.3603037E+08  0.9118800E+02  0.7818608E-02  0.1180000E+00
       11   -1    0    0    0    0  0.00000000000E+00  0.00000000000E+00  0.39999999673E+01  0.40000000000E+01  0.51109989000E-03 0. -1.
     -623   -1    0    0    0    0  0.00000000000E+00  0.00000000000E+00  0.12525980253E-10  0.17130000000E+03  0.17130000000E+03 0. -1.
       11    1    1    2    0    0 -0.32891368260E-03 -0.53590632604E-03  0.99601174661E-02  0.99930246572E-02  0.51109989000E-03 0.  1.
     -623    1    1    2    0    0 -0.10597750189E-03 -0.89588036126E-04  0.83072897268E-04  0.17130000000E+03  0.17130000000E+03 0. -1.
      622    1    1    2    0    0  0.43489118449E-03  0.62549436216E-03  0.39899567770E+01  0.39900069753E+01  0.20000000000E-01 0. -1.
</event>
<event>
 5   0  0.3603037E+08  0.9118800E+02  0.7818608E-02  0.1180000E+00
       11   -1    0    0    0    0  0.00000000000E+00  0.00000000000E+00  0.39999999673E+01  0.40000000000E+01  0.51109989000E-03 0. -1.
     -623   -1    0    0    0    0  0.00000000000E+00  0.00000000000E+00  0.12525980253E-10  0.17130000000E+03  0.17130000000E+03 0.  1.
       11    1    1    2    0    0 -0.52799121943E-02 -0.41492358381E-02  0.24747739273E+00  0.24756901010E+00  0.51109989000E-03 0. -1.
     -623    1    1    2    0    0 -0.25012752008E-03  0.55468472385E-03  0.15068165726E-03  0.17130000000E+03  0.17130000000E+03 0.  1.
      622    1    1    2    0    0  0.55300397144E-02  0.35945511143E-02  0.37523718930E+01  0.37524309887E+01  0.20000000000E-01 0. -1.
</event>
<event>
 5   0  0.3603037E+08  0.9118800E+02  0.7818608E-02  0.1180000E+00
       11   -1    0    0    0    0  0.00000000000E+00  0.00000000000E+00  0.39999999673E+01  0.40000000000E+01  0.51109989000E-03 0.  1.
     -623   -1    0    0    0    0  0.00000000000E+00  0.00000000000E+00  0.12525980253E-10  0.17130000000E+03  0.17130000000E+03 0.  1.
       11    1    1    2    0    0  0.30354073330E-02  0.45933968719E-03  0.50773942619E-01  0.50869235894E-01  0.51109989000E-03 0.  1.
     -623    1    1    2    0    0  0.26493183805E-04  0.14501592805E-03  0.14713840250E-03  0.17130000000E+03  0.17130000000E+03 0.  1.
      622    1    1    2    0    0 -0.30619005168E-02 -0.60435561525E-03  0.39490788863E+01  0.39491307640E+01  0.20000000000E-01 0.  1.
</event>
<event>
 5   0  0.3603037E+08  0.9118800E+02  0.7818608E-02  0.1180000E+00
       11   -1    0    0    0    0  0.00000000000E+00  0.00000000000E+00  0.39999999673E+01  0.40000000000E+01  0.51109989000E-03 0. -1.
     -623   -1    0    0    0    0  0.00000000000E+00  0.00000000000E+00  0.12525980253E-10  0.17130000000E+03  0.17130000000E+03 0. -1.
       11    1    1    2    0    0  0.61274280124E-02 -0.87688656110E-02  0.87328094626E+00  0.87334661544E+00  0.51109989000E-03 0. -1.
     -623    1    1    2    0    0 -0.11012123755E-03  0.13870818688E-03  0.14730456869E-03  0.17130000000E+03  0.17130000000E+03 0. -1.
      622    1    1    2    0    0 -0.60173067748E-02  0.86301574241E-02  0.31265717165E+01  0.31266533844E+01  0.20000000000E-01 0.  0.
</event>
<event>
 5   0  0.3603037E+08  0.9118800E+02  0.7818608E-02  0.1180000E+00
       11   -1    0    0    0    0  0.00000000000E+00  0.00000000000E+00  0.39999999673E+01  0.40000000000E+01  0.51109989000E-03 0.  1.
     -623   -1    0    0    0    0  0.00000000000E+00  0.00000000000E+00  0.12525980253E-10  0.17130000000E+03  0.17130000000E+03 0. -1.
       11    1    1    2    0    0  0.48148506714E-03  0.21032516094E-02  0.97855273884E-01  0.97880393049E-01  0.51109989000E-03 0.  1.
     -623    1    1    2    0    0 -0.67794256434E-03 -0.33758624146E-03  0.76747170529E-04  0.17130000000E+03  0.17130000000E+03 0. -1.
      622    1    1    2    0    0  0.19645749720E-03 -0.17656653679E-02  0.39020679463E+01  0.39021196053E+01  0.20000000000E-01 0.  1.
</event>
<event>
 5   0  0.3603037E+08  0.9118800E+02  0.7818608E-02  0.1180000E+00
       11   -1    0    0    0    0  0.00000000000E+00  0.00000000000E+00  0.39999999673E+01  0.40000000000E+01  0.51109989000E-03 0. -1.
     -623   -1    0    0    0    0  0.00000000000E+00  0.00000000000E+00  0.12525980253E-10  0.17130000000E+03  0.17130000000E+03 0. -1.
       11    1    1    2    0    0 -0.53515541384E-02  0.95647099241E-03  0.96744326432E-01  0.96898296608E-01  0.51109989000E-03 0. -1.
     -623    1    1    2    0    0 -0.24948154310E-03 -0.30635959414E-03  0.20925275655E-03  0.17130000000E+03  0.17130000000E+03 0. -1.
      622    1    1    2    0    0  0.56010356814E-02 -0.65011139826E-03  0.39030463882E+01  0.39031017028E+01  0.20000000000E-01 0. -1.
</event>
<event>
 5   0  0.3603037E+08  0.9118800E+02  0.7818608E-02  0.1180000E+00
       11   -1    0    0    0    0  0.00000000000E+00  0.00000000000E+00  0.39999999673E+01  0.40000000000E+01  0.51109989000E-03 0.  1.
     -623   -1    0    0    0    0  0.00000000000E+00  0.00000000000E+00  0.12525980253E-10  0.17130000000E+03  0.17130000000E+03 0.  1.
       11    1    1    2    0    0 -0.38475925603E-04 -0.10388404742E-02  0.32106648009E-01  0.32127538632E-01  0.51109989000E-03 0. -1.
     -623    1    1    2    0    0  0.64239755455E-04  0.18462925666E-03  0.71355307807E-04  0.17130000000E+03  0.17130000000E+03 0.  1.
      622    1    1    2    0    0 -0.25763829852E-04  0.85421121755E-03  0.39678219640E+01  0.39678724612E+01  0.20000000000E-01 0.  1.
</event>
<event>
 5   0  0.3603037E+08  0.9118800E+02  0.7818608E-02  0.1180000E+00
       11   -1    0    0    0    0  0.00000000000E+00  0.00000000000E+00  0.39999999673E+01  0.40000000000E+01  0.51109989000E-03 0. -1.
     -623   -1    0    0    0    0  0.00000000000E+00  0.00000000000E+00  0.12525980253E-10  0.17130000000E+03  0.17130000000E+03 0.  1.
       11    1    1    2    0    0  0.72901448978E-02 -0.17361027180E-01  0.67349470078E+00  0.67375806094E+00  0.51109989000E-03 0. -1.
     -623    1    1    2    0    0  0.38512672257E-02  0.15309404946E-01  0.34347622713E-03  0.17130000073E+03  0.17130000000E+03 0.  1.
      622    1    1    2    0    0 -0.11141412123E-01  0.20516222337E-02  0.33261617904E+01  0.33262412113E+01  0.20000000000E-01 0. -1.
</event>
<event>
 5   0  0.3603037E+08  0.9118800E+02  0.7818608E-02  0.1180000E+00
       11   -1    0    0    0    0  0.00000000000E+00  0.00000000000E+00  0.39999999673E+01  0.40000000000E+01  0.51109989000E-03 0. -1.
     -623   -1    0    0    0    0  0.00000000000E+00  0.00000000000E+00  0.12525980253E-10  0.17130000000E+03  0.17130000000E+03 0. -1.
       11    1    1    2    0    0 -0.67347905794E-03  0.17248842609E-03  0.10465331428E-01  0.10500843253E-01  0.51109989000E-03 0. -1.
     -623    1    1    2    0    0  0.18442021444E-02 -0.16063282434E-02  0.86058030358E-04  0.17130000002E+03  0.17130000000E+03 0. -1.
      622    1    1    2    0    0 -0.11707230865E-02  0.14338398174E-02  0.39894485779E+01  0.39894991393E+01  0.20000000000E-01 0. -1.
</event>
<event>
 5   0  0.3603037E+08  0.9118800E+02  0.7818608E-02  0.1180000E+00
       11   -1    0    0    0    0  0.00000000000E+00  0.00000000000E+00  0.39999999673E+01  0.40000000000E+01  0.51109989000E-03 0. -1.
     -623   -1    0    0    0    0  0.00000000000E+00  0.00000000000E+00  0.12525980253E-10  0.17130000000E+03  0.17130000000E+03 0. -1.
       11    1    1    2    0    0 -0.10646760401E-02  0.79955472142E-04  0.81163932782E-01  0.81172563932E-01  0.51109989000E-03 0. -1.
     -623    1    1    2    0    0  0.11143976683E-03 -0.34588950985E-04  0.59750765730E-04  0.17130000000E+03  0.17130000000E+03 0. -1.
      622    1    1    2    0    0  0.95323627323E-03 -0.45366521157E-04  0.39187762838E+01  0.39188274360E+01  0.20000000000E-01 0. -1.
</event>
<event>
 5   0  0.3603037E+08  0.9118800E+02  0.7818608E-02  0.1180000E+00
       11   -1    0    0    0    0  0.00000000000E+00  0.00000000000E+00  0.39999999673E+01  0.40000000000E+01  0.51109989000E-03 0.  1.
     -623   -1    0    0    0    0  0.00000000000E+00  0.00000000000E+00  0.12525980253E-10  0.17130000000E+03  0.17130000000E+03 0.  1.
       11    1    1    2    0    0 -0.48416132446E-02 -0.13184666367E-02  0.29006180793E-01  0.29441455784E-01  0.51109989000E-03 0.  1.
     -623    1    1    2    0    0  0.28853867566E-02 -0.12919756505E-03  0.48638427630E-03  0.17130000003E+03  0.17130000000E+03 0.  1.
      622    1    1    2    0    0  0.19562264879E-02  0.14476642018E-02  0.39705074023E+01  0.39705585192E+01  0.20000000000E-01 0.  1.
</event>
<event>
 5   0  0.3603037E+08  0.9118800E+02  0.7818608E-02  0.1180000E+00
       11   -1    0    0    0    0  0.00000000000E+00  0.00000000000E+00  0.39999999673E+01  0.40000000000E+01  0.51109989000E-03 0. -1.
     -623   -1    0    0    0    0  0.00000000000E+00  0.00000000000E+00  0.12525980253E-10  0.17130000000E+03  0.17130000000E+03 0.  1.
       11    1    1    2    0    0  0.97753695134E-03 -0.77998444496E-02  0.23625368253E+01  0.23625499582E+01  0.51109989000E-03 0. -1.
     -623    1    1    2    0    0  0.33512702519E-03 -0.36506025001E-03  0.15613118530E-03  0.17130000000E+03  0.17130000000E+03 0.  1.
      622    1    1    2    0    0 -0.13126639765E-02  0.81649046997E-02  0.16373070109E+01  0.16374500410E+01  0.20000000000E-01 0. -1.
</event>
<event>
 5   0  0.3603037E+08  0.9118800E+02  0.7818608E-02  0.1180000E+00
       11   -1    0    0    0    0  0.00000000000E+00  0.00000000000E+00  0.39999999673E+01  0.40000000000E+01  0.51109989000E-03 0.  1.
     -623   -1    0    0    0    0  0.00000000000E+00  0.00000000000E+00  0.12525980253E-10  0.17130000000E+03  0.17130000000E+03 0. -1.
       11    1    1    2    0    0  0.90447201019E-03 -0.45626663532E-03  0.22042085696E-01  0.22071271186E-01  0.51109989000E-03 0.  1.
     -623    1    1    2    0    0 -0.18296397333E-03 -0.26275869778E-03  0.79561324426E-04  0.17130000000E+03  0.17130000000E+03 0. -1.
      622    1    1    2    0    0 -0.72150803687E-03  0.71902533309E-03  0.39778783203E+01  0.39779287285E+01  0.20000000000E-01 0.  1.
</event>
<event>
 5   0  0.3603037E+08  0.9118800E+02  0.7818608E-02  0.1180000E+00
       11   -1    0    0    0    0  0.00000000000E+00  0.00000000000E+00  0.39999999673E+01  0.40000000000E+01  0.51109989000E-03 0. -1.
     -623   -1    0    0    0    0  0.00000000000E+00  0.00000000000E+00  0.12525980253E-10  0.17130000000E+03  0.17130000000E+03 0. -1.
       11    1    1    2    0    0 -0.47229520889E-04 -0.61959171799E-02  0.92960034371E+00  0.92962113351E+00  0.51109989000E-03 0. -1.
     -623    1    1    2    0    0  0.11941529674E-02 -0.49434790373E-03  0.93404619973E-04  0.17130000000E+03  0.17130000000E+03 0. -1.
      622    1    1    2    0    0 -0.11469234465E-02  0.66902650836E-02  0.30703062190E+01  0.30703788616E+01  0.20000000000E-01 0. -1.
</event>
<event>
 5   0  0.3603037E+08  0.9118800E+02  0.7818608E-02  0.1180000E+00
       11   -1    0    0    0    0  0.00000000000E+00  0.00000000000E+00  0.39999999673E+01  0.40000000000E+01  0.51109989000E-03 0. -1.
     -623   -1    0    0    0    0  0.00000000000E+00  0.00000000000E+00  0.12525980253E-10  0.17130000000E+03  0.17130000000E+03 0. -1.
       11    1    1    2    0    0  0.60188140276E-02 -0.76353261051E-04  0.87213198397E-01  0.87422166232E-01  0.51109989000E-03 0. -1.
     -623    1    1    2    0    0 -0.42863793036E-03  0.50755593327E-03  0.26407157017E-03  0.17130000000E+03  0.17130000000E+03 0. -1.
      622    1    1    2    0    0 -0.55901760972E-02 -0.43120267222E-03  0.39125226974E+01  0.39125778323E+01  0.20000000000E-01 0. -1.
</event>
<event>
 5   0  0.3603037E+08  0.9118800E+02  0.7818608E-02  0.1180000E+00
       11   -1    0    0    0    0  0.00000000000E+00  0.00000000000E+00  0.39999999673E+01  0.40000000000E+01  0.51109989000E-03 0. -1.
     -623   -1    0    0    0    0  0.00000000000E+00  0.00000000000E+00  0.12525980253E-10  0.17130000000E+03  0.17130000000E+03 0. -1.
       11    1    1    2    0    0  0.20632370900E-01 -0.40344323333E-02  0.20068239457E+01  0.20069341249E+01  0.51109989000E-03 0. -1.
     -623    1    1    2    0    0 -0.63466967786E-02 -0.49225040262E-02  0.28201448404E-03  0.17130000019E+03  0.17130000000E+03 0. -1.
      622    1    1    2    0    0 -0.14285674121E-01  0.89569363595E-02  0.19928940072E+01  0.19930656866E+01  0.20000000000E-01 0. -1.
</event>
<event>
 5   0  0.3603037E+08  0.9118800E+02  0.7818608E-02  0.1180000E+00
       11   -1    0    0    0    0  0.00000000000E+00  0.00000000000E+00  0.39999999673E+01  0.40000000000E+01  0.51109989000E-03 0. -1.
     -623   -1    0    0    0    0  0.00000000000E+00  0.00000000000E+00  0.12525980253E-10  0.17130000000E+03  0.17130000000E+03 0.  1.
       11    1    1    2    0    0 -0.25988286592E-02  0.55170605215E-02  0.59998194657E-01  0.60309505472E-01  0.51109989000E-03 0. -1.
     -623    1    1    2    0    0 -0.20897218292E-03 -0.52274552848E-02  0.36313539740E-03  0.17130000008E+03  0.17130000000E+03 0.  1.
      622    1    1    2    0    0  0.28078008421E-02 -0.28960523669E-03  0.39396386373E+01  0.39396904143E+01  0.20000000000E-01 0. -1.
</event>
<event>
 5   0  0.3603037E+08  0.9118800E+02  0.7818608E-02  0.1180000E+00
       11   -1    0    0    0    0  0.00000000000E+00  0.00000000000E+00  0.39999999673E+01  0.40000000000E+01  0.51109989000E-03 0. -1.
     -623   -1    0    0    0    0  0.00000000000E+00  0.00000000000E+00  0.12525980253E-10  0.17130000000E+03  0.17130000000E+03 0. -1.
       11    1    1    2    0    0  0.16513191412E-01  0.16054485622E-01  0.13104638308E+01  0.13106662981E+01  0.51109989000E-03 0. -1.
     -623    1    1    2    0    0 -0.28618804412E-03 -0.58757116854E-02  0.34512590895E-03  0.17130000010E+03  0.17130000000E+03 0. -1.
      622    1    1    2    0    0 -0.16227003367E-01 -0.10178773936E-01  0.26891910107E+01  0.26893336006E+01  0.20000000000E-01 0. -1.
</event>
<event>
 5   0  0.3603037E+08  0.9118800E+02  0.7818608E-02  0.1180000E+00
       11   -1    0    0    0    0  0.00000000000E+00  0.00000000000E+00  0.39999999673E+01  0.40000000000E+01  0.51109989000E-03 0. -1.
     -623   -1    0    0    0    0  0.00000000000E+00  0.00000000000E+00  0.12525980253E-10  0.17130000000E+03  0.17130000000E+03 0. -1.
       11    1    1    2    0    0  0.98522315197E-05 -0.79474985666E-03  0.10970186092E+00  0.10970593071E+00  0.51109989000E-03 0. -1.
     -623    1    1    2    0    0  0.99246781671E-03 -0.26856055726E-03  0.55725021791E-04  0.17130000000E+03  0.17130000000E+03 0. -1.
      622    1    1    2    0    0 -0.10023200482E-02  0.10633104139E-02  0.38902423814E+01  0.38902940662E+01  0.20000000000E-01 0. -1.
</event>
<event>
 5   0  0.3603037E+08  0.9118800E+02  0.7818608E-02  0.1180000E+00
       11   -1    0    0    0    0  0.00000000000E+00  0.00000000000E+00  0.39999999673E+01  0.40000000000E+01  0.51109989000E-03 0. -1.
     -623   -1    0    0    0    0  0.00000000000E+00  0.00000000000E+00  0.12525980253E-10  0.17130000000E+03  0.17130000000E+03 0. -1.
       11    1    1    2    0    0  0.98410475532E-02  0.39383494406E-02  0.33447380428E+00  0.33464211299E+00  0.51109989000E-03 0. -1.
     -623    1    1    2    0    0 -0.18182145872E-02 -0.18388933983E-01  0.26110487720E-03  0.17130000100E+03  0.17130000000E+03 0. -1.
      622    1    1    2    0    0 -0.80228329659E-02  0.14450584542E-01  0.36652650582E+01  0.36653568901E+01  0.20000000000E-01 0. -1.
</event>
<event>
 5   0  0.3603037E+08  0.9118800E+02  0.7818608E-02  0.1180000E+00
       11   -1    0    0    0    0  0.00000000000E+00  0.00000000000E+00  0.39999999673E+01  0.40000000000E+01  0.51109989000E-03 0.  1.
     -623   -1    0    0    0    0  0.00000000000E+00  0.00000000000E+00  0.12525980253E-10  0.17130000000E+03  0.17130000000E+03 0.  1.
       11    1    1    2    0    0  0.85665180238E-02  0.34288822447E-02  0.14248146876E+01  0.14248446573E+01  0.51109989000E-03 0.  1.
     -623    1    1    2    0    0 -0.24921088302E-02  0.32064625547E-02  0.12336512866E-03  0.17130000005E+03  0.17130000000E+03 0.  1.
      622    1    1    2    0    0 -0.60744091936E-02 -0.66353447994E-02  0.25750619147E+01  0.25751552945E+01  0.20000000000E-01 0.  1.
</event>
<event>
 5   0  0.3603037E+08  0.9118800E+02  0.7818608E-02  0.1180000E+00
       11   -1    0    0    0    0  0.00000000000E+00  0.00000000000E+00  0.39999999673E+01  0.40000000000E+01  0.51109989000E-03 0. -1.
     -623   -1    0    0    0    0  0.00000000000E+00  0.00000000000E+00  0.12525980253E-10  0.17130000000E+03  0.17130000000E+03 0.  1.
       11    1    1    2    0    0  0.12077162762E-03  0.11217535989E-02  0.13052852594E-01  0.13111487317E-01  0.51109989000E-03 0. -1.
     -623    1    1    2    0    0  0.78291473901E-03 -0.81852399799E-03  0.10888456031E-03  0.17130000000E+03  0.17130000000E+03 0.  1.
      622    1    1    2    0    0 -0.90368636663E-03 -0.30322960091E-03  0.39868382302E+01  0.39868885089E+01  0.20000000000E-01 0. -1.
</event>
<event>
 5   0  0.3603037E+08  0.9118800E+02  0.7818608E-02  0.1180000E+00
       11   -1    0    0    0    0  0.00000000000E+00  0.00000000000E+00  0.39999999673E+01  0.40000000000E+01  0.51109989000E-03 0. -1.
     -623   -1    0    0    0    0  0.00000000000E+00  0.00000000000E+00  0.12525980253E-10  0.17130000000E+03  0.17130000000E+03 0. -1.
       11    1    1    2    0    0  0.24580636796E-01 -0.54909777185E-02  0.73462821135E+00  0.73506001706E+00  0.51109989000E-03 0. -1.
     -623    1    1    2    0    0 -0.11011316130E-02 -0.24973720847E-02  0.58725427488E-03  0.17130000002E+03  0.17130000000E+03 0. -1.
      622    1    1    2    0    0 -0.23479505183E-01  0.79883498031E-02  0.32647845017E+01  0.32649399602E+01  0.20000000000E-01 0. -1.
</event>
<event>
 5   0  0.3603037E+08  0.9118800E+02  0.7818608E-02  0.1180000E+00
       11   -1    0    0    0    0  0.00000000000E+00  0.00000000000E+00  0.39999999673E+01  0.40000000000E+01  0.51109989000E-03 0. -1.
     -623   -1    0    0    0    0  0.00000000000E+00  0.00000000000E+00  0.12525980253E-10  0.17130000000E+03  0.17130000000E+03 0.  1.
       11    1    1    2    0    0  0.90075580231E-03 -0.79666110866E-03  0.24058130568E-01  0.24093586253E-01  0.51109989000E-03 0. -1.
     -623    1    1    2    0    0 -0.11241121562E-02 -0.38945698235E-03  0.85913712778E-04  0.17130000000E+03  0.17130000000E+03 0.  1.
      622    1    1    2    0    0  0.22335635385E-03  0.11861180910E-02  0.39758559231E+01  0.39759064096E+01  0.20000000000E-01 0. -1.
</event>
<event>
 5   0  0.3603037E+08  0.9118800E+02  0.7818608E-02  0.1180000E+00
       11   -1    0    0    0    0  0.00000000000E+00  0.00000000000E+00  0.39999999673E+01  0.40000000000E+01  0.51109989000E-03 0. -1.
     -623   -1    0    0    0    0  0.00000000000E+00  0.00000000000E+00  0.12525980253E-10  0.17130000000E+03  0.17130000000E+03 0.  1.
       11    1    1    2    0    0 -0.36435968412E-02  0.79014034581E-02  0.41228318743E+00  0.41237530944E+00  0.51109989000E-03 0. -1.
     -623    1    1    2    0    0  0.86122119285E-03  0.49097643698E-03  0.15873502293E-03  0.17130000000E+03  0.17130000000E+03 0.  1.
      622    1    1    2    0    0  0.27823756484E-02 -0.83923798951E-02  0.35875580449E+01  0.35876246876E+01  0.20000000000E-01 0. -1.
</event>
<event>
 5   0  0.3603037E+08  0.9118800E+02  0.7818608E-02  0.1180000E+00
       11   -1    0    0    0    0  0.00000000000E+00  0.00000000000E+00  0.39999999673E+01  0.40000000000E+01  0.51109989000E-03 0.  1.
     -623   -1    0    0    0    0  0.00000000000E+00  0.00000000000E+00  0.12525980253E-10  0.17130000000E+03  0.17130000000E+03 0.  1.
       11    1    1    2    0    0 -0.35686586202E-02 -0.14765333911E-02  0.45075807069E-01  0.45243840245E-01  0.51109989000E-03 0.  1.
     -623    1    1    2    0    0  0.21665008765E-02  0.30117847178E-02  0.21915976414E-03  0.17130000004E+03  0.17130000000E+03 0.  1.
      622    1    1    2    0    0  0.14021577437E-02 -0.15352513267E-02  0.39547050005E+01  0.39547561194E+01  0.20000000000E-01 0.  1.
</event>
<event>
 5   0  0.3603037E+08  0.9118800E+02  0.7818608E-02  0.1180000E+00
       11   -1    0    0    0    0  0.00000000000E+00  0.00000000000E+00  0.39999999673E+01  0.40000000000E+01  0.51109989000E-03 0. -1.
     -623   -1    0    0    0    0  0.00000000000E+00  0.00000000000E+00  0.12525980253E-10  0.17130000000E+03  0.17130000000E+03 0. -1.
       11    1    1    2    0    0 -0.12609308685E-02  0.70244005024E-02  0.47689376297E+00  0.47694743371E+00  0.51109989000E-03 0. -1.
     -623    1    1    2    0    0 -0.21379672393E-03 -0.28297848593E-04  0.11766292909E-03  0.17130000000E+03  0.17130000000E+03 0. -1.
      622    1    1    2    0    0  0.14747275925E-02 -0.69961026538E-02  0.35229885415E+01  0.35230525661E+01  0.20000000000E-01 0. -1.
</event>
<event>
 5   0  0.3603037E+08  0.9118800E+02  0.7818608E-02  0.1180000E+00
       11   -1    0    0    0    0  0.00000000000E+00  0.00000000000E+00  0.39999999673E+01  0.40000000000E+01  0.51109989000E-03 0.  1.
     -623   -1    0    0    0    0  0.00000000000E+00  0.00000000000E+00  0.12525980253E-10  0.17130000000E+03  0.17130000000E+03 0. -1.
       11    1    1    2    0    0  0.22678018939E-03  0.17519814020E-02  0.41243184961E-01  0.41284166411E-01  0.51109989000E-03 0.  1.
     -623    1    1    2    0    0 -0.24653779180E-03 -0.16623532865E-03  0.91788503815E-04  0.17130000000E+03  0.17130000000E+03 0. -1.
      622    1    1    2    0    0  0.19757602416E-04 -0.15857460733E-02  0.39586649939E+01  0.39587158333E+01  0.20000000000E-01 0.  1.
</event>
<event>
 5   0  0.3603037E+08  0.9118800E+02  0.7818608E-02  0.1180000E+00
       11   -1    0    0    0    0  0.00000000000E+00  0.00000000000E+00  0.39999999673E+01  0.40000000000E+01  0.51109989000E-03 0.  1.
     -623   -1    0    0    0    0  0.00000000000E+00  0.00000000000E+00  0.12525980253E-10  0.17130000000E+03  0.17130000000E+03 0.  1.
       11    1    1    2    0    0 -0.10428004319E-02 -0.27912698673E-02  0.85900948974E+00  0.85901480971E+00  0.51109989000E-03 0.  1.
     -623    1    1    2    0    0  0.35369609208E-02  0.48656317228E-02  0.70743177231E-04  0.17130000011E+03  0.17130000000E+03 0.  1.
      622    1    1    2    0    0 -0.24941604889E-02 -0.20743618555E-02  0.31409197344E+01  0.31409850847E+01  0.20000000000E-01 0.  1.
</event>
<event>
 5   0  0.3603037E+08  0.9118800E+02  0.7818608E-02  0.1180000E+00
       11   -1    0    0    0    0  0.00000000000E+00  0.00000000000E+00  0.39999999673E+01  0.40000000000E+01  0.51109989000E-03 0.  1.
     -623   -1    0    0    0    0  0.00000000000E+00  0.00000000000E+00  0.12525980253E-10  0.17130000000E+03  0.17130000000E+03 0.  1.
       11    1    1    2    0    0  0.10034391606E-02  0.25177406948E-02  0.23331406681E+00  0.23333036858E+00  0.51109989000E-03 0.  1.
     -623    1    1    2    0    0  0.15633407843E-03 -0.57773241578E-04  0.70348751476E-04  0.17130000000E+03  0.17130000000E+03 0.  1.
      622    1    1    2    0    0 -0.11597732390E-02 -0.24599674533E-02  0.37666155518E+01  0.37666696313E+01  0.20000000000E-01 0.  1.
</event>
<event>
 5   0  0.3603037E+08  0.9118800E+02  0.7818608E-02  0.1180000E+00
       11   -1    0    0    0    0  0.00000000000E+00  0.00000000000E+00  0.39999999673E+01  0.40000000000E+01  0.51109989000E-03 0. -1.
     -623   -1    0    0    0    0  0.00000000000E+00  0.00000000000E+00  0.12525980253E-10  0.17130000000E+03  0.17130000000E+03 0. -1.
       11    1    1    2    0    0 -0.29196834443E-02  0.13254104762E-01  0.19451555439E+00  0.19498912268E+00  0.51109989000E-03 0. -1.
     -623    1    1    2    0    0 -0.66024176853E-03  0.16271531640E-02  0.55689284521E-03  0.17130000001E+03  0.17130000000E+03 0. -1.
      622    1    1    2    0    0  0.35799252128E-02 -0.14881257926E-01  0.38049275201E+01  0.38050108674E+01  0.20000000000E-01 0.  0.
</event>
<event>
 5   0  0.3603037E+08  0.9118800E+02  0.7818608E-02  0.1180000E+00
       11   -1    0    0    0    0  0.00000000000E+00  0.00000000000E+00  0.39999999673E+01  0.40000000000E+01  0.51109989000E-03 0. -1.
     -623   -1    0    0    0    0  0.00000000000E+00  0.00000000000E+00  0.12525980253E-10  0.17130000000E+03  0.17130000000E+03 0.  1.
       11    1    1    2    0    0 -0.59625064981E-03  0.71760823399E-03  0.79287870108E-01  0.79295006433E-01  0.51109989000E-03 0. -1.
     -623    1    1    2    0    0 -0.14251447671E-02 -0.96156649267E-03  0.58652570480E-04  0.17130000001E+03  0.17130000000E+03 0.  1.
      622    1    1    2    0    0  0.20213954170E-02  0.24395825869E-03  0.39206534447E+01  0.39207049849E+01  0.20000000000E-01 0. -1.
</event>
<event>
 5   0  0.3603037E+08  0.9118800E+02  0.7818608E-02  0.1180000E+00
       11   -1    0    0    0    0  0.00000000000E+00  0.00000000000E+00  0.39999999673E+01  0.40000000000E+01  0.51109989000E-03 0.  1.
     -623   -1    0    0    0    0  0.00000000000E+00  0.00000000000E+00  0.12525980253E-10  0.17130000000E+03  0.17130000000E+03 0. -1.
       11    1    1    2    0    0  0.56260413886E-02  0.50677708206E-02  0.21081814088E+01  0.21081950689E+01  0.51109989000E-03 0.  1.
     -623    1    1    2    0    0 -0.69938569663E-04  0.16351709973E-02  0.13939229973E-03  0.17130000001E+03  0.17130000000E+03 0. -1.
      622    1    1    2    0    0 -0.55561028189E-02 -0.67029418179E-02  0.18916791662E+01  0.18918049233E+01  0.20000000000E-01 0.  0.
</event>
<event>
 5   0  0.3603037E+08  0.9118800E+02  0.7818608E-02  0.1180000E+00
       11   -1    0    0    0    0  0.00000000000E+00  0.00000000000E+00  0.39999999673E+01  0.40000000000E+01  0.51109989000E-03 0. -1.
     -623   -1    0    0    0    0  0.00000000000E+00  0.00000000000E+00  0.12525980253E-10  0.17130000000E+03  0.17130000000E+03 0. -1.
       11    1    1    2    0    0  0.12339725433E-02  0.21769343403E-04  0.79975856907E-01  0.79987011898E-01  0.51109989000E-03 0. -1.
     -623    1    1    2    0    0  0.66685894367E-04 -0.35561770775E-03  0.62373313769E-04  0.17130000000E+03  0.17130000000E+03 0. -1.
      622    1    1    2    0    0 -0.13006584377E-02  0.33384836435E-03  0.39199617371E+01  0.39200129877E+01  0.20000000000E-01 0. -1.
</event>
<event>
 5   0  0.3603037E+08  0.9118800E+02  0.7818608E-02  0.1180000E+00
       11   -1    0    0    0    0  0.00000000000E+00  0.00000000000E+00  0.39999999673E+01  0.40000000000E+01  0.51109989000E-03 0. -1.
     -623   -1    0    0    0    0  0.00000000000E+00  0.00000000000E+00  0.12525980253E-10  0.17130000000E+03  0.17130000000E+03 0. -1.
       11    1    1    2    0    0  0.20354915347E-02 -0.61311206966E-03  0.27835513895E+00  0.27836372560E+00  0.51109989000E-03 0. -1.
     -623    1    1    2    0    0 -0.34786449617E-03  0.29785792540E-03  0.62690827831E-04  0.17130000000E+03  0.17130000000E+03 0. -1.
      622    1    1    2    0    0 -0.16876270386E-02  0.31525414425E-03  0.37215821376E+01  0.37216362738E+01  0.20000000000E-01 0. -1.
</event>
<event>
 5   0  0.3603037E+08  0.9118800E+02  0.7818608E-02  0.1180000E+00
       11   -1    0    0    0    0  0.00000000000E+00  0.00000000000E+00  0.39999999673E+01  0.40000000000E+01  0.51109989000E-03 0. -1.
     -623   -1    0    0    0    0  0.00000000000E+00  0.00000000000E+00  0.12525980253E-10  0.17130000000E+03  0.17130000000E+03 0.  1.
       11    1    1    2    0    0 -0.19388127120E-01  0.21063121171E-03  0.13425424479E+01  0.13426825498E+01  0.51109989000E-03 0. -1.
     -623    1    1    2    0    0  0.18366177362E-01 -0.47268108018E-02  0.22041845027E-03  0.17130000105E+03  0.17130000000E+03 0.  1.
      622    1    1    2    0    0  0.10219497589E-02  0.45161795901E-02  0.26572371010E+01  0.26573164003E+01  0.20000000000E-01 0.  0.
</event>
<event>
 5   0  0.3603037E+08  0.9118800E+02  0.7818608E-02  0.1180000E+00
       11   -1    0    0    0    0  0.00000000000E+00  0.00000000000E+00  0.39999999673E+01  0.40000000000E+01  0.51109989000E-03 0. -1.
     -623   -1    0    0    0    0  0.00000000000E+00  0.00000000000E+00  0.12525980253E-10  0.17130000000E+03  0.17130000000E+03 0. -1.
       11    1    1    2    0    0  0.74314872104E-02 -0.10103428453E-01  0.93616651472E+00  0.93625066664E+00  0.51109989000E-03 0. -1.
     -623    1    1    2    0    0 -0.14636343760E-02  0.93084152436E-02  0.15557434750E-03  0.17130000026E+03  0.17130000000E+03 0. -1.
      622    1    1    2    0    0 -0.59678528345E-02  0.79501320923E-03  0.30636778783E+01  0.30637490741E+01  0.20000000000E-01 0. -1.
</event>
<event>
 5   0  0.3603037E+08  0.9118800E+02  0.7818608E-02  0.1180000E+00
       11   -1    0    0    0    0  0.00000000000E+00  0.00000000000E+00  0.39999999673E+01  0.40000000000E+01  0.51109989000E-03 0.  1.
     -623   -1    0    0    0    0  0.00000000000E+00  0.00000000000E+00  0.12525980253E-10  0.17130000000E+03  0.17130000000E+03 0. -1.
       11    1    1    2    0    0  0.12424271766E-03 -0.20742335179E-03  0.38504037953E+00  0.38504079466E+00  0.51109989000E-03 0.  1.
     -623    1    1    2    0    0 -0.21382523157E-02  0.17409170544E-03  0.56283211029E-04  0.17130000001E+03  0.17130000000E+03 0. -1.
      622    1    1    2    0    0  0.20140095980E-02  0.33331646351E-04  0.36149033046E+01  0.36149591919E+01  0.20000000000E-01 0.  1.
</event>
<event>
 5   0  0.3603037E+08  0.9118800E+02  0.7818608E-02  0.1180000E+00
       11   -1    0    0    0    0  0.00000000000E+00  0.00000000000E+00  0.39999999673E+01  0.40000000000E+01  0.51109989000E-03 0. -1.
     -623   -1    0    0    0    0  0.00000000000E+00  0.00000000000E+00  0.12525980253E-10  0.17130000000E+03  0.17130000000E+03 0.  1.
       11    1    1    2    0    0 -0.31816271882E-03  0.15838025073E-02  0.53885934296E-02  0.56487006166E-02  0.51109989000E-03 0. -1.
     -623    1    1    2    0    0  0.12129674374E-02 -0.18776339939E-03  0.31049443884E-03  0.17130000000E+03  0.17130000000E+03 0.  1.
      622    1    1    2    0    0 -0.89480471860E-03 -0.13960391079E-02  0.39943008795E+01  0.39943512947E+01  0.20000000000E-01 0. -1.
</event>
<event>
 5   0  0.3603037E+08  0.9118800E+02  0.7818608E-02  0.1180000E+00
       11   -1    0    0    0    0  0.00000000000E+00  0.00000000000E+00  0.39999999673E+01  0.40000000000E+01  0.51109989000E-03 0. -1.
     -623   -1    0    0    0    0  0.00000000000E+00  0.00000000000E+00  0.12525980253E-10  0.17130000000E+03  0.17130000000E+03 0.  1.
       11    1    1    2    0    0  0.58676140015E-03  0.20035186593E-02  0.88706997508E+00  0.88707257893E+00  0.51109989000E-03 0. -1.
     -623    1    1    2    0    0 -0.28798049984E-04 -0.26862828409E-03  0.67353761726E-04  0.17130000000E+03  0.17130000000E+03 0.  1.
      622    1    1    2    0    0 -0.55796335016E-03 -0.17348903752E-02  0.31128626385E+01  0.31129274208E+01  0.20000000000E-01 0. -1.
</event>
<event>
 5   0  0.3603037E+08  0.9118800E+02  0.7818608E-02  0.1180000E+00
       11   -1    0    0    0    0  0.00000000000E+00  0.00000000000E+00  0.39999999673E+01  0.40000000000E+01  0.51109989000E-03 0. -1.
     -623   -1    0    0    0    0  0.00000000000E+00  0.00000000000E+00  0.12525980253E-10  0.17130000000E+03  0.17130000000E+03 0.  1.
       11    1    1    2    0    0  0.16869160300E-01 -0.19336259308E-04  0.15281031368E+01  0.15281963313E+01  0.51109989000E-03 0. -1.
     -623    1    1    2    0    0 -0.51830891658E-03  0.31070059698E-03  0.22817647976E-03  0.17130000000E+03  0.17130000000E+03 0.  1.
      622    1    1    2    0    0 -0.16350851384E-01 -0.29136433768E-03  0.24716686541E+01  0.24718036675E+01  0.20000000000E-01 0.  0.
</event>
<event>
 5   0  0.3603037E+08  0.9118800E+02  0.7818608E-02  0.1180000E+00
       11   -1    0    0    0    0  0.00000000000E+00  0.00000000000E+00  0.39999999673E+01  0.40000000000E+01  0.51109989000E-03 0.  1.
     -623   -1    0    0    0    0  0.00000000000E+00  0.00000000000E+00  0.12525980253E-10  0.17130000000E+03  0.17130000000E+03 0.  1.
       11    1    1    2    0    0  0.22020793227E-01  0.11082095712E-01  0.12104341478E+01  0.12106852670E+01  0.51109989000E-03 0.  1.
     -623    1    1    2    0    0 -0.29014521758E-03 -0.38110975764E-02  0.41696176496E-03  0.17130000004E+03  0.17130000000E+03 0.  1.
      622    1    1    2    0    0 -0.21730648010E-01 -0.72709981353E-02  0.27891488578E+01  0.27893146899E+01  0.20000000000E-01 0.  1.
</event>
<event>
 5   0  0.3603037E+08  0.9118800E+02  0.7818608E-02  0.1180000E+00
       11   -1    0    0    0    0  0.00000000000E+00  0.00000000000E+00  0.39999999673E+01  0.40000000000E+01  0.51109989000E-03 0.  1.
     -623   -1    0    0    0    0  0.00000000000E+00  0.00000000000E+00  0.12525980253E-10  0.17130000000E+03  0.17130000000E+03 0. -1.
       11    1    1    2    0    0  0.78735935307E-02 -0.21347265295E-01  0.56651181168E+00  0.56696877622E+00  0.51109989000E-03 0.  1.
     -623    1    1    2    0    0  0.62364216476E-02  0.43526730651E-02  0.58642263688E-03  0.17130000017E+03  0.17130000000E+03 0. -1.
      622    1    1    2    0    0 -0.14110015178E-01  0.16994592230E-01  0.34329017330E+01  0.34330310540E+01  0.20000000000E-01 0.  1.
</event>
<event>
 5   0  0.3603037E+08  0.9118800E+02  0.7818608E-02  0.1180000E+00
       11   -1    0    0    0    0  0.00000000000E+00  0.00000000000E+00  0.39999999673E+01  0.40000000000E+01  0.51109989000E-03 0. -1.
     -623   -1    0    0    0    0  0.00000000000E+00  0.00000000000E+00  0.12525980253E-10  0.17130000000E+03  0.17130000000E+03 0. -1.
       11    1    1    2    0    0 -0.68125462410E-02  0.20428426465E-02  0.44006044371E-01  0.44580008473E-01  0.51109989000E-03 0. -1.
     -623    1    1    2    0    0  0.25170111516E-02  0.60573361864E-02  0.63524873163E-03  0.17130000013E+03  0.17130000000E+03 0. -1.
      622    1    1    2    0    0  0.42955350894E-02 -0.81001788330E-02  0.39553586743E+01  0.39554198648E+01  0.20000000000E-01 0. -1.
</event>
<event>
 5   0  0.3603037E+08  0.9118800E+02  0.7818608E-02  0.1180000E+00
       11   -1    0    0    0    0  0.00000000000E+00  0.00000000000E+00  0.39999999673E+01  0.40000000000E+01  0.51109989000E-03 0. -1.
     -623   -1    0    0    0    0  0.00000000000E+00  0.00000000000E+00  0.12525980253E-10  0.17130000000E+03  0.17130000000E+03 0. -1.
       11    1    1    2    0    0  0.62747130494E-02  0.87429397645E-02  0.30147353779E+00  0.30166598454E+00  0.51109989000E-03 0. -1.
     -623    1    1    2    0    0  0.14095535563E-02  0.22191148526E-02  0.27074282762E-03  0.17130000002E+03  0.17130000000E+03 0. -1.
      622    1    1    2    0    0 -0.76842666057E-02 -0.10962054617E-01  0.36982556867E+01  0.36983339951E+01  0.20000000000E-01 0. -1.
</event>
<event>
 5   0  0.3603037E+08  0.9118800E+02  0.7818608E-02  0.1180000E+00
       11   -1    0    0    0    0  0.00000000000E+00  0.00000000000E+00  0.39999999673E+01  0.40000000000E+01  0.51109989000E-03 0. -1.
     -623   -1    0    0    0    0  0.00000000000E+00  0.00000000000E+00  0.12525980253E-10  0.17130000000E+03  0.17130000000E+03 0. -1.
       11    1    1    2    0    0 -0.44536399604E-02  0.13722953543E-01  0.13280868897E+01  0.13281653519E+01  0.51109989000E-03 0. -1.
     -623    1    1    2    0    0 -0.20326534553E-03 -0.16960876133E-02  0.18442225926E-03  0.17130000001E+03  0.17130000000E+03 0. -1.
      622    1    1    2    0    0  0.46569053060E-02 -0.12026865930E-01  0.26717286554E+01  0.26718346395E+01  0.20000000000E-01 0. -1.
</event>
<event>
 5   0  0.3603037E+08  0.9118800E+02  0.7818608E-02  0.1180000E+00
       11   -1    0    0    0    0  0.00000000000E+00  0.00000000000E+00  0.39999999673E+01  0.40000000000E+01  0.51109989000E-03 0. -1.
     -623   -1    0    0    0    0  0.00000000000E+00  0.00000000000E+00  0.12525980253E-10  0.17130000000E+03  0.17130000000E+03 0.  1.
       11    1    1    2    0    0 -0.17323283923E-02  0.17190536246E-02  0.24249076762E-01  0.24376936898E-01  0.51109989000E-03 0. -1.
     -623    1    1    2    0    0  0.42611515374E-02 -0.12926612276E-02  0.17901951148E-03  0.17130000006E+03  0.17130000000E+03 0.  1.
      622    1    1    2    0    0 -0.25288231451E-02 -0.42639239710E-03  0.39755718711E+01  0.39756230051E+01  0.20000000000E-01 0. -1.
</event>
<event>
 5   0  0.3603037E+08  0.9118800E+02  0.7818608E-02  0.1180000E+00
       11   -1    0    0    0    0  0.00000000000E+00  0.00000000000E+00  0.39999999673E+01  0.40000000000E+01  0.51109989000E-03 0.  1.
     -623   -1    0    0    0    0  0.00000000000E+00  0.00000000000E+00  0.12525980253E-10  0.17130000000E+03  0.17130000000E+03 0.  1.
       11    1    1    2    0    0 -0.44787069031E-02  0.35321280741E-02  0.35524626944E-01  0.35983261173E-01  0.51109989000E-03 0.  1.
     -623    1    1    2    0    0  0.59397073765E-03 -0.21942409865E-02  0.51120095171E-03  0.17130000002E+03  0.17130000000E+03 0.  1.
      622    1    1    2    0    0  0.38847361654E-02 -0.13378870877E-02  0.39639641395E+01  0.39640167230E+01  0.20000000000E-01 0.  1.
</event>
<event>
 5   0  0.3603037E+08  0.9118800E+02  0.7818608E-02  0.1180000E+00
       11   -1    0    0    0    0  0.00000000000E+00  0.00000000000E+00  0.39999999673E+01  0.40000000000E+01  0.51109989000E-03 0.  1.
     -623   -1    0    0    0    0  0.00000000000E+00  0.00000000000E+00  0.12525980253E-10  0.17130000000E+03  0.17130000000E+03 0. -1.
       11    1    1    2    0    0  0.12506895331E-02  0.28137976970E-03  0.85623081712E-02  0.86728162055E-02  0.51109989000E-03 0.  1.
     -623    1    1    2    0    0 -0.40693435536E-03 -0.17487240698E-02  0.16095275035E-03  0.17130000001E+03  0.17130000000E+03 0. -1.
      622    1    1    2    0    0 -0.84375517778E-03  0.14673443001E-02  0.39912767064E+01  0.39913271743E+01  0.20000000000E-01 0.  1.
</event>
<event>
 5   0  0.3603037E+08  0.9118800E+02  0.7818608E-02  0.1180000E+00
       11   -1    0    0    0    0  0.00000000000E+00  0.00000000000E+00  0.39999999673E+01  0.40000000000E+01  0.51109989000E-03 0.  1.
     -623   -1    0    0    0    0  0.00000000000E+00  0.00000000000E+00  0.12525980253E-10  0.17130000000E+03  0.17130000000E+03 0. -1.
       11    1    1    2    0    0  0.32653208255E-02 -0.47389308035E-02  0.12093282079E+01  0.12093420092E+01  0.51109989000E-03 0.  1.
     -623    1    1    2    0    0 -0.84540778037E-03 -0.22100197429E-03  0.90896693302E-04  0.17130000000E+03  0.17130000000E+03 0. -1.
      622    1    1    2    0    0 -0.24199130451E-02  0.49599327778E-02  0.27905808628E+01  0.27906579885E+01  0.20000000000E-01 0.  1.
</event>
<event>
 5   0  0.3603037E+08  0.9118800E+02  0.7818608E-02  0.1180000E+00
       11   -1    0    0    0    0  0.00000000000E+00  0.00000000000E+00  0.39999999673E+01  0.40000000000E+01  0.51109989000E-03 0.  1.
     -623   -1    0    0    0    0  0.00000000000E+00  0.00000000000E+00  0.12525980253E-10  0.17130000000E+03  0.17130000000E+03 0.  1.
       11    1    1    2    0    0  0.12152169437E-03 -0.73234123109E-03  0.20513519966E-01  0.20533309890E-01  0.51109989000E-03 0.  1.
     -623    1    1    2    0    0  0.54011392705E-03  0.19938786829E-02  0.70283028514E-04  0.17130000001E+03  0.17130000000E+03 0.  1.
      622    1    1    2    0    0 -0.66163562142E-03 -0.12615374518E-02  0.39794161644E+01  0.39794666776E+01  0.20000000000E-01 0.  1.
</event>
<event>
 5   0  0.3603037E+08  0.9118800E+02  0.7818608E-02  0.1180000E+00
       11   -1    0    0    0    0  0.00000000000E+00  0.00000000000E+00  0.39999999673E+01  0.40000000000E+01  0.51109989000E-03 0.  1.
     -623   -1    0    0    0    0  0.00000000000E+00  0.00000000000E+00  0.12525980253E-10  0.17130000000E+03  0.17130000000E+03 0.  1.
       11    1    1    2    0    0 -0.32682505632E-03 -0.14313223907E-02  0.82772442625E-02  0.84219648306E-02  0.51109989000E-03 0.  1.
     -623    1    1    2    0    0  0.14572658971E-02  0.12980535495E-02  0.19496726797E-03  0.17130000001E+03  0.17130000000E+03 0.  1.
      622    1    1    2    0    0 -0.11304408408E-02  0.13326884124E-03  0.39915277558E+01  0.39915780239E+01  0.20000000000E-01 0.  1.
</event>
<event>
 5   0  0.3603037E+08  0.9118800E+02  0.7818608E-02  0.1180000E+00
       11   -1    0    0    0    0  0.00000000000E+00  0.00000000000E+00  0.39999999673E+01  0.40000000000E+01  0.51109989000E-03 0. -1.
     -623   -1    0    0    0    0  0.00000000000E+00  0.00000000000E+00  0.12525980253E-10  0.17130000000E+03  0.17130000000E+03 0.  1.
       11    1    1    2    0    0 -0.13016145526E-01 -0.10810789526E-01  0.18317979999E+00  0.18396030430E+00  0.51109989000E-03 0. -1.
     -623    1    1    2    0    0  0.18273251874E-01  0.15180064653E-01  0.84065435491E-03  0.17130000165E+03  0.17130000000E+03 0.  1.
      622    1    1    2    0    0 -0.52571063482E-02 -0.43692751272E-02  0.38159795130E+01  0.38160380464E+01  0.20000000000E-01 0. -1.
</event>
<event>
 5   0  0.3603037E+08  0.9118800E+02  0.7818608E-02  0.1180000E+00
       11   -1    0    0    0    0  0.00000000000E+00  0.00000000000E+00  0.39999999673E+01  0.40000000000E+01  0.51109989000E-03 0. -1.
     -623   -1    0    0    0    0  0.00000000000E+00  0.00000000000E+00  0.12525980253E-10  0.17130000000E+03  0.17130000000E+03 0.  1.
       11    1    1    2    0    0 -0.44158562661E-02  0.78042477198E-02  0.11777906532E+01  0.11778248979E+01  0.51109989000E-03 0. -1.
     -623    1    1    2    0    0 -0.26037790495E-03  0.14145442351E-03  0.12014051284E-03  0.17130000000E+03  0.17130000000E+03 0.  1.
      622    1    1    2    0    0  0.46762341711E-02 -0.79457021433E-02  0.28220891736E+01  0.28221751018E+01  0.20000000000E-01 0. -1.
</event>
<event>
 5   0  0.3603037E+08  0.9118800E+02  0.7818608E-02  0.1180000E+00
       11   -1    0    0    0    0  0.00000000000E+00  0.00000000000E+00  0.39999999673E+01  0.40000000000E+01  0.51109989000E-03 0. -1.
     -623   -1    0    0    0    0  0.00000000000E+00  0.00000000000E+00  0.12525980253E-10  0.17130000000E+03  0.17130000000E+03 0.  1.
       11    1    1    2    0    0 -0.24370905076E-02 -0.11845307574E-02  0.66483853373E+00  0.66484425219E+00  0.51109989000E-03 0. -1.
     -623    1    1    2    0    0  0.30781901984E-02 -0.27084020540E-04  0.65962955523E-04  0.17130000003E+03  0.17130000000E+03 0.  1.
      622    1    1    2    0    0 -0.64109969083E-03  0.12116147780E-02  0.33350954707E+01  0.33351557201E+01  0.20000000000E-01 0. -1.
</event>
<event>
 5   0  0.3603037E+08  0.9118800E+02  0.7818608E-02  0.1180000E+00
       11   -1    0    0    0    0  0.00000000000E+00  0.00000000000E+00  0.39999999673E+01  0.40000000000E+01  0.51109989000E-03 0. -1.
     -623   -1    0    0    0    0  0.00000000000E+00  0.00000000000E+00  0.12525980253E-10  0.17130000000E+03  0.17130000000E+03 0.  1.
       11    1    1    2    0    0 -0.69754685070E-03  0.76661963042E-03  0.68516023676E+00  0.68516121135E+00  0.51109989000E-03 0. -1.
     -623    1    1    2    0    0 -0.42115498624E-02 -0.48447830880E-02  0.67541356439E-04  0.17130000012E+03  0.17130000000E+03 0.  1.
      622    1    1    2    0    0  0.49090967131E-02  0.40781634576E-02  0.33147721892E+01  0.33148386684E+01  0.20000000000E-01 0. -1.
</event>
<event>
 5   0  0.3603037E+08  0.9118800E+02  0.7818608E-02  0.1180000E+00
       11   -1    0    0    0    0  0.00000000000E+00  0.00000000000E+00  0.39999999673E+01  0.40000000000E+01  0.51109989000E-03 0.  1.
     -623   -1    0    0    0    0  0.00000000000E+00  0.00000000000E+00  0.12525980253E-10  0.17130000000E+03  0.17130000000E+03 0. -1.
       11    1    1    2    0    0 -0.46586667397E-03  0.15319885480E-03  0.65684004351E+00  0.65684042543E+00  0.51109989000E-03 0.  1.
     -623    1    1    2    0    0 -0.32587881141E-03  0.14907266848E-03  0.60281269162E-04  0.17130000000E+03  0.17130000000E+03 0. -1.
      622    1    1    2    0    0  0.79174548537E-03 -0.30227152328E-03  0.33430996426E+01  0.33431595742E+01  0.20000000000E-01 0.  1.
</event>
<event>
 5   0  0.3603037E+08  0.9118800E+02  0.7818608E-02  0.1180000E+00
       11   -1    0    0    0    0  0.00000000000E+00  0.00000000000E+00  0.39999999673E+01  0.40000000000E+01  0.51109989000E-03 0.  1.
     -623   -1    0    0    0    0  0.00000000000E+00  0.00000000000E+00  0.12525980253E-10  0.17130000000E+03  0.17130000000E+03 0. -1.
       11    1    1    2    0    0 -0.31281539929E-02  0.11767503897E-01  0.53895989350E+00  0.53909766047E+00  0.51109989000E-03 0.  1.
     -623    1    1    2    0    0  0.26095172995E-02  0.26731660504E-03  0.21650743276E-03  0.17130000002E+03  0.17130000000E+03 0. -1.
      622    1    1    2    0    0  0.51863669342E-03 -0.12034820502E-01  0.34608235664E+01  0.34609023193E+01  0.20000000000E-01 0.  1.
</event>
<event>
 5   0  0.3603037E+08  0.9118800E+02  0.7818608E-02  0.1180000E+00
       11   -1    0    0    0    0  0.00000000000E+00  0.00000000000E+00  0.39999999673E+01  0.40000000000E+01  0.51109989000E-03 0.  1.
     -623   -1    0    0    0    0  0.00000000000E+00  0.00000000000E+00  0.12525980253E-10  0.17130000000E+03  0.17130000000E+03 0.  1.
       11    1    1    2    0    0 -0.12926524583E-02 -0.80397387678E-02  0.14981978720E+00  0.15004178821E+00  0.51109989000E-03 0.  1.
     -623    1    1    2    0    0  0.57772668605E-02  0.14247905956E-02  0.28231583600E-03  0.17130000010E+03  0.17130000000E+03 0.  1.
      622    1    1    2    0    0 -0.44846144022E-02  0.66149481722E-02  0.38498978643E+01  0.38499581082E+01  0.20000000000E-01 0.  1.
</event>
<event>
 5   0  0.3603037E+08  0.9118800E+02  0.7818608E-02  0.1180000E+00
       11   -1    0    0    0    0  0.00000000000E+00  0.00000000000E+00  0.39999999673E+01  0.40000000000E+01  0.51109989000E-03 0.  1.
     -623   -1    0    0    0    0  0.00000000000E+00  0.00000000000E+00  0.12525980253E-10  0.17130000000E+03  0.17130000000E+03 0. -1.
       11    1    1    2    0    0 -0.18822225259E-02 -0.12283370080E-02  0.26407032763E+00  0.26408038687E+00  0.51109989000E-03 0.  1.
     -623    1    1    2    0    0  0.21971231359E-03  0.39734709771E-04  0.64120487782E-04  0.17130000000E+03  0.17130000000E+03 0. -1.
      622    1    1    2    0    0  0.16625102123E-02  0.11886022983E-02  0.37358655192E+01  0.37359196130E+01  0.20000000000E-01 0.  0.
</event>
<event>
 5   0  0.3603037E+08  0.9118800E+02  0.7818608E-02  0.1180000E+00
       11   -1    0    0    0    0  0.00000000000E+00  0.00000000000E+00  0.39999999673E+01  0.40000000000E+01  0.51109989000E-03 0.  1.
     -623   -1    0    0    0    0  0.00000000000E+00  0.00000000000E+00  0.12525980253E-10  0.17130000000E+03  0.17130000000E+03 0.  1.
       11    1    1    2    0    0 -0.16454898918E-02 -0.18334057201E-02  0.54828146230E-01  0.54885843834E-01  0.51109989000E-03 0.  1.
     -623    1    1    2    0    0  0.29721946549E-03 -0.20194409938E-02  0.11048489136E-03  0.17130000001E+03  0.17130000000E+03 0.  1.
      622    1    1    2    0    0  0.13482704263E-02  0.38528467139E-02  0.39450613362E+01  0.39451141440E+01  0.20000000000E-01 0.  1.
</event>
<event>
 5   0  0.3603037E+08  0.9118800E+02  0.7818608E-02  0.1180000E+00
       11   -1    0    0    0    0  0.00000000000E+00  0.00000000000E+00  0.39999999673E+01  0.40000000000E+01  0.51109989000E-03 0.  1.
     -623   -1    0    0    0    0  0.00000000000E+00  0.00000000000E+00  0.12525980253E-10  0.17130000000E+03  0.17130000000E+03 0.  1.
       11    1    1    2    0    0  0.67753032994E-03  0.16466040067E-02  0.20590275171E-01  0.20673437203E-01  0.51109989000E-03 0.  1.
     -623    1    1    2    0    0 -0.72947092698E-05  0.19008803846E-03  0.13386994807E-03  0.17130000000E+03  0.17130000000E+03 0.  1.
      622    1    1    2    0    0 -0.67023562067E-03 -0.18366920452E-02  0.39792758222E+01  0.39793265626E+01  0.20000000000E-01 0.  1.
</event>
<event>
 5   0  0.3603037E+08  0.9118800E+02  0.7818608E-02  0.1180000E+00
       11   -1    0    0    0    0  0.00000000000E+00  0.00000000000E+00  0.39999999673E+01  0.40000000000E+01  0.51109989000E-03 0. -1.
     -623   -1    0    0    0    0  0.00000000000E+00  0.00000000000E+00  0.12525980253E-10  0.17130000000E+03  0.17130000000E+03 0.  1.
       11    1    1    2    0    0  0.92399737619E-02  0.31009558719E-04  0.40996000299E+00  0.41006443804E+00  0.51109989000E-03 0. -1.
     -623    1    1    2    0    0  0.46141740616E-04 -0.15287975948E-03  0.17212682457E-03  0.17130000000E+03  0.17130000000E+03 0.  1.
      622    1    1    2    0    0 -0.92861155025E-02  0.12187020076E-03  0.35898678375E+01  0.35899355618E+01  0.20000000000E-01 0. -1.
</event>
<event>
 5   0  0.3603037E+08  0.9118800E+02  0.7818608E-02  0.1180000E+00
       11   -1    0    0    0    0  0.00000000000E+00  0.00000000000E+00  0.39999999673E+01  0.40000000000E+01  0.51109989000E-03 0. -1.
     -623   -1    0    0    0    0  0.00000000000E+00  0.00000000000E+00  0.12525980253E-10  0.17130000000E+03  0.17130000000E+03 0.  1.
       11    1    1    2    0    0 -0.44769032878E-02 -0.62951349374E-02  0.69132791800E+00  0.69137126265E+00  0.51109989000E-03 0. -1.
     -623    1    1    2    0    0  0.74759162091E-03  0.83601080477E-03  0.11036982360E-03  0.17130000000E+03  0.17130000000E+03 0.  1.
      622    1    1    2    0    0  0.37293116669E-02  0.54591241326E-02  0.33085616795E+01  0.33086287336E+01  0.20000000000E-01 0.  0.
</event>
<event>
 5   0  0.3603037E+08  0.9118800E+02  0.7818608E-02  0.1180000E+00
       11   -1    0    0    0    0  0.00000000000E+00  0.00000000000E+00  0.39999999673E+01  0.40000000000E+01  0.51109989000E-03 0.  1.
     -623   -1    0    0    0    0  0.00000000000E+00  0.00000000000E+00  0.12525980253E-10  0.17130000000E+03  0.17130000000E+03 0. -1.
       11    1    1    2    0    0 -0.67080152130E-02  0.30884988424E-03  0.12177586148E+01  0.12177772367E+01  0.51109989000E-03 0.  1.
     -623    1    1    2    0    0 -0.10403039507E-03  0.48291457894E-03  0.98928066802E-04  0.17130000000E+03  0.17130000000E+03 0. -1.
      622    1    1    2    0    0  0.68120456081E-02 -0.79176446318E-03  0.27821424244E+01  0.27822227626E+01  0.20000000000E-01 0.  1.
</event>
<event>
 5   0  0.3603037E+08  0.9118800E+02  0.7818608E-02  0.1180000E+00
       11   -1    0    0    0    0  0.00000000000E+00  0.00000000000E+00  0.39999999673E+01  0.40000000000E+01  0.51109989000E-03 0. -1.
     -623   -1    0    0    0    0  0.00000000000E+00  0.00000000000E+00  0.12525980253E-10  0.17130000000E+03  0.17130000000E+03 0.  1.
       11    1    1    2    0    0 -0.55715201795E-03  0.71035128737E-02  0.12106770919E+00  0.12127828224E+00  0.51109989000E-03 0. -1.
     -623    1    1    2    0    0 -0.84665657287E-03 -0.12970609266E-03  0.26862994468E-03  0.17130000000E+03  0.17130000000E+03 0.  1.
      622    1    1    2    0    0  0.14038085908E-02 -0.69738067811E-02  0.38786636282E+01  0.38787217154E+01  0.20000000000E-01 0. -1.
</event>
<event>
 5   0  0.3603037E+08  0.9118800E+02  0.7818608E-02  0.1180000E+00
       11   -1    0    0    0    0  0.00000000000E+00  0.00000000000E+00  0.39999999673E+01  0.40000000000E+01  0.51109989000E-03 0. -1.
     -623   -1    0    0    0    0  0.00000000000E+00  0.00000000000E+00  0.12525980253E-10  0.17130000000E+03  0.17130000000E+03 0. -1.
       11    1    1    2    0    0 -0.26707983137E-02  0.29095087596E-02  0.41638819236E+00  0.41640723620E+00  0.51109989000E-03 0. -1.
     -623    1    1    2    0    0 -0.62880700376E-04 -0.53999749410E-03  0.76648503152E-04  0.17130000000E+03  0.17130000000E+03 0. -1.
      622    1    1    2    0    0  0.27336790141E-02 -0.23695112655E-02  0.35835351265E+01  0.35835927629E+01  0.20000000000E-01 0. -1.
</event>
<event>
 5   0  0.3603037E+08  0.9118800E+02  0.7818608E-02  0.1180000E+00
       11   -1    0    0    0    0  0.00000000000E+00  0.00000000000E+00  0.39999999673E+01  0.40000000000E+01  0.51109989000E-03 0. -1.
     -623   -1    0    0    0    0  0.00000000000E+00  0.00000000000E+00  0.12525980253E-10  0.17130000000E+03  0.17130000000E+03 0.  1.
       11    1    1    2    0    0 -0.33503230200E-02  0.10789790659E-01  0.46806568628E+00  0.46820229831E+00  0.51109989000E-03 0. -1.
     -623    1    1    2    0    0  0.24481699480E-02 -0.21502416069E-01  0.21093767635E-03  0.17130000137E+03  0.17130000000E+03 0.  1.
      622    1    1    2    0    0  0.90215307206E-03  0.10712625410E-01  0.35317233434E+01  0.35317963345E+01  0.20000000000E-01 0. -1.
</event>
<event>
 5   0  0.3603037E+08  0.9118800E+02  0.7818608E-02  0.1180000E+00
       11   -1    0    0    0    0  0.00000000000E+00  0.00000000000E+00  0.39999999673E+01  0.40000000000E+01  0.51109989000E-03 0. -1.
     -623   -1    0    0    0    0  0.00000000000E+00  0.00000000000E+00  0.12525980253E-10  0.17130000000E+03  0.17130000000E+03 0.  1.
       11    1    1    2    0    0  0.33194996127E-02 -0.10073222269E-01  0.76786459506E+00  0.76793800951E+00  0.51109989000E-03 0. -1.
     -623    1    1    2    0    0 -0.62692527288E-03 -0.66961177376E-03  0.15424061151E-03  0.17130000000E+03  0.17130000000E+03 0.  1.
      622    1    1    2    0    0 -0.26925743398E-02  0.10742834043E-01  0.32319811317E+01  0.32320619880E+01  0.20000000000E-01 0. -1.
</event>
<event>
 5   0  0.3603037E+08  0.9118800E+02  0.7818608E-02  0.1180000E+00
       11   -1    0    0    0    0  0.00000000000E+00  0.00000000000E+00  0.39999999673E+01  0.40000000000E+01  0.51109989000E-03 0. -1.
     -623   -1    0    0    0    0  0.00000000000E+00  0.00000000000E+00  0.12525980253E-10  0.17130000000E+03  0.17130000000E+03 0.  1.
       11    1    1    2    0    0 -0.62821376246E-03 -0.13183705617E-02  0.24188201173E-01  0.24237637032E-01  0.51109989000E-03 0. -1.
     -623    1    1    2    0    0 -0.26260721583E-03  0.27042003188E-02  0.10007126342E-03  0.17130000002E+03  0.17130000000E+03 0.  1.
      622    1    1    2    0    0  0.89082097829E-03 -0.13858297571E-02  0.39757116949E+01  0.39757623414E+01  0.20000000000E-01 0. -1.
</event>
<event>
 5   0  0.3603037E+08  0.9118800E+02  0.7818608E-02  0.1180000E+00
       11   -1    0    0    0    0  0.00000000000E+00  0.00000000000E+00  0.39999999673E+01  0.40000000000E+01  0.51109989000E-03 0.  1.
     -623   -1    0    0    0    0  0.00000000000E+00  0.00000000000E+00  0.12525980253E-10  0.17130000000E+03  0.17130000000E+03 0. -1.
       11    1    1    2    0    0  0.44417138164E-03  0.61779586627E-03  0.11018796834E-01  0.11056856005E-01  0.51109989000E-03 0.  1.
     -623    1    1    2    0    0 -0.28416074744E-02  0.41704649520E-03  0.89044238888E-04  0.17130000002E+03  0.17130000000E+03 0. -1.
      622    1    1    2    0    0  0.23974360928E-02 -0.10348423615E-02  0.39888921263E+01  0.39889431199E+01  0.20000000000E-01 0.  1.
</event>
<event>
 5   0  0.3603037E+08  0.9118800E+02  0.7818608E-02  0.1180000E+00
       11   -1    0    0    0    0  0.00000000000E+00  0.00000000000E+00  0.39999999673E+01  0.40000000000E+01  0.51109989000E-03 0. -1.
     -623   -1    0    0    0    0  0.00000000000E+00  0.00000000000E+00  0.12525980253E-10  0.17130000000E+03  0.17130000000E+03 0. -1.
       11    1    1    2    0    0  0.44062477398E-03 -0.93210705454E-03  0.78289050237E-01  0.78297506876E-01  0.51109989000E-03 0. -1.
     -623    1    1    2    0    0 -0.10478836203E-03 -0.25937301141E-04  0.59554037276E-04  0.17130000000E+03  0.17130000000E+03 0. -1.
      622    1    1    2    0    0 -0.33583641195E-03  0.95804435569E-03  0.39216513631E+01  0.39217024931E+01  0.20000000000E-01 0. -1.
</event>
<event>
 5   0  0.3603037E+08  0.9118800E+02  0.7818608E-02  0.1180000E+00
       11   -1    0    0    0    0  0.00000000000E+00  0.00000000000E+00  0.39999999673E+01  0.40000000000E+01  0.51109989000E-03 0. -1.
     -623   -1    0    0    0    0  0.00000000000E+00  0.00000000000E+00  0.12525980253E-10  0.17130000000E+03  0.17130000000E+03 0. -1.
       11    1    1    2    0    0  0.19895449593E-03 -0.96394538812E-03  0.14067555435E+00  0.14067992603E+00  0.51109989000E-03 0. -1.
     -623    1    1    2    0    0 -0.16376358132E-03 -0.40164121100E-03  0.56404309070E-04  0.17130000000E+03  0.17130000000E+03 0. -1.
      622    1    1    2    0    0 -0.35190914613E-04  0.13655865991E-02  0.38592680087E+01  0.38593200734E+01  0.20000000000E-01 0. -1.
</event>
<event>
 5   0  0.3603037E+08  0.9118800E+02  0.7818608E-02  0.1180000E+00
       11   -1    0    0    0    0  0.00000000000E+00  0.00000000000E+00  0.39999999673E+01  0.40000000000E+01  0.51109989000E-03 0.  1.
     -623   -1    0    0    0    0  0.00000000000E+00  0.00000000000E+00  0.12525980253E-10  0.17130000000E+03  0.17130000000E+03 0.  1.
       11    1    1    2    0    0 -0.10841658466E-01 -0.39595150265E-02  0.19585379745E+00  0.19619426728E+00  0.51109989000E-03 0.  1.
     -623    1    1    2    0    0 -0.42508681134E-02  0.55396330266E-02  0.42342969267E-03  0.17130000014E+03  0.17130000000E+03 0.  1.
      622    1    1    2    0    0  0.15092526580E-01 -0.15801180001E-02  0.38037227402E+01  0.38038055899E+01  0.20000000000E-01 0.  1.
</event>
<event>
 5   0  0.3603037E+08  0.9118800E+02  0.7818608E-02  0.1180000E+00
       11   -1    0    0    0    0  0.00000000000E+00  0.00000000000E+00  0.39999999673E+01  0.40000000000E+01  0.51109989000E-03 0.  1.
     -623   -1    0    0    0    0  0.00000000000E+00  0.00000000000E+00  0.12525980253E-10  0.17130000000E+03  0.17130000000E+03 0.  1.
       11    1    1    2    0    0  0.42422928924E-02  0.53653456949E-02  0.53582525461E-01  0.54019739339E-01  0.51109989000E-03 0.  1.
     -623    1    1    2    0    0 -0.10399807369E-02 -0.69940244834E-02  0.48964822669E-03  0.17130000015E+03  0.17130000000E+03 0.  1.
      622    1    1    2    0    0 -0.32023121555E-02  0.16286787885E-02  0.39459277937E+01  0.39459801140E+01  0.20000000000E-01 0.  1.
</event>
<event>
 5   0  0.3603037E+08  0.9118800E+02  0.7818608E-02  0.1180000E+00
       11   -1    0    0    0    0  0.00000000000E+00  0.00000000000E+00  0.39999999673E+01  0.40000000000E+01  0.51109989000E-03 0.  1.
     -623   -1    0    0    0    0  0.00000000000E+00  0.00000000000E+00  0.12525980253E-10  0.17130000000E+03  0.17130000000E+03 0.  1.
       11    1    1    2    0    0  0.33160330418E-03 -0.12879447394E-04  0.17371742340E-01  0.17382427352E-01  0.51109989000E-03 0.  1.
     -623    1    1    2    0    0  0.55641880289E-04  0.10751799017E-02  0.61034816440E-04  0.17130000000E+03  0.17130000000E+03 0.  1.
      622    1    1    2    0    0 -0.38724518447E-03 -0.10623004543E-02  0.39825671902E+01  0.39826175693E+01  0.20000000000E-01 0.  1.
</event>
<event>
 5   0  0.3603037E+08  0.9118800E+02  0.7818608E-02  0.1180000E+00
       11   -1    0    0    0    0  0.00000000000E+00  0.00000000000E+00  0.39999999673E+01  0.40000000000E+01  0.51109989000E-03 0.  1.
     -623   -1    0    0    0    0  0.00000000000E+00  0.00000000000E+00  0.12525980253E-10  0.17130000000E+03  0.17130000000E+03 0.  1.
       11    1    1    2    0    0 -0.66636778786E-04 -0.44643719879E-03  0.11461734699E+00  0.11461937532E+00  0.51109989000E-03 0.  1.
     -623    1    1    2    0    0  0.91433509087E-04 -0.58855390902E-04  0.53504021382E-04  0.17130000000E+03  0.17130000000E+03 0.  1.
      622    1    1    2    0    0 -0.24796730301E-04  0.50529258969E-03  0.38853291163E+01  0.38853806246E+01  0.20000000000E-01 0.  1.
</event>
<event>
 5   0  0.3603037E+08  0.9118800E+02  0.7818608E-02  0.1180000E+00
       11   -1    0    0    0    0  0.00000000000E+00  0.00000000000E+00  0.39999999673E+01  0.40000000000E+01  0.51109989000E-03 0.  1.
     -623   -1    0    0    0    0  0.00000000000E+00  0.00000000000E+00  0.12525980253E-10  0.17130000000E+03  0.17130000000E+03 0.  1.
       11    1    1    2    0    0 -0.40122380110E-02 -0.59321037517E-02  0.11874702891E+00  0.11896388529E+00  0.51109989000E-03 0.  1.
     -623    1    1    2    0    0  0.70128810682E-03 -0.14181200547E-03  0.27452373704E-03  0.17130000000E+03  0.17130000000E+03 0.  1.
      622    1    1    2    0    0  0.33109499042E-02  0.60739157572E-02  0.38809784147E+01  0.38810361130E+01  0.20000000000E-01 0.  1.
</event>
<event>
 5   0  0.3603037E+08  0.9118800E+02  0.7818608E-02  0.1180000E+00
       11   -1    0    0    0    0  0.00000000000E+00  0.00000000000E+00  0.39999999673E+01  0.40000000000E+01  0.51109989000E-03 0. -1.
     -623   -1    0    0    0    0  0.00000000000E+00  0.00000000000E+00  0.12525980253E-10  0.17130000000E+03  0.17130000000E+03 0. -1.
       11    1    1    2    0    0 -0.44543760612E-03  0.39785582464E-02  0.20823794199E+00  0.20827704877E+00  0.51109989000E-03 0. -1.
     -623    1    1    2    0    0  0.32549282876E-02  0.14404769124E-02  0.96771284095E-04  0.17130000004E+03  0.17130000000E+03 0. -1.
      622    1    1    2    0    0 -0.28094906815E-02 -0.54190351589E-02  0.37916652541E+01  0.37917229142E+01  0.20000000000E-01 0.  0.
</event>
<event>
 5   0  0.3603037E+08  0.9118800E+02  0.7818608E-02  0.1180000E+00
       11   -1    0    0    0    0  0.00000000000E+00  0.00000000000E+00  0.39999999673E+01  0.40000000000E+01  0.51109989000E-03 0.  1.
     -623   -1    0    0    0    0  0.00000000000E+00  0.00000000000E+00  0.12525980253E-10  0.17130000000E+03  0.17130000000E+03 0.  1.
       11    1    1    2    0    0 -0.56823323729E-04  0.31805900003E-02  0.26377467399E-01  0.26573509187E-01  0.51109989000E-03 0.  1.
     -623    1    1    2    0    0 -0.41598020289E-03  0.28191651338E-03  0.24788156523E-03  0.17130000000E+03  0.17130000000E+03 0.  1.
      622    1    1    2    0    0  0.47280352662E-03 -0.34625065137E-02  0.39733746184E+01  0.39734264899E+01  0.20000000000E-01 0.  1.
</event>
<event>
 5   0  0.3603037E+08  0.9118800E+02  0.7818608E-02  0.1180000E+00
       11   -1    0    0    0    0  0.00000000000E+00  0.00000000000E+00  0.39999999673E+01  0.40000000000E+01  0.51109989000E-03 0. -1.
     -623   -1    0    0    0    0  0.00000000000E+00  0.00000000000E+00  0.12525980253E-10  0.17130000000E+03  0.17130000000E+03 0. -1.
       11    1    1    2    0    0  0.72313338110E-02 -0.33444496997E-03  0.57126791018E+00  0.57131400338E+00  0.51109989000E-03 0. -1.
     -623    1    1    2    0    0  0.35752826529E-03  0.16980876216E-01  0.15404372913E-03  0.17130000084E+03  0.17130000000E+03 0. -1.
      622    1    1    2    0    0 -0.75888620763E-02 -0.16646431246E-01  0.34285780135E+01  0.34286851545E+01  0.20000000000E-01 0.  0.
</event>
<event>
 5   0  0.3603037E+08  0.9118800E+02  0.7818608E-02  0.1180000E+00
       11   -1    0    0    0    0  0.00000000000E+00  0.00000000000E+00  0.39999999673E+01  0.40000000000E+01  0.51109989000E-03 0.  1.
     -623   -1    0    0    0    0  0.00000000000E+00  0.00000000000E+00  0.12525980253E-10  0.17130000000E+03  0.17130000000E+03 0. -1.
       11    1    1    2    0    0 -0.19745281519E-03 -0.38043931066E-03  0.40232596654E-02  0.40781811774E-02  0.51109989000E-03 0.  1.
     -623    1    1    2    0    0  0.12967642756E-02  0.52824429912E-03  0.10509992048E-03  0.17130000001E+03  0.17130000000E+03 0. -1.
      622    1    1    2    0    0 -0.10993114604E-02 -0.14780498846E-03  0.39958716078E+01  0.39959218131E+01  0.20000000000E-01 0.  1.
</event>
<event>
 5   0  0.3603037E+08  0.9118800E+02  0.7818608E-02  0.1180000E+00
       11   -1    0    0    0    0  0.00000000000E+00  0.00000000000E+00  0.39999999673E+01  0.40000000000E+01  0.51109989000E-03 0.  1.
     -623   -1    0    0    0    0  0.00000000000E+00  0.00000000000E+00  0.12525980253E-10  0.17130000000E+03  0.17130000000E+03 0.  1.
       11    1    1    2    0    0 -0.52039626033E-02 -0.35098100090E-02  0.13161770626E+00  0.13176828836E+00  0.51109989000E-03 0.  1.
     -623    1    1    2    0    0 -0.93999147122E-03  0.97609304189E-03  0.20796763347E-03  0.17130000001E+03  0.17130000000E+03 0.  1.
      622    1    1    2    0    0  0.61439540745E-02  0.25337169671E-02  0.38681742935E+01  0.38682317062E+01  0.20000000000E-01 0.  1.
</event>
<event>
 5   0  0.3603037E+08  0.9118800E+02  0.7818608E-02  0.1180000E+00
       11   -1    0    0    0    0  0.00000000000E+00  0.00000000000E+00  0.39999999673E+01  0.40000000000E+01  0.51109989000E-03 0. -1.
     -623   -1    0    0    0    0  0.00000000000E+00  0.00000000000E+00  0.12525980253E-10  0.17130000000E+03  0.17130000000E+03 0. -1.
       11    1    1    2    0    0  0.12253832943E-03 -0.26835880924E-02  0.42619809848E+00  0.42620687117E+00  0.51109989000E-03 0. -1.
     -623    1    1    2    0    0  0.22914421485E-02 -0.63118261892E-04  0.66589613849E-04  0.17130000002E+03  0.17130000000E+03 0. -1.
      622    1    1    2    0    0 -0.24139804779E-02  0.27467063543E-02  0.35737352793E+01  0.35737931135E+01  0.20000000000E-01 0. -1.
</event>
<event>
 5   0  0.3603037E+08  0.9118800E+02  0.7818608E-02  0.1180000E+00
       11   -1    0    0    0    0  0.00000000000E+00  0.00000000000E+00  0.39999999673E+01  0.40000000000E+01  0.51109989000E-03 0.  1.
     -623   -1    0    0    0    0  0.00000000000E+00  0.00000000000E+00  0.12525980253E-10  0.17130000000E+03  0.17130000000E+03 0.  1.
       11    1    1    2    0    0  0.40930637416E-04  0.59453711031E-02  0.57244407568E+00  0.57247517860E+00  0.51109989000E-03 0.  1.
     -623    1    1    2    0    0 -0.10915607848E-03 -0.69188109188E-04  0.94459861498E-04  0.17130000000E+03  0.17130000000E+03 0.  1.
      622    1    1    2    0    0  0.68225441062E-04 -0.58761829939E-02  0.34274614318E+01  0.34275248213E+01  0.20000000000E-01 0.  1.
</event>
<event>
 5   0  0.3603037E+08  0.9118800E+02  0.7818608E-02  0.1180000E+00
       11   -1    0    0    0    0  0.00000000000E+00  0.00000000000E+00  0.39999999673E+01  0.40000000000E+01  0.51109989000E-03 0. -1.
     -623   -1    0    0    0    0  0.00000000000E+00  0.00000000000E+00  0.12525980253E-10  0.17130000000E+03  0.17130000000E+03 0. -1.
       11    1    1    2    0    0  0.14754908659E-02  0.11286725163E-02  0.31182394890E-01  0.31241862085E-01  0.51109989000E-03 0. -1.
     -623    1    1    2    0    0  0.12210500618E-03 -0.62458758794E-03  0.11018325705E-03  0.17130000000E+03  0.17130000000E+03 0. -1.
      622    1    1    2    0    0 -0.15975958721E-02 -0.50408492833E-03  0.39687073892E+01  0.39687581367E+01  0.20000000000E-01 0. -1.
</event>
<event>
 5   0  0.3603037E+08  0.9118800E+02  0.7818608E-02  0.1180000E+00
       11   -1    0    0    0    0  0.00000000000E+00  0.00000000000E+00  0.39999999673E+01  0.40000000000E+01  0.51109989000E-03 0. -1.
     -623   -1    0    0    0    0  0.00000000000E+00  0.00000000000E+00  0.12525980253E-10  0.17130000000E+03  0.17130000000E+03 0.  1.
       11    1    1    2    0    0 -0.11908278120E-02 -0.40005255609E-02  0.29317144532E+00  0.29320160274E+00  0.51109989000E-03 0. -1.
     -623    1    1    2    0    0 -0.25668749155E-03 -0.33773471636E-04  0.86558338920E-04  0.17130000000E+03  0.17130000000E+03 0.  1.
      622    1    1    2    0    0  0.14475153035E-02  0.40342990326E-02  0.37067419637E+01  0.37067983970E+01  0.20000000000E-01 0. -1.
</event>
<event>
 5   0  0.3603037E+08  0.9118800E+02  0.7818608E-02  0.1180000E+00
       11   -1    0    0    0    0  0.00000000000E+00  0.00000000000E+00  0.39999999673E+01  0.40000000000E+01  0.51109989000E-03 0.  1.
     -623   -1    0    0    0    0  0.00000000000E+00  0.00000000000E+00  0.12525980253E-10  0.17130000000E+03  0.17130000000E+03 0.  1.
       11    1    1    2    0    0  0.50887464751E-04  0.50234860861E-03  0.28739331406E-01  0.28748310091E-01  0.51109989000E-03 0.  1.
     -623    1    1    2    0    0 -0.45016271034E-03 -0.42102458386E-03  0.59330344232E-04  0.17130000000E+03  0.17130000000E+03 0.  1.
      622    1    1    2    0    0  0.39927524558E-03 -0.81324024751E-04  0.39712013056E+01  0.39712516888E+01  0.20000000000E-01 0.  1.
</event>
<event>
 5   0  0.3603037E+08  0.9118800E+02  0.7818608E-02  0.1180000E+00
       11   -1    0    0    0    0  0.00000000000E+00  0.00000000000E+00  0.39999999673E+01  0.40000000000E+01  0.51109989000E-03 0.  1.
     -623   -1    0    0    0    0  0.00000000000E+00  0.00000000000E+00  0.12525980253E-10  0.17130000000E+03  0.17130000000E+03 0. -1.
       11    1    1    2    0    0  0.13230499900E-01 -0.85544853122E-03  0.26309323049E+00  0.26342757462E+00  0.51109989000E-03 0.  1.
     -623    1    1    2    0    0 -0.25315800366E-02  0.89107279829E-03  0.40317588025E-03  0.17130000002E+03  0.17130000000E+03 0. -1.
      622    1    1    2    0    0 -0.10698919864E-01 -0.35624267069E-04  0.37365035610E+01  0.37365724039E+01  0.20000000000E-01 0.  1.
</event>
<event>
 5   0  0.3603037E+08  0.9118800E+02  0.7818608E-02  0.1180000E+00
       11   -1    0    0    0    0  0.00000000000E+00  0.00000000000E+00  0.39999999673E+01  0.40000000000E+01  0.51109989000E-03 0. -1.
     -623   -1    0    0    0    0  0.00000000000E+00  0.00000000000E+00  0.12525980253E-10  0.17130000000E+03  0.17130000000E+03 0. -1.
       11    1    1    2    0    0 -0.32203563198E-01 -0.23058315891E-01  0.65122965785E+00  0.65243320263E+00  0.51109989000E-03 0. -1.
     -623    1    1    2    0    0 -0.37972100940E-02  0.13289667175E-02  0.15274320577E-02  0.17130000005E+03  0.17130000000E+03 0. -1.
      622    1    1    2    0    0  0.36000773292E-01  0.21729349173E-01  0.33472428775E+01  0.33475667433E+01  0.20000000000E-01 0. -1.
</event>
<event>
 5   0  0.3603037E+08  0.9118800E+02  0.7818608E-02  0.1180000E+00
       11   -1    0    0    0    0  0.00000000000E+00  0.00000000000E+00  0.39999999673E+01  0.40000000000E+01  0.51109989000E-03 0.  1.
     -623   -1    0    0    0    0  0.00000000000E+00  0.00000000000E+00  0.12525980253E-10  0.17130000000E+03  0.17130000000E+03 0.  1.
       11    1    1    2    0    0  0.31393882341E-02 -0.21609369168E-03  0.11548982280E+01  0.11549026282E+01  0.51109989000E-03 0.  1.
     -623    1    1    2    0    0 -0.42448318424E-02  0.49685464290E-02  0.78973615476E-04  0.17130000012E+03  0.17130000000E+03 0.  1.
      622    1    1    2    0    0  0.11054436083E-02 -0.47524527373E-02  0.28450227658E+01  0.28450972471E+01  0.20000000000E-01 0.  1.
</event>
<event>
 5   0  0.3603037E+08  0.9118800E+02  0.7818608E-02  0.1180000E+00
       11   -1    0    0    0    0  0.00000000000E+00  0.00000000000E+00  0.39999999673E+01  0.40000000000E+01  0.51109989000E-03 0. -1.
     -623   -1    0    0    0    0  0.00000000000E+00  0.00000000000E+00  0.12525980253E-10  0.17130000000E+03  0.17130000000E+03 0.  1.
       11    1    1    2    0    0  0.37412119230E-04  0.23705402426E-02  0.47234178167E-01  0.47296402279E-01  0.51109989000E-03 0. -1.
     -623    1    1    2    0    0 -0.33682933716E-03  0.70007348088E-04  0.11355525109E-03  0.17130000000E+03  0.17130000000E+03 0.  1.
      622    1    1    2    0    0  0.29941721793E-03 -0.24405475907E-02  0.39526522339E+01  0.39527035973E+01  0.20000000000E-01 0. -1.
</event>
<event>
 5   0  0.3603037E+08  0.9118800E+02  0.7818608E-02  0.1180000E+00
       11   -1    0    0    0    0  0.00000000000E+00  0.00000000000E+00  0.39999999673E+01  0.40000000000E+01  0.51109989000E-03 0. -1.
     -623   -1    0    0    0    0  0.00000000000E+00  0.00000000000E+00  0.12525980253E-10  0.17130000000E+03  0.17130000000E+03 0.  1.
       11    1    1    2    0    0  0.91640536870E-02  0.16854266528E-02  0.96614748573E+00  0.96619255117E+00  0.51109989000E-03 0. -1.
     -623    1    1    2    0    0 -0.14604157137E-02 -0.19284017554E-02  0.12076514973E-03  0.17130000002E+03  0.17130000000E+03 0.  1.
      622    1    1    2    0    0 -0.77036379734E-02  0.24297510266E-03  0.30337317165E+01  0.30338074317E+01  0.20000000000E-01 0. -1.
</event>
<event>
 5   0  0.3603037E+08  0.9118800E+02  0.7818608E-02  0.1180000E+00
       11   -1    0    0    0    0  0.00000000000E+00  0.00000000000E+00  0.39999999673E+01  0.40000000000E+01  0.51109989000E-03 0.  1.
     -623   -1    0    0    0    0  0.00000000000E+00  0.00000000000E+00  0.12525980253E-10  0.17130000000E+03  0.17130000000E+03 0. -1.
       11    1    1    2    0    0 -0.18370944906E-01  0.19463959038E-01  0.10888043121E+01  0.10891333383E+01  0.51109989000E-03 0.  1.
     -623    1    1    2    0    0  0.32032659741E-01 -0.76569923050E-02  0.45687630271E-03  0.17130000317E+03  0.17130000000E+03 0. -1.
      622    1    1    2    0    0 -0.13661714835E-01 -0.11806966733E-01  0.29107387790E+01  0.29108634950E+01  0.20000000000E-01 0.  1.
</event>
<event>
 5   0  0.3603037E+08  0.9118800E+02  0.7818608E-02  0.1180000E+00
       11   -1    0    0    0    0  0.00000000000E+00  0.00000000000E+00  0.39999999673E+01  0.40000000000E+01  0.51109989000E-03 0. -1.
     -623   -1    0    0    0    0  0.00000000000E+00  0.00000000000E+00  0.12525980253E-10  0.17130000000E+03  0.17130000000E+03 0. -1.
       11    1    1    2    0    0  0.16774744023E-02 -0.31362039803E-02  0.24000498665E+00  0.24003188232E+00  0.51109989000E-03 0. -1.
     -623    1    1    2    0    0  0.93011252540E-03  0.76205850974E-02  0.83805842990E-04  0.17130000017E+03  0.17130000000E+03 0. -1.
      622    1    1    2    0    0 -0.26075869277E-02 -0.44843811171E-02  0.37599111749E+01  0.37599679456E+01  0.20000000000E-01 0. -1.
</event>
<event>
 5   0  0.3603037E+08  0.9118800E+02  0.7818608E-02  0.1180000E+00
       11   -1    0    0    0    0  0.00000000000E+00  0.00000000000E+00  0.39999999673E+01  0.40000000000E+01  0.51109989000E-03 0.  1.
     -623   -1    0    0    0    0  0.00000000000E+00  0.00000000000E+00  0.12525980253E-10  0.17130000000E+03  0.17130000000E+03 0.  1.
       11    1    1    2    0    0  0.21692232856E-02  0.82756442194E-02  0.17939797121E-01  0.19881885186E-01  0.51109989000E-03 0.  1.
     -623    1    1    2    0    0 -0.31169930267E-02 -0.20324811630E-02  0.19973669527E-02  0.17130000005E+03  0.17130000000E+03 0.  1.
      622    1    1    2    0    0  0.94776974113E-03 -0.62431630564E-02  0.39800628033E+01  0.39801180628E+01  0.20000000000E-01 0.  1.
</event>
<event>
 5   0  0.3603037E+08  0.9118800E+02  0.7818608E-02  0.1180000E+00
       11   -1    0    0    0    0  0.00000000000E+00  0.00000000000E+00  0.39999999673E+01  0.40000000000E+01  0.51109989000E-03 0. -1.
     -623   -1    0    0    0    0  0.00000000000E+00  0.00000000000E+00  0.12525980253E-10  0.17130000000E+03  0.17130000000E+03 0.  1.
       11    1    1    2    0    0 -0.90083575014E-04  0.27768497413E-02  0.37313697395E-01  0.37420478927E-01  0.51109989000E-03 0. -1.
     -623    1    1    2    0    0 -0.18027829253E-02 -0.15306174992E-02  0.15788586042E-03  0.17130000002E+03  0.17130000000E+03 0.  1.
      622    1    1    2    0    0  0.18928665003E-02 -0.12462322421E-02  0.39625283841E+01  0.39625795047E+01  0.20000000000E-01 0. -1.
</event>
<event>
 5   0  0.3603037E+08  0.9118800E+02  0.7818608E-02  0.1180000E+00
       11   -1    0    0    0    0  0.00000000000E+00  0.00000000000E+00  0.39999999673E+01  0.40000000000E+01  0.51109989000E-03 0.  1.
     -623   -1    0    0    0    0  0.00000000000E+00  0.00000000000E+00  0.12525980253E-10  0.17130000000E+03  0.17130000000E+03 0. -1.
       11    1    1    2    0    0  0.36183692674E-03 -0.24182986173E-03  0.15389817378E-01  0.15404450902E-01  0.51109989000E-03 0.  1.
     -623    1    1    2    0    0  0.41437284575E-03 -0.20355783126E-03  0.64895632224E-04  0.17130000000E+03  0.17130000000E+03 0. -1.
      622    1    1    2    0    0 -0.77620977249E-03  0.44538769300E-03  0.39845452543E+01  0.39845955485E+01  0.20000000000E-01 0.  1.
</event>
<event>
 5   0  0.3603037E+08  0.9118800E+02  0.7818608E-02  0.1180000E+00
       11   -1    0    0    0    0  0.00000000000E+00  0.00000000000E+00  0.39999999673E+01  0.40000000000E+01  0.51109989000E-03 0.  1.
     -623   -1    0    0    0    0  0.00000000000E+00  0.00000000000E+00  0.12525980253E-10  0.17130000000E+03  0.17130000000E+03 0. -1.
       11    1    1    2    0    0  0.23824101037E-02  0.69589389228E-03  0.62419205698E+00  0.62419720070E+00  0.51109989000E-03 0.  1.
     -623    1    1    2    0    0  0.73606954117E-04  0.11083837364E-03  0.65346665657E-04  0.17130000000E+03  0.17130000000E+03 0. -1.
      622    1    1    2    0    0 -0.24560170578E-02 -0.80673226592E-03  0.33757425637E+01  0.33758027992E+01  0.20000000000E-01 0.  1.
</event>
<event>
 5   0  0.3603037E+08  0.9118800E+02  0.7818608E-02  0.1180000E+00
       11   -1    0    0    0    0  0.00000000000E+00  0.00000000000E+00  0.39999999673E+01  0.40000000000E+01  0.51109989000E-03 0. -1.
     -623   -1    0    0    0    0  0.00000000000E+00  0.00000000000E+00  0.12525980253E-10  0.17130000000E+03  0.17130000000E+03 0. -1.
       11    1    1    2    0    0  0.47005073176E-02 -0.18169719319E-01  0.23737628573E-01  0.30264991340E-01  0.51109989000E-03 0. -1.
     -623    1    1    2    0    0 -0.71591447988E-02  0.51664751445E-02  0.66001247078E-02  0.17130000035E+03  0.17130000000E+03 0. -1.
      622    1    1    2    0    0  0.24586374811E-02  0.13003244175E-01  0.39696622141E+01  0.39697346540E+01  0.20000000000E-01 0. -1.
</event>
<event>
 5   0  0.3603037E+08  0.9118800E+02  0.7818608E-02  0.1180000E+00
       11   -1    0    0    0    0  0.00000000000E+00  0.00000000000E+00  0.39999999673E+01  0.40000000000E+01  0.51109989000E-03 0.  1.
     -623   -1    0    0    0    0  0.00000000000E+00  0.00000000000E+00  0.12525980253E-10  0.17130000000E+03  0.17130000000E+03 0.  1.
       11    1    1    2    0    0 -0.39485869074E-02  0.42896058728E-03  0.57618456351E-01  0.57757450428E-01  0.51109989000E-03 0.  1.
     -623    1    1    2    0    0  0.70608222042E-04 -0.15657578540E-03  0.19161131845E-03  0.17130000000E+03  0.17130000000E+03 0.  1.
      622    1    1    2    0    0  0.38779786854E-02 -0.27238480188E-03  0.39421898997E+01  0.39422425494E+01  0.20000000000E-01 0.  1.
</event>
<event>
 5   0  0.3603037E+08  0.9118800E+02  0.7818608E-02  0.1180000E+00
       11   -1    0    0    0    0  0.00000000000E+00  0.00000000000E+00  0.39999999673E+01  0.40000000000E+01  0.51109989000E-03 0. -1.
     -623   -1    0    0    0    0  0.00000000000E+00  0.00000000000E+00  0.12525980253E-10  0.17130000000E+03  0.17130000000E+03 0. -1.
       11    1    1    2    0    0 -0.10695620045E-02  0.19812575489E-02  0.63783460126E+00  0.63783877989E+00  0.51109989000E-03 0. -1.
     -623    1    1    2    0    0 -0.49484586837E-03 -0.63856090597E-04  0.64543512553E-04  0.17130000000E+03  0.17130000000E+03 0. -1.
      622    1    1    2    0    0  0.15644078729E-02 -0.19174014583E-02  0.33621008226E+01  0.33621612194E+01  0.20000000000E-01 0. -1.
</event>
<event>
 5   0  0.3603037E+08  0.9118800E+02  0.7818608E-02  0.1180000E+00
       11   -1    0    0    0    0  0.00000000000E+00  0.00000000000E+00  0.39999999673E+01  0.40000000000E+01  0.51109989000E-03 0. -1.
     -623   -1    0    0    0    0  0.00000000000E+00  0.00000000000E+00  0.12525980253E-10  0.17130000000E+03  0.17130000000E+03 0. -1.
       11    1    1    2    0    0 -0.32791392268E-02 -0.50973323139E-03  0.12005829236E+00  0.12010523456E+00  0.51109989000E-03 0. -1.
     -623    1    1    2    0    0  0.18095241000E-02  0.21137948402E-02  0.99090233995E-04  0.17130000002E+03  0.17130000000E+03 0. -1.
      622    1    1    2    0    0  0.14696151268E-02 -0.16040616088E-02  0.38798425848E+01  0.38798947428E+01  0.20000000000E-01 0. -1.
</event>
<event>
 5   0  0.3603037E+08  0.9118800E+02  0.7818608E-02  0.1180000E+00
       11   -1    0    0    0    0  0.00000000000E+00  0.00000000000E+00  0.39999999673E+01  0.40000000000E+01  0.51109989000E-03 0.  1.
     -623   -1    0    0    0    0  0.00000000000E+00  0.00000000000E+00  0.12525980253E-10  0.17130000000E+03  0.17130000000E+03 0. -1.
       11    1    1    2    0    0 -0.58862744892E-02 -0.20275518252E-02  0.13948575083E+01  0.13948714954E+01  0.51109989000E-03 0.  1.
     -623    1    1    2    0    0 -0.87681531671E-02  0.37374486918E-02  0.13277247244E-03  0.17130000027E+03  0.17130000000E+03 0. -1.
      622    1    1    2    0    0  0.14654427656E-01 -0.17098968666E-02  0.26050096866E+01  0.26051282393E+01  0.20000000000E-01 0.  0.
</event>
<event>
 5   0  0.3603037E+08  0.9118800E+02  0.7818608E-02  0.1180000E+00
       11   -1    0    0    0    0  0.00000000000E+00  0.00000000000E+00  0.39999999673E+01  0.40000000000E+01  0.51109989000E-03 0.  1.
     -623   -1    0    0    0    0  0.00000000000E+00  0.00000000000E+00  0.12525980253E-10  0.17130000000E+03  0.17130000000E+03 0. -1.
       11    1    1    2    0    0  0.26077625421E-02 -0.13837287747E-01  0.53469193282E+00  0.53487755160E+00  0.51109989000E-03 0.  1.
     -623    1    1    2    0    0 -0.11966803520E-01  0.12583154954E-03  0.28349090294E-03  0.17130000042E+03  0.17130000000E+03 0. -1.
      622    1    1    2    0    0  0.93590409778E-02  0.13711456198E-01  0.34650245436E+01  0.34651220301E+01  0.20000000000E-01 0.  1.
</event>
<event>
 5   0  0.3603037E+08  0.9118800E+02  0.7818608E-02  0.1180000E+00
       11   -1    0    0    0    0  0.00000000000E+00  0.00000000000E+00  0.39999999673E+01  0.40000000000E+01  0.51109989000E-03 0. -1.
     -623   -1    0    0    0    0  0.00000000000E+00  0.00000000000E+00  0.12525980253E-10  0.17130000000E+03  0.17130000000E+03 0. -1.
       11    1    1    2    0    0  0.30693961578E-02 -0.31131974530E-01  0.10332822635E+01  0.10337558311E+01  0.51109989000E-03 0. -1.
     -623    1    1    2    0    0  0.41239206843E-02  0.34194755064E-01  0.55472823264E-03  0.17130000346E+03  0.17130000000E+03 0. -1.
      622    1    1    2    0    0 -0.71933168421E-02 -0.30627805342E-02  0.29661629757E+01  0.29662407054E+01  0.20000000000E-01 0. -1.
</event>
<event>
 5   0  0.3603037E+08  0.9118800E+02  0.7818608E-02  0.1180000E+00
       11   -1    0    0    0    0  0.00000000000E+00  0.00000000000E+00  0.39999999673E+01  0.40000000000E+01  0.51109989000E-03 0.  1.
     -623   -1    0    0    0    0  0.00000000000E+00  0.00000000000E+00  0.12525980253E-10  0.17130000000E+03  0.17130000000E+03 0.  1.
       11    1    1    2    0    0 -0.12518956620E-02 -0.44990675204E-03  0.15112688649E-01  0.15179731192E-01  0.51109989000E-03 0.  1.
     -623    1    1    2    0    0 -0.37894886326E-04  0.15373727372E-03  0.11742054813E-03  0.17130000000E+03  0.17130000000E+03 0.  1.
      622    1    1    2    0    0  0.12897905483E-02  0.29616947832E-03  0.39847698582E+01  0.39848202687E+01  0.20000000000E-01 0.  1.
</event>
<event>
 5   0  0.3603037E+08  0.9118800E+02  0.7818608E-02  0.1180000E+00
       11   -1    0    0    0    0  0.00000000000E+00  0.00000000000E+00  0.39999999673E+01  0.40000000000E+01  0.51109989000E-03 0.  1.
     -623   -1    0    0    0    0  0.00000000000E+00  0.00000000000E+00  0.12525980253E-10  0.17130000000E+03  0.17130000000E+03 0.  1.
       11    1    1    2    0    0 -0.13115314024E-03  0.19315522174E-01  0.11423797023E+01  0.11425431073E+01  0.51109989000E-03 0.  1.
     -623    1    1    2    0    0  0.17302886623E-01  0.16842962957E-02  0.36301567405E-03  0.17130000088E+03  0.17130000000E+03 0.  1.
      622    1    1    2    0    0 -0.17171733483E-01 -0.20999818470E-01  0.28572572494E+01  0.28574560102E+01  0.20000000000E-01 0.  1.
</event>
<event>
 5   0  0.3603037E+08  0.9118800E+02  0.7818608E-02  0.1180000E+00
       11   -1    0    0    0    0  0.00000000000E+00  0.00000000000E+00  0.39999999673E+01  0.40000000000E+01  0.51109989000E-03 0.  1.
     -623   -1    0    0    0    0  0.00000000000E+00  0.00000000000E+00  0.12525980253E-10  0.17130000000E+03  0.17130000000E+03 0. -1.
       11    1    1    2    0    0  0.12060636254E-02 -0.44604927748E-03  0.24060611425E-01  0.24100369123E-01  0.51109989000E-03 0.  1.
     -623    1    1    2    0    0  0.91637918440E-03  0.14387204276E-02  0.90727412791E-04  0.17130000001E+03  0.17130000000E+03 0. -1.
      622    1    1    2    0    0 -0.21224428098E-02 -0.99267115016E-03  0.39758486285E+01  0.39758996224E+01  0.20000000000E-01 0.  1.
</event>
<event>
 5   0  0.3603037E+08  0.9118800E+02  0.7818608E-02  0.1180000E+00
       11   -1    0    0    0    0  0.00000000000E+00  0.00000000000E+00  0.39999999673E+01  0.40000000000E+01  0.51109989000E-03 0. -1.
     -623   -1    0    0    0    0  0.00000000000E+00  0.00000000000E+00  0.12525980253E-10  0.17130000000E+03  0.17130000000E+03 0.  1.
       11    1    1    2    0    0 -0.27305120690E-02  0.40746155666E-03  0.62920243232E-01  0.62982854423E-01  0.51109989000E-03 0. -1.
     -623    1    1    2    0    0 -0.41001299612E-03 -0.60924456982E-03  0.11463814377E-03  0.17130000000E+03  0.17130000000E+03 0.  1.
      622    1    1    2    0    0  0.31405250652E-02  0.20178301316E-03  0.39369650860E+01  0.39370171440E+01  0.20000000000E-01 0. -1.
</event>
<event>
 5   0  0.3603037E+08  0.9118800E+02  0.7818608E-02  0.1180000E+00
       11   -1    0    0    0    0  0.00000000000E+00  0.00000000000E+00  0.39999999673E+01  0.40000000000E+01  0.51109989000E-03 0.  1.
     -623   -1    0    0    0    0  0.00000000000E+00  0.00000000000E+00  0.12525980253E-10  0.17130000000E+03  0.17130000000E+03 0. -1.
       11    1    1    2    0    0 -0.16016024786E-01  0.10253472971E-01  0.12442809467E+01  0.12444263667E+01  0.51109989000E-03 0.  1.
     -623    1    1    2    0    0  0.23841038065E-02 -0.49145409688E-02  0.25694803149E-03  0.17130000009E+03  0.17130000000E+03 0. -1.
      622    1    1    2    0    0  0.13631920979E-01 -0.53389320025E-02  0.27554620727E+01  0.27555735460E+01  0.20000000000E-01 0.  0.
</event>
<event>
 5   0  0.3603037E+08  0.9118800E+02  0.7818608E-02  0.1180000E+00
       11   -1    0    0    0    0  0.00000000000E+00  0.00000000000E+00  0.39999999673E+01  0.40000000000E+01  0.51109989000E-03 0. -1.
     -623   -1    0    0    0    0  0.00000000000E+00  0.00000000000E+00  0.12525980253E-10  0.17130000000E+03  0.17130000000E+03 0. -1.
       11    1    1    2    0    0  0.27387486548E-02  0.12914277256E-02  0.32537780497E-01  0.32682363906E-01  0.51109989000E-03 0. -1.
     -623    1    1    2    0    0 -0.68393305286E-02 -0.11149924978E-02  0.19722637384E-03  0.17130000014E+03  0.17130000000E+03 0. -1.
      622    1    1    2    0    0  0.41005818738E-02 -0.17643522782E-03  0.39672649605E+01  0.39673174958E+01  0.20000000000E-01 0. -1.
</event>
<event>
 5   0  0.3603037E+08  0.9118800E+02  0.7818608E-02  0.1180000E+00
       11   -1    0    0    0    0  0.00000000000E+00  0.00000000000E+00  0.39999999673E+01  0.40000000000E+01  0.51109989000E-03 0.  1.
     -623   -1    0    0    0    0  0.00000000000E+00  0.00000000000E+00  0.12525980253E-10  0.17130000000E+03  0.17130000000E+03 0. -1.
       11    1    1    2    0    0 -0.19412805841E-02 -0.25109528231E-03  0.73885234255E-02  0.76604908114E-02  0.51109989000E-03 0.  1.
     -623    1    1    2    0    0  0.44846892971E-03  0.99648781631E-03  0.32238347305E-03  0.17130000000E+03  0.17130000000E+03 0. -1.
      622    1    1    2    0    0  0.14928116544E-02 -0.74539253400E-03  0.39922890605E+01  0.39923395054E+01  0.20000000000E-01 0.  1.
</event>
<event>
 5   0  0.3603037E+08  0.9118800E+02  0.7818608E-02  0.1180000E+00
       11   -1    0    0    0    0  0.00000000000E+00  0.00000000000E+00  0.39999999673E+01  0.40000000000E+01  0.51109989000E-03 0.  1.
     -623   -1    0    0    0    0  0.00000000000E+00  0.00000000000E+00  0.12525980253E-10  0.17130000000E+03  0.17130000000E+03 0.  1.
       11    1    1    2    0    0 -0.37900517374E-03 -0.77468711340E-03  0.19409118454E-01  0.19434991263E-01  0.51109989000E-03 0.  1.
     -623    1    1    2    0    0  0.64743464350E-03  0.15582534655E-02  0.76179111139E-04  0.17130000001E+03  0.17130000000E+03 0.  1.
      622    1    1    2    0    0 -0.26842946976E-03 -0.78356635206E-03  0.39805146698E+01  0.39805650004E+01  0.20000000000E-01 0.  1.
</event>
<event>
 5   0  0.3603037E+08  0.9118800E+02  0.7818608E-02  0.1180000E+00
       11   -1    0    0    0    0  0.00000000000E+00  0.00000000000E+00  0.39999999673E+01  0.40000000000E+01  0.51109989000E-03 0.  1.
     -623   -1    0    0    0    0  0.00000000000E+00  0.00000000000E+00  0.12525980253E-10  0.17130000000E+03  0.17130000000E+03 0.  1.
       11    1    1    2    0    0 -0.24759457311E-01 -0.98018231718E-02  0.20651418201E+01  0.20653135608E+01  0.51109989000E-03 0.  1.
     -623    1    1    2    0    0  0.65343139532E-02 -0.14929180436E-01  0.51980127471E-03  0.17130000078E+03  0.17130000000E+03 0.  1.
      622    1    1    2    0    0  0.18225143357E-01  0.24731003608E-01  0.19343383460E+01  0.19346856632E+01  0.20000000000E-01 0.  0.
</event>
<event>
 5   0  0.3603037E+08  0.9118800E+02  0.7818608E-02  0.1180000E+00
       11   -1    0    0    0    0  0.00000000000E+00  0.00000000000E+00  0.39999999673E+01  0.40000000000E+01  0.51109989000E-03 0.  1.
     -623   -1    0    0    0    0  0.00000000000E+00  0.00000000000E+00  0.12525980253E-10  0.17130000000E+03  0.17130000000E+03 0. -1.
       11    1    1    2    0    0 -0.24080494062E-01 -0.89948206707E-02  0.11183227978E+01  0.11186183076E+01  0.51109989000E-03 0.  1.
     -623    1    1    2    0    0 -0.19450876779E-02 -0.76582873032E-03  0.49897688931E-03  0.17130000001E+03  0.17130000000E+03 0. -1.
      622    1    1    2    0    0  0.26025581740E-01  0.97606494010E-02  0.28811781927E+01  0.28813816789E+01  0.20000000000E-01 0.  1.
</event>
<event>
 5   0  0.3603037E+08  0.9118800E+02  0.7818608E-02  0.1180000E+00
       11   -1    0    0    0    0  0.00000000000E+00  0.00000000000E+00  0.39999999673E+01  0.40000000000E+01  0.51109989000E-03 0.  1.
     -623   -1    0    0    0    0  0.00000000000E+00  0.00000000000E+00  0.12525980253E-10  0.17130000000E+03  0.17130000000E+03 0. -1.
       11    1    1    2    0    0  0.33643763760E-02  0.38841668592E-02  0.17673499397E+01  0.17673574840E+01  0.51109989000E-03 0.  1.
     -623    1    1    2    0    0  0.10124083935E-03  0.92132112501E-04  0.10332439163E-03  0.17130000000E+03  0.17130000000E+03 0. -1.
      622    1    1    2    0    0 -0.34656172154E-02 -0.39762989717E-02  0.22325467033E+01  0.22326425159E+01  0.20000000000E-01 0.  0.
</event>
<event>
 5   0  0.3603037E+08  0.9118800E+02  0.7818608E-02  0.1180000E+00
       11   -1    0    0    0    0  0.00000000000E+00  0.00000000000E+00  0.39999999673E+01  0.40000000000E+01  0.51109989000E-03 0. -1.
     -623   -1    0    0    0    0  0.00000000000E+00  0.00000000000E+00  0.12525980253E-10  0.17130000000E+03  0.17130000000E+03 0. -1.
       11    1    1    2    0    0  0.14497947817E-01  0.47135663356E-02  0.13523245630E+01  0.13524105859E+01  0.51109989000E-03 0. -1.
     -623    1    1    2    0    0 -0.12395695835E-02  0.29539427243E-03  0.19947337231E-03  0.17130000000E+03  0.17130000000E+03 0. -1.
      622    1    1    2    0    0 -0.13258378233E-01 -0.50089606081E-02  0.26474759310E+01  0.26475894092E+01  0.20000000000E-01 0.  0.
</event>
<event>
 5   0  0.3603037E+08  0.9118800E+02  0.7818608E-02  0.1180000E+00
       11   -1    0    0    0    0  0.00000000000E+00  0.00000000000E+00  0.39999999673E+01  0.40000000000E+01  0.51109989000E-03 0. -1.
     -623   -1    0    0    0    0  0.00000000000E+00  0.00000000000E+00  0.12525980253E-10  0.17130000000E+03  0.17130000000E+03 0.  1.
       11    1    1    2    0    0  0.63979605838E-02  0.10015926174E-01  0.17276552502E+00  0.17317459552E+00  0.51109989000E-03 0. -1.
     -623    1    1    2    0    0  0.12341317471E-02 -0.19721105186E-02  0.47738203941E-03  0.17130000002E+03  0.17130000000E+03 0.  1.
      622    1    1    2    0    0 -0.76320923309E-02 -0.80438156557E-02  0.38267570603E+01  0.38268253880E+01  0.20000000000E-01 0. -1.
</event>
<event>
 5   0  0.3603037E+08  0.9118800E+02  0.7818608E-02  0.1180000E+00
       11   -1    0    0    0    0  0.00000000000E+00  0.00000000000E+00  0.39999999673E+01  0.40000000000E+01  0.51109989000E-03 0. -1.
     -623   -1    0    0    0    0  0.00000000000E+00  0.00000000000E+00  0.12525980253E-10  0.17130000000E+03  0.17130000000E+03 0.  1.
       11    1    1    2    0    0  0.66775408350E-02  0.49212241363E-02  0.28465614081E+00  0.28477743542E+00  0.51109989000E-03 0. -1.
     -623    1    1    2    0    0  0.21777855091E-02 -0.23989706117E-02  0.18653547954E-03  0.17130000003E+03  0.17130000000E+03 0.  1.
      622    1    1    2    0    0 -0.88553263441E-02 -0.25222535246E-02  0.37151572911E+01  0.37152225338E+01  0.20000000000E-01 0. -1.
</event>
<event>
 5   0  0.3603037E+08  0.9118800E+02  0.7818608E-02  0.1180000E+00
       11   -1    0    0    0    0  0.00000000000E+00  0.00000000000E+00  0.39999999673E+01  0.40000000000E+01  0.51109989000E-03 0. -1.
     -623   -1    0    0    0    0  0.00000000000E+00  0.00000000000E+00  0.12525980253E-10  0.17130000000E+03  0.17130000000E+03 0.  1.
       11    1    1    2    0    0 -0.19237185473E-03 -0.82731423767E-03  0.25015924725E+00  0.25016121135E+00  0.51109989000E-03 0. -1.
     -623    1    1    2    0    0  0.44580317618E-03 -0.11774998822E-02  0.55816596663E-04  0.17130000000E+03  0.17130000000E+03 0.  1.
      622    1    1    2    0    0 -0.25343132145E-03  0.20048141198E-02  0.37497849035E+01  0.37498387840E+01  0.20000000000E-01 0. -1.
</event>
<event>
 5   0  0.3603037E+08  0.9118800E+02  0.7818608E-02  0.1180000E+00
       11   -1    0    0    0    0  0.00000000000E+00  0.00000000000E+00  0.39999999673E+01  0.40000000000E+01  0.51109989000E-03 0.  1.
     -623   -1    0    0    0    0  0.00000000000E+00  0.00000000000E+00  0.12525980253E-10  0.17130000000E+03  0.17130000000E+03 0. -1.
       11    1    1    2    0    0  0.15154978860E-01  0.27778946653E-02  0.40670888843E+00  0.40700094746E+00  0.51109989000E-03 0.  1.
     -623    1    1    2    0    0 -0.10105094645E-02  0.27279840782E-03  0.37683101784E-03  0.17130000000E+03  0.17130000000E+03 0. -1.
      622    1    1    2    0    0 -0.14144469396E-01 -0.30506930731E-02  0.35929142479E+01  0.35929990489E+01  0.20000000000E-01 0.  1.
</event>
<event>
 5   0  0.3603037E+08  0.9118800E+02  0.7818608E-02  0.1180000E+00
       11   -1    0    0    0    0  0.00000000000E+00  0.00000000000E+00  0.39999999673E+01  0.40000000000E+01  0.51109989000E-03 0.  1.
     -623   -1    0    0    0    0  0.00000000000E+00  0.00000000000E+00  0.12525980253E-10  0.17130000000E+03  0.17130000000E+03 0. -1.
       11    1    1    2    0    0  0.15746424190E-02  0.28565151143E-02  0.78478787658E+00  0.78479482136E+00  0.51109989000E-03 0.  1.
     -623    1    1    2    0    0 -0.13157876345E-03  0.15073222037E-02  0.72409178254E-04  0.17130000001E+03  0.17130000000E+03 0. -1.
      622    1    1    2    0    0 -0.14430636555E-02 -0.43638373180E-02  0.32151396816E+01  0.32152051719E+01  0.20000000000E-01 0.  1.
</event>
<event>
 5   0  0.3603037E+08  0.9118800E+02  0.7818608E-02  0.1180000E+00
       11   -1    0    0    0    0  0.00000000000E+00  0.00000000000E+00  0.39999999673E+01  0.40000000000E+01  0.51109989000E-03 0. -1.
     -623   -1    0    0    0    0  0.00000000000E+00  0.00000000000E+00  0.12525980253E-10  0.17130000000E+03  0.17130000000E+03 0. -1.
       11    1    1    2    0    0 -0.68717820214E-03  0.19574210666E-01  0.85940897011E+00  0.85963228247E+00  0.51109989000E-03 0. -1.
     -623    1    1    2    0    0  0.17115238693E-01 -0.23468027095E-01  0.33481510983E-03  0.17130000246E+03  0.17130000000E+03 0. -1.
      622    1    1    2    0    0 -0.16428060491E-01  0.38938164289E-02  0.31402561821E+01  0.31403652546E+01  0.20000000000E-01 0. -1.
</event>
<event>
 5   0  0.3603037E+08  0.9118800E+02  0.7818608E-02  0.1180000E+00
       11   -1    0    0    0    0  0.00000000000E+00  0.00000000000E+00  0.39999999673E+01  0.40000000000E+01  0.51109989000E-03 0. -1.
     -623   -1    0    0    0    0  0.00000000000E+00  0.00000000000E+00  0.12525980253E-10  0.17130000000E+03  0.17130000000E+03 0. -1.
       11    1    1    2    0    0  0.81526462219E-02  0.77017025755E-02  0.77307335091E+00  0.77315486740E+00  0.51109989000E-03 0. -1.
     -623    1    1    2    0    0  0.51973189711E-03  0.64004693724E-04  0.16446410400E-03  0.17130000000E+03  0.17130000000E+03 0. -1.
      622    1    1    2    0    0 -0.86723781190E-02 -0.77657072692E-02  0.32267621523E+01  0.32268451317E+01  0.20000000000E-01 0. -1.
</event>
<event>
 5   0  0.3603037E+08  0.9118800E+02  0.7818608E-02  0.1180000E+00
       11   -1    0    0    0    0  0.00000000000E+00  0.00000000000E+00  0.39999999673E+01  0.40000000000E+01  0.51109989000E-03 0.  1.
     -623   -1    0    0    0    0  0.00000000000E+00  0.00000000000E+00  0.12525980253E-10  0.17130000000E+03  0.17130000000E+03 0. -1.
       11    1    1    2    0    0 -0.44001177114E-02  0.37321648511E-02  0.15135868192E-01  0.16206351164E-01  0.51109989000E-03 0.  1.
     -623    1    1    2    0    0  0.23596110509E-02 -0.38635592950E-02  0.11212422924E-02  0.17130000006E+03  0.17130000000E+03 0. -1.
      622    1    1    2    0    0  0.20405066605E-02  0.13139444389E-03  0.39837428569E+01  0.39837935853E+01  0.20000000000E-01 0.  1.
</event>
<event>
 5   0  0.3603037E+08  0.9118800E+02  0.7818608E-02  0.1180000E+00
       11   -1    0    0    0    0  0.00000000000E+00  0.00000000000E+00  0.39999999673E+01  0.40000000000E+01  0.51109989000E-03 0. -1.
     -623   -1    0    0    0    0  0.00000000000E+00  0.00000000000E+00  0.12525980253E-10  0.17130000000E+03  0.17130000000E+03 0. -1.
       11    1    1    2    0    0  0.11930942813E-03 -0.81582452416E-04  0.35005634137E+00  0.35005674432E+00  0.51109989000E-03 0. -1.
     -623    1    1    2    0    0 -0.85604417764E-03 -0.75210334594E-03  0.55339463468E-04  0.17130000000E+03  0.17130000000E+03 0. -1.
      622    1    1    2    0    0  0.73673474951E-03  0.83368579836E-03  0.36498882865E+01  0.36499432519E+01  0.20000000000E-01 0. -1.
</event>
<event>
 5   0  0.3603037E+08  0.9118800E+02  0.7818608E-02  0.1180000E+00
       11   -1    0    0    0    0  0.00000000000E+00  0.00000000000E+00  0.39999999673E+01  0.40000000000E+01  0.51109989000E-03 0.  1.
     -623   -1    0    0    0    0  0.00000000000E+00  0.00000000000E+00  0.12525980253E-10  0.17130000000E+03  0.17130000000E+03 0.  1.
       11    1    1    2    0    0  0.50574770870E-03  0.10695881419E-02  0.31257271158E+00  0.31257536858E+00  0.51109989000E-03 0.  1.
     -623    1    1    2    0    0  0.94880398730E-04  0.16560115533E-04  0.57072081014E-04  0.17130000000E+03  0.17130000000E+03 0.  1.
      622    1    1    2    0    0 -0.60062810743E-03 -0.10861482574E-02  0.36873701837E+01  0.36874246314E+01  0.20000000000E-01 0.  1.
</event>
<event>
 5   0  0.3603037E+08  0.9118800E+02  0.7818608E-02  0.1180000E+00
       11   -1    0    0    0    0  0.00000000000E+00  0.00000000000E+00  0.39999999673E+01  0.40000000000E+01  0.51109989000E-03 0. -1.
     -623   -1    0    0    0    0  0.00000000000E+00  0.00000000000E+00  0.12525980253E-10  0.17130000000E+03  0.17130000000E+03 0. -1.
       11    1    1    2    0    0 -0.12107484099E-02  0.26043951243E-02  0.59903679999E+00  0.59904390303E+00  0.51109989000E-03 0. -1.
     -623    1    1    2    0    0 -0.26004765432E-03  0.13619812155E-02  0.68514501357E-04  0.17130000001E+03  0.17130000000E+03 0. -1.
      622    1    1    2    0    0  0.14707960642E-02 -0.39663763398E-02  0.34008946529E+01  0.34009560913E+01  0.20000000000E-01 0.  0.
</event>
<event>
 5   0  0.3603037E+08  0.9118800E+02  0.7818608E-02  0.1180000E+00
       11   -1    0    0    0    0  0.00000000000E+00  0.00000000000E+00  0.39999999673E+01  0.40000000000E+01  0.51109989000E-03 0. -1.
     -623   -1    0    0    0    0  0.00000000000E+00  0.00000000000E+00  0.12525980253E-10  0.17130000000E+03  0.17130000000E+03 0.  1.
       11    1    1    2    0    0 -0.54356070166E-02  0.53694520966E-03  0.31807973974E+00  0.31812704410E+00  0.51109989000E-03 0. -1.
     -623    1    1    2    0    0 -0.20862389432E-02 -0.47170086319E-02  0.11172632364E-03  0.17130000008E+03  0.17130000000E+03 0.  1.
      622    1    1    2    0    0  0.75218459599E-02  0.41800634222E-02  0.36818085013E+01  0.36818728782E+01  0.20000000000E-01 0. -1.
</event>
<event>
 5   0  0.3603037E+08  0.9118800E+02  0.7818608E-02  0.1180000E+00
       11   -1    0    0    0    0  0.00000000000E+00  0.00000000000E+00  0.39999999673E+01  0.40000000000E+01  0.51109989000E-03 0.  1.
     -623   -1    0    0    0    0  0.00000000000E+00  0.00000000000E+00  0.12525980253E-10  0.17130000000E+03  0.17130000000E+03 0. -1.
       11    1    1    2    0    0  0.43123885728E-04 -0.91373312451E-03  0.12988961936E-01  0.13031159640E-01  0.51109989000E-03 0.  1.
     -623    1    1    2    0    0  0.34837614158E-03  0.16629963207E-03  0.92418544112E-04  0.17130000000E+03  0.17130000000E+03 0. -1.
      622    1    1    2    0    0 -0.39150002731E-03  0.74743349244E-03  0.39869185869E+01  0.39869688399E+01  0.20000000000E-01 0.  1.
</event>
<event>
 5   0  0.3603037E+08  0.9118800E+02  0.7818608E-02  0.1180000E+00
       11   -1    0    0    0    0  0.00000000000E+00  0.00000000000E+00  0.39999999673E+01  0.40000000000E+01  0.51109989000E-03 0. -1.
     -623   -1    0    0    0    0  0.00000000000E+00  0.00000000000E+00  0.12525980253E-10  0.17130000000E+03  0.17130000000E+03 0.  1.
       11    1    1    2    0    0 -0.25769404349E-03 -0.60997280065E-03  0.18352337432E-02  0.20168730728E-02  0.51109989000E-03 0. -1.
     -623    1    1    2    0    0 -0.52801934830E-03 -0.27961524995E-03  0.23180960505E-03  0.17130000000E+03  0.17130000000E+03 0.  1.
      622    1    1    2    0    0  0.78571339179E-03  0.88958805060E-03  0.39979329240E+01  0.39979831257E+01  0.20000000000E-01 0. -1.
</event>
<event>
 5   0  0.3603037E+08  0.9118800E+02  0.7818608E-02  0.1180000E+00
       11   -1    0    0    0    0  0.00000000000E+00  0.00000000000E+00  0.39999999673E+01  0.40000000000E+01  0.51109989000E-03 0. -1.
     -623   -1    0    0    0    0  0.00000000000E+00  0.00000000000E+00  0.12525980253E-10  0.17130000000E+03  0.17130000000E+03 0. -1.
       11    1    1    2    0    0 -0.11230954252E-03 -0.11100963150E-02  0.13849832936E+00  0.13850376668E+00  0.51109989000E-03 0. -1.
     -623    1    1    2    0    0 -0.59299292636E-04  0.39894518567E-04  0.57350564874E-04  0.17130000000E+03  0.17130000000E+03 0. -1.
      622    1    1    2    0    0  0.17160883516E-03  0.10702017965E-02  0.38614442874E+01  0.38614962333E+01  0.20000000000E-01 0. -1.
</event>
<event>
 5   0  0.3603037E+08  0.9118800E+02  0.7818608E-02  0.1180000E+00
       11   -1    0    0    0    0  0.00000000000E+00  0.00000000000E+00  0.39999999673E+01  0.40000000000E+01  0.51109989000E-03 0.  1.
     -623   -1    0    0    0    0  0.00000000000E+00  0.00000000000E+00  0.12525980253E-10  0.17130000000E+03  0.17130000000E+03 0.  1.
       11    1    1    2    0    0 -0.11728152819E-02  0.77635741929E-02  0.26679535509E-01  0.27815596622E-01  0.51109989000E-03 0.  1.
     -623    1    1    2    0    0 -0.85326360902E-04 -0.18158632927E-02  0.11910448938E-02  0.17130000001E+03  0.17130000000E+03 0.  1.
      622    1    1    2    0    0  0.12581416428E-02 -0.59477109002E-02  0.39721293870E+01  0.39721843896E+01  0.20000000000E-01 0.  1.
</event>
<event>
 5   0  0.3603037E+08  0.9118800E+02  0.7818608E-02  0.1180000E+00
       11   -1    0    0    0    0  0.00000000000E+00  0.00000000000E+00  0.39999999673E+01  0.40000000000E+01  0.51109989000E-03 0. -1.
     -623   -1    0    0    0    0  0.00000000000E+00  0.00000000000E+00  0.12525980253E-10  0.17130000000E+03  0.17130000000E+03 0.  1.
       11    1    1    2    0    0 -0.60431526217E-02  0.54549551567E-02  0.54441098183E+00  0.54447208798E+00  0.51109989000E-03 0. -1.
     -623    1    1    2    0    0  0.13964058285E-04  0.28291778693E-03  0.12897642897E-03  0.17130000000E+03  0.17130000000E+03 0.  1.
      622    1    1    2    0    0  0.60291885634E-02 -0.57378729437E-02  0.34554600091E+01  0.34555279117E+01  0.20000000000E-01 0. -1.
</event>
<event>
 5   0  0.3603037E+08  0.9118800E+02  0.7818608E-02  0.1180000E+00
       11   -1    0    0    0    0  0.00000000000E+00  0.00000000000E+00  0.39999999673E+01  0.40000000000E+01  0.51109989000E-03 0.  1.
     -623   -1    0    0    0    0  0.00000000000E+00  0.00000000000E+00  0.12525980253E-10  0.17130000000E+03  0.17130000000E+03 0. -1.
       11    1    1    2    0    0  0.56219619378E-03  0.89457534931E-03  0.58505022319E-01  0.58516794053E-01  0.51109989000E-03 0.  1.
     -623    1    1    2    0    0  0.20300595127E-03 -0.51525384791E-03  0.62575178259E-04  0.17130000000E+03  0.17130000000E+03 0. -1.
      622    1    1    2    0    0 -0.76520214505E-03 -0.37932150140E-03  0.39414323699E+01  0.39414832050E+01  0.20000000000E-01 0.  1.
</event>
<event>
 5   0  0.3603037E+08  0.9118800E+02  0.7818608E-02  0.1180000E+00
       11   -1    0    0    0    0  0.00000000000E+00  0.00000000000E+00  0.39999999673E+01  0.40000000000E+01  0.51109989000E-03 0. -1.
     -623   -1    0    0    0    0  0.00000000000E+00  0.00000000000E+00  0.12525980253E-10  0.17130000000E+03  0.17130000000E+03 0. -1.
       11    1    1    2    0    0 -0.19797066732E-02 -0.82518416986E-03  0.11376738338E+00  0.11378874686E+00  0.51109989000E-03 0. -1.
     -623    1    1    2    0    0 -0.80237319864E-03 -0.15866607727E-02  0.74548690546E-04  0.17130000001E+03  0.17130000000E+03 0. -1.
      622    1    1    2    0    0  0.27820798718E-02  0.24118449425E-02  0.38861580353E+01  0.38862112439E+01  0.20000000000E-01 0. -1.
</event>
<event>
 5   0  0.3603037E+08  0.9118800E+02  0.7818608E-02  0.1180000E+00
       11   -1    0    0    0    0  0.00000000000E+00  0.00000000000E+00  0.39999999673E+01  0.40000000000E+01  0.51109989000E-03 0. -1.
     -623   -1    0    0    0    0  0.00000000000E+00  0.00000000000E+00  0.12525980253E-10  0.17130000000E+03  0.17130000000E+03 0.  1.
       11    1    1    2    0    0  0.80852003257E-03 -0.23682531364E-03  0.38482838109E+00  0.38482964270E+00  0.51109989000E-03 0. -1.
     -623    1    1    2    0    0 -0.41438437710E-03  0.25477266408E-02  0.57331371561E-04  0.17130000002E+03  0.17130000000E+03 0.  1.
      622    1    1    2    0    0 -0.39413565547E-03 -0.23109013271E-02  0.36151142549E+01  0.36151703378E+01  0.20000000000E-01 0. -1.
</event>
<event>
 5   0  0.3603037E+08  0.9118800E+02  0.7818608E-02  0.1180000E+00
       11   -1    0    0    0    0  0.00000000000E+00  0.00000000000E+00  0.39999999673E+01  0.40000000000E+01  0.51109989000E-03 0.  1.
     -623   -1    0    0    0    0  0.00000000000E+00  0.00000000000E+00  0.12525980253E-10  0.17130000000E+03  0.17130000000E+03 0. -1.
       11    1    1    2    0    0 -0.31687702962E-01  0.58337637409E-01  0.11762562097E+01  0.11781283133E+01  0.51109989000E-03 0.  1.
     -623    1    1    2    0    0  0.10323399074E-01 -0.10106934480E-01  0.24366765344E-02  0.17130000063E+03  0.17130000000E+03 0. -1.
      622    1    1    2    0    0  0.21364303888E-01 -0.48230702929E-01  0.28213070811E+01  0.28218710601E+01  0.20000000000E-01 0.  1.
</event>
<event>
 5   0  0.3603037E+08  0.9118800E+02  0.7818608E-02  0.1180000E+00
       11   -1    0    0    0    0  0.00000000000E+00  0.00000000000E+00  0.39999999673E+01  0.40000000000E+01  0.51109989000E-03 0. -1.
     -623   -1    0    0    0    0  0.00000000000E+00  0.00000000000E+00  0.12525980253E-10  0.17130000000E+03  0.17130000000E+03 0. -1.
       11    1    1    2    0    0  0.93423396556E-02  0.45466062027E-02  0.28571816156E+00  0.28590746756E+00  0.51109989000E-03 0. -1.
     -623    1    1    2    0    0 -0.51258959527E-02 -0.92867976929E-02  0.24886965707E-03  0.17130000033E+03  0.17130000000E+03 0. -1.
      622    1    1    2    0    0 -0.42164437029E-02  0.47401914902E-02  0.37140329361E+01  0.37140922038E+01  0.20000000000E-01 0. -1.
</event>
<event>
 5   0  0.3603037E+08  0.9118800E+02  0.7818608E-02  0.1180000E+00
       11   -1    0    0    0    0  0.00000000000E+00  0.00000000000E+00  0.39999999673E+01  0.40000000000E+01  0.51109989000E-03 0.  1.
     -623   -1    0    0    0    0  0.00000000000E+00  0.00000000000E+00  0.12525980253E-10  0.17130000000E+03  0.17130000000E+03 0.  1.
       11    1    1    2    0    0 -0.24354647153E-02  0.74508123439E-03  0.20554061622E-01  0.20717560307E-01  0.51109989000E-03 0.  1.
     -623    1    1    2    0    0  0.65776877528E-03 -0.64953740615E-03  0.21412754242E-03  0.17130000000E+03  0.17130000000E+03 0.  1.
      622    1    1    2    0    0  0.17776959400E-02 -0.95543828243E-04  0.39792317782E+01  0.39792824371E+01  0.20000000000E-01 0.  1.
</event>
<event>
 5   0  0.3603037E+08  0.9118800E+02  0.7818608E-02  0.1180000E+00
       11   -1    0    0    0    0  0.00000000000E+00  0.00000000000E+00  0.39999999673E+01  0.40000000000E+01  0.51109989000E-03 0.  1.
     -623   -1    0    0    0    0  0.00000000000E+00  0.00000000000E+00  0.12525980253E-10  0.17130000000E+03  0.17130000000E+03 0.  1.
       11    1    1    2    0    0 -0.14584977777E-02 -0.24825790956E-02  0.49957008587E+00  0.49957864479E+00  0.51109989000E-03 0.  1.
     -623    1    1    2    0    0  0.52311886945E-04 -0.12936146534E-03  0.66919751202E-04  0.17130000000E+03  0.17130000000E+03 0.  1.
      622    1    1    2    0    0  0.14061858907E-02  0.26119405609E-02  0.35003629617E+01  0.35004213551E+01  0.20000000000E-01 0.  1.
</event>
<event>
 5   0  0.3603037E+08  0.9118800E+02  0.7818608E-02  0.1180000E+00
       11   -1    0    0    0    0  0.00000000000E+00  0.00000000000E+00  0.39999999673E+01  0.40000000000E+01  0.51109989000E-03 0. -1.
     -623   -1    0    0    0    0  0.00000000000E+00  0.00000000000E+00  0.12525980253E-10  0.17130000000E+03  0.17130000000E+03 0.  1.
       11    1    1    2    0    0  0.22362671582E-01  0.76604229740E-02  0.44040142981E+00  0.44103565815E+00  0.51109989000E-03 0. -1.
     -623    1    1    2    0    0 -0.22341387881E-02  0.41920872666E-02  0.76711899666E-03  0.17130000007E+03  0.17130000000E+03 0.  1.
      622    1    1    2    0    0 -0.20128532794E-01 -0.11852510241E-01  0.35588314186E+01  0.35589642743E+01  0.20000000000E-01 0. -1.
</event>
<event>
 5   0  0.3603037E+08  0.9118800E+02  0.7818608E-02  0.1180000E+00
       11   -1    0    0    0    0  0.00000000000E+00  0.00000000000E+00  0.39999999673E+01  0.40000000000E+01  0.51109989000E-03 0. -1.
     -623   -1    0    0    0    0  0.00000000000E+00  0.00000000000E+00  0.12525980253E-10  0.17130000000E+03  0.17130000000E+03 0.  1.
       11    1    1    2    0    0  0.10194941309E-01  0.55586646543E-03  0.24783237742E+01  0.24783448584E+01  0.51109989000E-03 0. -1.
     -623    1    1    2    0    0 -0.33026199816E-01 -0.35777375934E-02  0.33002331182E-03  0.17130000322E+03  0.17130000000E+03 0.  1.
      622    1    1    2    0    0  0.22831258507E-01  0.30218711280E-02  0.15213461698E+01  0.15216519203E+01  0.20000000000E-01 0.  0.
</event>
<event>
 5   0  0.3603037E+08  0.9118800E+02  0.7818608E-02  0.1180000E+00
       11   -1    0    0    0    0  0.00000000000E+00  0.00000000000E+00  0.39999999673E+01  0.40000000000E+01  0.51109989000E-03 0.  1.
     -623   -1    0    0    0    0  0.00000000000E+00  0.00000000000E+00  0.12525980253E-10  0.17130000000E+03  0.17130000000E+03 0.  1.
       11    1    1    2    0    0 -0.18567591332E-02 -0.11056400323E-02  0.71918859340E-02  0.75269143690E-02  0.51109989000E-03 0.  1.
     -623    1    1    2    0    0  0.35670170820E-03 -0.21611146965E-03  0.38559191290E-03  0.17130000000E+03  0.17130000000E+03 0.  1.
      622    1    1    2    0    0  0.15000574250E-02  0.13217515019E-02  0.39924224895E+01  0.39924730847E+01  0.20000000000E-01 0.  1.
</event>
<event>
 5   0  0.3603037E+08  0.9118800E+02  0.7818608E-02  0.1180000E+00
       11   -1    0    0    0    0  0.00000000000E+00  0.00000000000E+00  0.39999999673E+01  0.40000000000E+01  0.51109989000E-03 0. -1.
     -623   -1    0    0    0    0  0.00000000000E+00  0.00000000000E+00  0.12525980253E-10  0.17130000000E+03  0.17130000000E+03 0. -1.
       11    1    1    2    0    0  0.16416802342E-02  0.51491420104E-02  0.36585662185E+00  0.36589689497E+00  0.51109989000E-03 0. -1.
     -623    1    1    2    0    0  0.70827962105E-02  0.48213818548E-02  0.11963997178E-03  0.17130000021E+03  0.17130000000E+03 0. -1.
      622    1    1    2    0    0 -0.87244764448E-02 -0.99705238652E-02  0.36340237055E+01  0.36341028907E+01  0.20000000000E-01 0.  0.
</event>
<event>
 5   0  0.3603037E+08  0.9118800E+02  0.7818608E-02  0.1180000E+00
       11   -1    0    0    0    0  0.00000000000E+00  0.00000000000E+00  0.39999999673E+01  0.40000000000E+01  0.51109989000E-03 0.  1.
     -623   -1    0    0    0    0  0.00000000000E+00  0.00000000000E+00  0.12525980253E-10  0.17130000000E+03  0.17130000000E+03 0. -1.
       11    1    1    2    0    0  0.87809543484E-02  0.80614829023E-02  0.34683561791E+00  0.34704077533E+00  0.51109989000E-03 0.  1.
     -623    1    1    2    0    0 -0.27012317502E-03 -0.21066734202E-03  0.27822701975E-03  0.17130000000E+03  0.17130000000E+03 0. -1.
      622    1    1    2    0    0 -0.85108311733E-02 -0.78508155603E-02  0.36528861224E+01  0.36529592241E+01  0.20000000000E-01 0.  1.
</event>
<event>
 5   0  0.3603037E+08  0.9118800E+02  0.7818608E-02  0.1180000E+00
       11   -1    0    0    0    0  0.00000000000E+00  0.00000000000E+00  0.39999999673E+01  0.40000000000E+01  0.51109989000E-03 0. -1.
     -623   -1    0    0    0    0  0.00000000000E+00  0.00000000000E+00  0.12525980253E-10  0.17130000000E+03  0.17130000000E+03 0.  1.
       11    1    1    2    0    0  0.10159999083E-02 -0.81632632479E-03  0.87431013386E-02  0.88544727664E-02  0.51109989000E-03 0. -1.
     -623    1    1    2    0    0 -0.77621570506E-03  0.14284443234E-02  0.16151196300E-03  0.17130000001E+03  0.17130000000E+03 0.  1.
      622    1    1    2    0    0 -0.23978420327E-03 -0.61211799856E-03  0.39910953541E+01  0.39911455194E+01  0.20000000000E-01 0. -1.
</event>
<event>
 5   0  0.3603037E+08  0.9118800E+02  0.7818608E-02  0.1180000E+00
       11   -1    0    0    0    0  0.00000000000E+00  0.00000000000E+00  0.39999999673E+01  0.40000000000E+01  0.51109989000E-03 0.  1.
     -623   -1    0    0    0    0  0.00000000000E+00  0.00000000000E+00  0.12525980253E-10  0.17130000000E+03  0.17130000000E+03 0. -1.
       11    1    1    2    0    0  0.33211916896E-02  0.24406689427E-02  0.11382304755E-01  0.12116322092E-01  0.51109989000E-03 0.  1.
     -623    1    1    2    0    0 -0.11879335637E-02 -0.16672455712E-04  0.78545014222E-03  0.17130000001E+03  0.17130000000E+03 0. -1.
      622    1    1    2    0    0 -0.21332581260E-02 -0.24239964870E-02  0.39878322125E+01  0.39878836720E+01  0.20000000000E-01 0.  1.
</event>
<event>
 5   0  0.3603037E+08  0.9118800E+02  0.7818608E-02  0.1180000E+00
       11   -1    0    0    0    0  0.00000000000E+00  0.00000000000E+00  0.39999999673E+01  0.40000000000E+01  0.51109989000E-03 0.  1.
     -623   -1    0    0    0    0  0.00000000000E+00  0.00000000000E+00  0.12525980253E-10  0.17130000000E+03  0.17130000000E+03 0. -1.
       11    1    1    2    0    0  0.58086270925E-03  0.20355152492E-02  0.13411655036E+00  0.13413422764E+00  0.51109989000E-03 0.  1.
     -623    1    1    2    0    0  0.36376980651E-03 -0.12507349949E-02  0.69579877588E-04  0.17130000000E+03  0.17130000000E+03 0. -1.
      622    1    1    2    0    0 -0.94463251576E-03 -0.78478025423E-03  0.38658138371E+01  0.38658657674E+01  0.20000000000E-01 0.  1.
</event>
<event>
 5   0  0.3603037E+08  0.9118800E+02  0.7818608E-02  0.1180000E+00
       11   -1    0    0    0    0  0.00000000000E+00  0.00000000000E+00  0.39999999673E+01  0.40000000000E+01  0.51109989000E-03 0.  1.
     -623   -1    0    0    0    0  0.00000000000E+00  0.00000000000E+00  0.12525980253E-10  0.17130000000E+03  0.17130000000E+03 0. -1.
       11    1    1    2    0    0 -0.37177057699E-02 -0.59109411616E-02  0.60797207414E-01  0.61199037668E-01  0.51109989000E-03 0.  1.
     -623    1    1    2    0    0 -0.80415201464E-02 -0.70801812745E-02  0.49188872146E-03  0.17130000034E+03  0.17130000000E+03 0. -1.
      622    1    1    2    0    0  0.11759225916E-01  0.12991122436E-01  0.39387108712E+01  0.39388006266E+01  0.20000000000E-01 0.  0.
</event>
<event>
 5   0  0.3603037E+08  0.9118800E+02  0.7818608E-02  0.1180000E+00
       11   -1    0    0    0    0  0.00000000000E+00  0.00000000000E+00  0.39999999673E+01  0.40000000000E+01  0.51109989000E-03 0. -1.
     -623   -1    0    0    0    0  0.00000000000E+00  0.00000000000E+00  0.12525980253E-10  0.17130000000E+03  0.17130000000E+03 0. -1.
       11    1    1    2    0    0  0.16405301272E-03 -0.46875951341E-03  0.15466755915E+00  0.15466920096E+00  0.51109989000E-03 0. -1.
     -623    1    1    2    0    0  0.79287883241E-03 -0.10946414529E-02  0.54062879036E-04  0.17130000001E+03  0.17130000000E+03 0. -1.
      622    1    1    2    0    0 -0.95693184514E-03  0.15634009663E-02  0.38452783453E+01  0.38453307937E+01  0.20000000000E-01 0. -1.
</event>
<event>
 5   0  0.3603037E+08  0.9118800E+02  0.7818608E-02  0.1180000E+00
       11   -1    0    0    0    0  0.00000000000E+00  0.00000000000E+00  0.39999999673E+01  0.40000000000E+01  0.51109989000E-03 0.  1.
     -623   -1    0    0    0    0  0.00000000000E+00  0.00000000000E+00  0.12525980253E-10  0.17130000000E+03  0.17130000000E+03 0.  1.
       11    1    1    2    0    0 -0.92127598983E-03 -0.11764976849E-02  0.19681513371E-01  0.19744773648E-01  0.51109989000E-03 0.  1.
     -623    1    1    2    0    0  0.48766469639E-03 -0.33210460802E-03  0.11378656060E-03  0.17130000000E+03  0.17130000000E+03 0.  1.
      622    1    1    2    0    0  0.43361129345E-03  0.15086022929E-02  0.39802046674E+01  0.39802552253E+01  0.20000000000E-01 0.  1.
</event>
<event>
 5   0  0.3603037E+08  0.9118800E+02  0.7818608E-02  0.1180000E+00
       11   -1    0    0    0    0  0.00000000000E+00  0.00000000000E+00  0.39999999673E+01  0.40000000000E+01  0.51109989000E-03 0.  1.
     -623   -1    0    0    0    0  0.00000000000E+00  0.00000000000E+00  0.12525980253E-10  0.17130000000E+03  0.17130000000E+03 0.  1.
       11    1    1    2    0    0  0.79958239100E-03  0.19904671643E-03  0.14675944293E-01  0.14707940465E-01  0.51109989000E-03 0.  1.
     -623    1    1    2    0    0 -0.24451507104E-03 -0.68127151788E-03  0.82217754659E-04  0.17130000000E+03  0.17130000000E+03 0.  1.
      622    1    1    2    0    0 -0.55506731996E-03  0.48222480145E-03  0.39852418053E+01  0.39852920580E+01  0.20000000000E-01 0.  1.
</event>
<event>
 5   0  0.3603037E+08  0.9118800E+02  0.7818608E-02  0.1180000E+00
       11   -1    0    0    0    0  0.00000000000E+00  0.00000000000E+00  0.39999999673E+01  0.40000000000E+01  0.51109989000E-03 0. -1.
     -623   -1    0    0    0    0  0.00000000000E+00  0.00000000000E+00  0.12525980253E-10  0.17130000000E+03  0.17130000000E+03 0.  1.
       11    1    1    2    0    0  0.50149633323E-02 -0.21678623187E-02  0.53756710096E-01  0.54036048941E-01  0.51109989000E-03 0. -1.
     -623    1    1    2    0    0 -0.30432726477E-02 -0.26528715410E-02  0.33347649136E-03  0.17130000005E+03  0.17130000000E+03 0.  1.
      622    1    1    2    0    0 -0.19716906846E-02  0.48207338597E-02  0.39459097808E+01  0.39459639032E+01  0.20000000000E-01 0. -1.
</event>
<event>
 5   0  0.3603037E+08  0.9118800E+02  0.7818608E-02  0.1180000E+00
       11   -1    0    0    0    0  0.00000000000E+00  0.00000000000E+00  0.39999999673E+01  0.40000000000E+01  0.51109989000E-03 0.  1.
     -623   -1    0    0    0    0  0.00000000000E+00  0.00000000000E+00  0.12525980253E-10  0.17130000000E+03  0.17130000000E+03 0.  1.
       11    1    1    2    0    0 -0.43150922638E-03 -0.33420101340E-03  0.12032586637E-01  0.12055797471E-01  0.51109989000E-03 0.  1.
     -623    1    1    2    0    0  0.28721087191E-04  0.31714096170E-03  0.73350351358E-04  0.17130000000E+03  0.17130000000E+03 0.  1.
      622    1    1    2    0    0  0.40278813919E-03  0.17060051692E-04  0.39878940304E+01  0.39879442022E+01  0.20000000000E-01 0.  1.
</event>
<event>
 5   0  0.3603037E+08  0.9118800E+02  0.7818608E-02  0.1180000E+00
       11   -1    0    0    0    0  0.00000000000E+00  0.00000000000E+00  0.39999999673E+01  0.40000000000E+01  0.51109989000E-03 0. -1.
     -623   -1    0    0    0    0  0.00000000000E+00  0.00000000000E+00  0.12525980253E-10  0.17130000000E+03  0.17130000000E+03 0. -1.
       11    1    1    2    0    0 -0.16349680757E-02 -0.15461790560E-06  0.30643688440E-01  0.30691529496E-01  0.51109989000E-03 0. -1.
     -623    1    1    2    0    0  0.28163096271E-03 -0.47847523557E-03  0.98455844687E-04  0.17130000000E+03  0.17130000000E+03 0. -1.
      622    1    1    2    0    0  0.13533371130E-02  0.47862985348E-03  0.39692578231E+01  0.39693084696E+01  0.20000000000E-01 0. -1.
</event>
<event>
 5   0  0.3603037E+08  0.9118800E+02  0.7818608E-02  0.1180000E+00
       11   -1    0    0    0    0  0.00000000000E+00  0.00000000000E+00  0.39999999673E+01  0.40000000000E+01  0.51109989000E-03 0. -1.
     -623   -1    0    0    0    0  0.00000000000E+00  0.00000000000E+00  0.12525980253E-10  0.17130000000E+03  0.17130000000E+03 0.  1.
       11    1    1    2    0    0 -0.15320716440E-02  0.17052374538E-03  0.17851332778E-01  0.17925055820E-01  0.51109989000E-03 0. -1.
     -623    1    1    2    0    0  0.11295297488E-02 -0.38023673670E-03  0.12394584980E-03  0.17130000000E+03  0.17130000000E+03 0.  1.
      622    1    1    2    0    0  0.40254189519E-03  0.20971299132E-03  0.39820246887E+01  0.39820749400E+01  0.20000000000E-01 0. -1.
</event>
<event>
 5   0  0.3603037E+08  0.9118800E+02  0.7818608E-02  0.1180000E+00
       11   -1    0    0    0    0  0.00000000000E+00  0.00000000000E+00  0.39999999673E+01  0.40000000000E+01  0.51109989000E-03 0.  1.
     -623   -1    0    0    0    0  0.00000000000E+00  0.00000000000E+00  0.12525980253E-10  0.17130000000E+03  0.17130000000E+03 0.  1.
       11    1    1    2    0    0 -0.15238075663E-02  0.15884590159E-02  0.14266142372E+00  0.14267931956E+00  0.51109989000E-03 0.  1.
     -623    1    1    2    0    0 -0.20490882183E-03 -0.18499075688E-03  0.70355953266E-04  0.17130000000E+03  0.17130000000E+03 0.  1.
      622    1    1    2    0    0  0.17287163881E-02 -0.14034682590E-02  0.38572681877E+01  0.38573206802E+01  0.20000000000E-01 0.  1.
</event>
<event>
 5   0  0.3603037E+08  0.9118800E+02  0.7818608E-02  0.1180000E+00
       11   -1    0    0    0    0  0.00000000000E+00  0.00000000000E+00  0.39999999673E+01  0.40000000000E+01  0.51109989000E-03 0. -1.
     -623   -1    0    0    0    0  0.00000000000E+00  0.00000000000E+00  0.12525980253E-10  0.17130000000E+03  0.17130000000E+03 0. -1.
       11    1    1    2    0    0 -0.10511013707E-01 -0.27991675203E-03  0.11572204231E+01  0.11572683045E+01  0.51109989000E-03 0. -1.
     -623    1    1    2    0    0  0.47612543275E-02  0.51890807191E-02  0.12840323054E-03  0.17130000014E+03  0.17130000000E+03 0. -1.
      622    1    1    2    0    0  0.57497593796E-02 -0.49091639670E-02  0.28426511410E+01  0.28427315507E+01  0.20000000000E-01 0. -1.
</event>
<event>
 5   0  0.3603037E+08  0.9118800E+02  0.7818608E-02  0.1180000E+00
       11   -1    0    0    0    0  0.00000000000E+00  0.00000000000E+00  0.39999999673E+01  0.40000000000E+01  0.51109989000E-03 0.  1.
     -623   -1    0    0    0    0  0.00000000000E+00  0.00000000000E+00  0.12525980253E-10  0.17130000000E+03  0.17130000000E+03 0.  1.
       11    1    1    2    0    0  0.35866644577E-01 -0.23032384722E-01  0.26812654802E+01  0.26816043227E+01  0.51109989000E-03 0.  1.
     -623    1    1    2    0    0 -0.28459124103E-02  0.27776890826E-01  0.91497149363E-03  0.17130000228E+03  0.17130000000E+03 0.  1.
      622    1    1    2    0    0 -0.33020732167E-01 -0.47445061037E-02  0.13178195157E+01  0.13183933992E+01  0.20000000000E-01 0. -1.
</event>
<event>
 5   0  0.3603037E+08  0.9118800E+02  0.7818608E-02  0.1180000E+00
       11   -1    0    0    0    0  0.00000000000E+00  0.00000000000E+00  0.39999999673E+01  0.40000000000E+01  0.51109989000E-03 0.  1.
     -623   -1    0    0    0    0  0.00000000000E+00  0.00000000000E+00  0.12525980253E-10  0.17130000000E+03  0.17130000000E+03 0. -1.
       11    1    1    2    0    0  0.76216659156E-03 -0.21382106198E-03  0.10310876142E+00  0.10311306668E+00  0.51109989000E-03 0.  1.
     -623    1    1    2    0    0 -0.49022156564E-02  0.15540209291E-02  0.58102861275E-04  0.17130000008E+03  0.17130000000E+03 0. -1.
      622    1    1    2    0    0  0.41400490649E-02 -0.13401998672E-02  0.38968331031E+01  0.38968868561E+01  0.20000000000E-01 0.  1.
</event>
<event>
 5   0  0.3603037E+08  0.9118800E+02  0.7818608E-02  0.1180000E+00
       11   -1    0    0    0    0  0.00000000000E+00  0.00000000000E+00  0.39999999673E+01  0.40000000000E+01  0.51109989000E-03 0. -1.
     -623   -1    0    0    0    0  0.00000000000E+00  0.00000000000E+00  0.12525980253E-10  0.17130000000E+03  0.17130000000E+03 0. -1.
       11    1    1    2    0    0 -0.67809955371E-02  0.23725162596E-02  0.40654644961E-01  0.41287675060E-01  0.51109989000E-03 0. -1.
     -623    1    1    2    0    0 -0.69919354008E-03 -0.12631825588E-02  0.69074936724E-03  0.17130000001E+03  0.17130000000E+03 0. -1.
      622    1    1    2    0    0  0.74801890772E-02 -0.11093337008E-02  0.39586545730E+01  0.39587123175E+01  0.20000000000E-01 0. -1.
</event>
<event>
 5   0  0.3603037E+08  0.9118800E+02  0.7818608E-02  0.1180000E+00
       11   -1    0    0    0    0  0.00000000000E+00  0.00000000000E+00  0.39999999673E+01  0.40000000000E+01  0.51109989000E-03 0. -1.
     -623   -1    0    0    0    0  0.00000000000E+00  0.00000000000E+00  0.12525980253E-10  0.17130000000E+03  0.17130000000E+03 0.  1.
       11    1    1    2    0    0  0.11076909295E-01 -0.93536790169E-02  0.12081521278E+01  0.12082392207E+01  0.51109989000E-03 0. -1.
     -623    1    1    2    0    0  0.10173061294E-02 -0.72039355632E-04  0.20081366348E-03  0.17130000000E+03  0.17130000000E+03 0.  1.
      622    1    1    2    0    0 -0.12094215424E-01  0.94257183725E-02  0.27916470259E+01  0.27917607761E+01  0.20000000000E-01 0.  0.
</event>
<event>
 5   0  0.3603037E+08  0.9118800E+02  0.7818608E-02  0.1180000E+00
       11   -1    0    0    0    0  0.00000000000E+00  0.00000000000E+00  0.39999999673E+01  0.40000000000E+01  0.51109989000E-03 0. -1.
     -623   -1    0    0    0    0  0.00000000000E+00  0.00000000000E+00  0.12525980253E-10  0.17130000000E+03  0.17130000000E+03 0. -1.
       11    1    1    2    0    0  0.19874834934E-02 -0.65472455304E-04  0.22951972736E+00  0.22952891070E+00  0.51109989000E-03 0. -1.
     -623    1    1    2    0    0 -0.79349709120E-02 -0.33431622488E-02  0.68642858969E-04  0.17130000022E+03  0.17130000000E+03 0. -1.
      622    1    1    2    0    0  0.59474874185E-02  0.34086347041E-02  0.37704115971E+01  0.37704708729E+01  0.20000000000E-01 0. -1.
</event>
<event>
 5   0  0.3603037E+08  0.9118800E+02  0.7818608E-02  0.1180000E+00
       11   -1    0    0    0    0  0.00000000000E+00  0.00000000000E+00  0.39999999673E+01  0.40000000000E+01  0.51109989000E-03 0.  1.
     -623   -1    0    0    0    0  0.00000000000E+00  0.00000000000E+00  0.12525980253E-10  0.17130000000E+03  0.17130000000E+03 0.  1.
       11    1    1    2    0    0  0.36366250602E-02  0.36511514681E-02  0.76640655657E-01  0.76815410366E-01  0.51109989000E-03 0.  1.
     -623    1    1    2    0    0  0.23698167074E-02  0.58359644062E-03  0.23260252679E-03  0.17130000002E+03  0.17130000000E+03 0.  1.
      622    1    1    2    0    0 -0.60064417676E-02 -0.42347479087E-02  0.39231267092E+01  0.39231845721E+01  0.20000000000E-01 0.  1.
</event>
<event>
 5   0  0.3603037E+08  0.9118800E+02  0.7818608E-02  0.1180000E+00
       11   -1    0    0    0    0  0.00000000000E+00  0.00000000000E+00  0.39999999673E+01  0.40000000000E+01  0.51109989000E-03 0. -1.
     -623   -1    0    0    0    0  0.00000000000E+00  0.00000000000E+00  0.12525980253E-10  0.17130000000E+03  0.17130000000E+03 0. -1.
       11    1    1    2    0    0  0.36706263139E-03 -0.11091596117E-03  0.19042450751E+00  0.19042557948E+00  0.51109989000E-03 0. -1.
     -623    1    1    2    0    0  0.39289499349E-04  0.86750658233E-04  0.53560775381E-04  0.17130000000E+03  0.17130000000E+03 0. -1.
      622    1    1    2    0    0 -0.40635213074E-03  0.24165302936E-04  0.38095218991E+01  0.38095744205E+01  0.20000000000E-01 0. -1.
</event>
<event>
 5   0  0.3603037E+08  0.9118800E+02  0.7818608E-02  0.1180000E+00
       11   -1    0    0    0    0  0.00000000000E+00  0.00000000000E+00  0.39999999673E+01  0.40000000000E+01  0.51109989000E-03 0. -1.
     -623   -1    0    0    0    0  0.00000000000E+00  0.00000000000E+00  0.12525980253E-10  0.17130000000E+03  0.17130000000E+03 0. -1.
       11    1    1    2    0    0 -0.52285302153E-02 -0.14214511507E-01  0.78091122923E+00  0.78105825585E+00  0.51109989000E-03 0. -1.
     -623    1    1    2    0    0 -0.62375055327E-02  0.86547779781E-02  0.23468242168E-03  0.17130000033E+03  0.17130000000E+03 0. -1.
      622    1    1    2    0    0  0.11466035748E-01  0.55597335289E-02  0.32188540557E+01  0.32189414118E+01  0.20000000000E-01 0. -1.
</event>
<event>
 5   0  0.3603037E+08  0.9118800E+02  0.7818608E-02  0.1180000E+00
       11   -1    0    0    0    0  0.00000000000E+00  0.00000000000E+00  0.39999999673E+01  0.40000000000E+01  0.51109989000E-03 0.  1.
     -623   -1    0    0    0    0  0.00000000000E+00  0.00000000000E+00  0.12525980253E-10  0.17130000000E+03  0.17130000000E+03 0.  1.
       11    1    1    2    0    0  0.29414670729E-02  0.73843079123E-02  0.22589124089E-01  0.23952243750E-01  0.51109989000E-03 0.  1.
     -623    1    1    2    0    0 -0.17619301524E-02 -0.59684568788E-02  0.14139344757E-02  0.17130000012E+03  0.17130000000E+03 0.  1.
      622    1    1    2    0    0 -0.11795369205E-02 -0.14158510335E-02  0.39759969088E+01  0.39760476374E+01  0.20000000000E-01 0.  1.
</event>
<event>
 5   0  0.3603037E+08  0.9118800E+02  0.7818608E-02  0.1180000E+00
       11   -1    0    0    0    0  0.00000000000E+00  0.00000000000E+00  0.39999999673E+01  0.40000000000E+01  0.51109989000E-03 0. -1.
     -623   -1    0    0    0    0  0.00000000000E+00  0.00000000000E+00  0.12525980253E-10  0.17130000000E+03  0.17130000000E+03 0.  1.
       11    1    1    2    0    0 -0.12300923216E-02  0.14531464411E-02  0.50472554473E-01  0.50511035803E-01  0.51109989000E-03 0. -1.
     -623    1    1    2    0    0  0.51968115673E-03 -0.16000544898E-02  0.89163387615E-04  0.17130000001E+03  0.17130000000E+03 0.  1.
      622    1    1    2    0    0  0.71041116483E-03  0.14690804873E-03  0.39494382495E+01  0.39494889559E+01  0.20000000000E-01 0. -1.
</event>
<event>
 5   0  0.3603037E+08  0.9118800E+02  0.7818608E-02  0.1180000E+00
       11   -1    0    0    0    0  0.00000000000E+00  0.00000000000E+00  0.39999999673E+01  0.40000000000E+01  0.51109989000E-03 0. -1.
     -623   -1    0    0    0    0  0.00000000000E+00  0.00000000000E+00  0.12525980253E-10  0.17130000000E+03  0.17130000000E+03 0.  1.
       11    1    1    2    0    0 -0.48777444118E-03  0.18820031968E-03  0.13459577949E+00  0.13459776529E+00  0.51109989000E-03 0. -1.
     -623    1    1    2    0    0  0.13222050139E-02 -0.64502501164E-04  0.53791733737E-04  0.17130000001E+03  0.17130000000E+03 0.  1.
      622    1    1    2    0    0 -0.83443057269E-03 -0.12369781851E-03  0.38653503961E+01  0.38654022296E+01  0.20000000000E-01 0. -1.
</event>
<event>
 5   0  0.3603037E+08  0.9118800E+02  0.7818608E-02  0.1180000E+00
       11   -1    0    0    0    0  0.00000000000E+00  0.00000000000E+00  0.39999999673E+01  0.40000000000E+01  0.51109989000E-03 0.  1.
     -623   -1    0    0    0    0  0.00000000000E+00  0.00000000000E+00  0.12525980253E-10  0.17130000000E+03  0.17130000000E+03 0. -1.
       11    1    1    2    0    0 -0.40981465414E-02 -0.27071109080E-02  0.14942614927E+00  0.14950772075E+00  0.51109989000E-03 0.  1.
     -623    1    1    2    0    0  0.59269188504E-02 -0.21371580330E-02  0.13707811335E-03  0.17130000012E+03  0.17130000000E+03 0. -1.
      622    1    1    2    0    0 -0.18287723090E-02  0.48442689410E-02  0.38504367400E+01  0.38504921633E+01  0.20000000000E-01 0.  1.
</event>
<event>
 5   0  0.3603037E+08  0.9118800E+02  0.7818608E-02  0.1180000E+00
       11   -1    0    0    0    0  0.00000000000E+00  0.00000000000E+00  0.39999999673E+01  0.40000000000E+01  0.51109989000E-03 0. -1.
     -623   -1    0    0    0    0  0.00000000000E+00  0.00000000000E+00  0.12525980253E-10  0.17130000000E+03  0.17130000000E+03 0. -1.
       11    1    1    2    0    0 -0.77454320306E-02  0.19480919591E-01  0.18021836685E+01  0.18023056717E+01  0.51109989000E-03 0. -1.
     -623    1    1    2    0    0  0.12581719891E-02  0.19066289020E-02  0.32664458733E-03  0.17130000002E+03  0.17130000000E+03 0. -1.
      622    1    1    2    0    0  0.64872600415E-02 -0.21387548493E-01  0.21974896542E+01  0.21976943127E+01  0.20000000000E-01 0. -1.
</event>
<event>
 5   0  0.3603037E+08  0.9118800E+02  0.7818608E-02  0.1180000E+00
       11   -1    0    0    0    0  0.00000000000E+00  0.00000000000E+00  0.39999999673E+01  0.40000000000E+01  0.51109989000E-03 0.  1.
     -623   -1    0    0    0    0  0.00000000000E+00  0.00000000000E+00  0.12525980253E-10  0.17130000000E+03  0.17130000000E+03 0.  1.
       11    1    1    2    0    0 -0.27888790686E-01 -0.30690679567E-04  0.99515896490E-01  0.10335115125E+00  0.51109989000E-03 0.  1.
     -623    1    1    2    0    0 -0.55982092319E-02  0.75464560166E-02  0.40379971584E-02  0.17130000031E+03  0.17130000000E+03 0.  1.
      622    1    1    2    0    0  0.33486999918E-01 -0.75157653371E-02  0.38964460737E+01  0.38966485435E+01  0.20000000000E-01 0.  1.
</event>
<event>
 5   0  0.3603037E+08  0.9118800E+02  0.7818608E-02  0.1180000E+00
       11   -1    0    0    0    0  0.00000000000E+00  0.00000000000E+00  0.39999999673E+01  0.40000000000E+01  0.51109989000E-03 0.  1.
     -623   -1    0    0    0    0  0.00000000000E+00  0.00000000000E+00  0.12525980253E-10  0.17130000000E+03  0.17130000000E+03 0. -1.
       11    1    1    2    0    0  0.91519864312E-02 -0.77761599658E-02  0.17915614532E+00  0.17955894059E+00  0.51109989000E-03 0.  1.
     -623    1    1    2    0    0  0.59580909964E-03  0.42911055736E-03  0.47461570871E-03  0.17130000000E+03  0.17130000000E+03 0. -1.
      622    1    1    2    0    0 -0.97477955309E-02  0.73470494084E-02  0.38203692063E+01  0.38204410572E+01  0.20000000000E-01 0.  1.
</event>
<event>
 5   0  0.3603037E+08  0.9118800E+02  0.7818608E-02  0.1180000E+00
       11   -1    0    0    0    0  0.00000000000E+00  0.00000000000E+00  0.39999999673E+01  0.40000000000E+01  0.51109989000E-03 0.  1.
     -623   -1    0    0    0    0  0.00000000000E+00  0.00000000000E+00  0.12525980253E-10  0.17130000000E+03  0.17130000000E+03 0.  1.
       11    1    1    2    0    0 -0.34174266356E-03  0.99474677973E-03  0.16454218971E-01  0.16495722262E-01  0.51109989000E-03 0.  1.
     -623    1    1    2    0    0  0.10269343822E-03  0.22082211361E-03  0.91870855901E-04  0.17130000000E+03  0.17130000000E+03 0.  1.
      622    1    1    2    0    0  0.23904922535E-03 -0.12155688933E-02  0.39834538775E+01  0.39835042775E+01  0.20000000000E-01 0.  1.
</event>
<event>
 5   0  0.3603037E+08  0.9118800E+02  0.7818608E-02  0.1180000E+00
       11   -1    0    0    0    0  0.00000000000E+00  0.00000000000E+00  0.39999999673E+01  0.40000000000E+01  0.51109989000E-03 0. -1.
     -623   -1    0    0    0    0  0.00000000000E+00  0.00000000000E+00  0.12525980253E-10  0.17130000000E+03  0.17130000000E+03 0.  1.
       11    1    1    2    0    0 -0.19491576106E-02 -0.25107401180E-02  0.13720780943E+00  0.13724557268E+00  0.51109989000E-03 0. -1.
     -623    1    1    2    0    0 -0.22346944677E-03  0.60168032060E-03  0.90591473216E-04  0.17130000000E+03  0.17130000000E+03 0.  1.
      622    1    1    2    0    0  0.21726270573E-02  0.19090597974E-02  0.38627015665E+01  0.38627544261E+01  0.20000000000E-01 0. -1.
</event>
<event>
 5   0  0.3603037E+08  0.9118800E+02  0.7818608E-02  0.1180000E+00
       11   -1    0    0    0    0  0.00000000000E+00  0.00000000000E+00  0.39999999673E+01  0.40000000000E+01  0.51109989000E-03 0. -1.
     -623   -1    0    0    0    0  0.00000000000E+00  0.00000000000E+00  0.12525980253E-10  0.17130000000E+03  0.17130000000E+03 0. -1.
       11    1    1    2    0    0  0.11396233541E-02  0.67318009101E-02  0.92190089951E-02  0.11483345885E-01  0.51109989000E-03 0. -1.
     -623    1    1    2    0    0 -0.76380099375E-02 -0.74622810921E-02  0.23201578489E-02  0.17130000035E+03  0.17130000000E+03 0. -1.
      622    1    1    2    0    0  0.64983865834E-02  0.73048018195E-03  0.39884608005E+01  0.39885163056E+01  0.20000000000E-01 0. -1.
</event>
<event>
 5   0  0.3603037E+08  0.9118800E+02  0.7818608E-02  0.1180000E+00
       11   -1    0    0    0    0  0.00000000000E+00  0.00000000000E+00  0.39999999673E+01  0.40000000000E+01  0.51109989000E-03 0. -1.
     -623   -1    0    0    0    0  0.00000000000E+00  0.00000000000E+00  0.12525980253E-10  0.17130000000E+03  0.17130000000E+03 0.  1.
       11    1    1    2    0    0  0.72644005673E-03 -0.24048173438E-02  0.72061455051E+00  0.72061911056E+00  0.51109989000E-03 0. -1.
     -623    1    1    2    0    0 -0.26767947475E-02  0.64295422776E-02  0.68706447002E-04  0.17130000014E+03  0.17130000000E+03 0.  1.
      622    1    1    2    0    0  0.19503546907E-02 -0.40247249338E-02  0.32793167104E+01  0.32793807479E+01  0.20000000000E-01 0. -1.
</event>
<event>
 5   0  0.3603037E+08  0.9118800E+02  0.7818608E-02  0.1180000E+00
       11   -1    0    0    0    0  0.00000000000E+00  0.00000000000E+00  0.39999999673E+01  0.40000000000E+01  0.51109989000E-03 0.  1.
     -623   -1    0    0    0    0  0.00000000000E+00  0.00000000000E+00  0.12525980253E-10  0.17130000000E+03  0.17130000000E+03 0. -1.
       11    1    1    2    0    0  0.77755486899E-03 -0.16420286480E-02  0.59370294034E-02  0.62297984468E-02  0.51109989000E-03 0.  1.
     -623    1    1    2    0    0 -0.35035626308E-03 -0.41049776600E-04  0.34319291743E-03  0.17130000000E+03  0.17130000000E+03 0. -1.
      622    1    1    2    0    0 -0.42719860592E-03  0.16830784246E-02  0.39937197450E+01  0.39937702008E+01  0.20000000000E-01 0.  1.
</event>
<event>
 5   0  0.3603037E+08  0.9118800E+02  0.7818608E-02  0.1180000E+00
       11   -1    0    0    0    0  0.00000000000E+00  0.00000000000E+00  0.39999999673E+01  0.40000000000E+01  0.51109989000E-03 0. -1.
     -623   -1    0    0    0    0  0.00000000000E+00  0.00000000000E+00  0.12525980253E-10  0.17130000000E+03  0.17130000000E+03 0. -1.
       11    1    1    2    0    0 -0.28145195091E-02  0.66318587899E-02  0.14426168391E+01  0.14426349187E+01  0.51109989000E-03 0. -1.
     -623    1    1    2    0    0 -0.59608456737E-03 -0.78607595626E-02  0.99004718362E-04  0.17130000018E+03  0.17130000000E+03 0. -1.
      622    1    1    2    0    0  0.34106040764E-02  0.12289007727E-02  0.25572841236E+01  0.25573648999E+01  0.20000000000E-01 0. -1.
</event>
<event>
 5   0  0.3603037E+08  0.9118800E+02  0.7818608E-02  0.1180000E+00
       11   -1    0    0    0    0  0.00000000000E+00  0.00000000000E+00  0.39999999673E+01  0.40000000000E+01  0.51109989000E-03 0. -1.
     -623   -1    0    0    0    0  0.00000000000E+00  0.00000000000E+00  0.12525980253E-10  0.17130000000E+03  0.17130000000E+03 0. -1.
       11    1    1    2    0    0  0.86654457246E-03  0.98439637199E-05  0.29415245636E-02  0.31088236590E-02  0.51109989000E-03 0. -1.
     -623    1    1    2    0    0  0.40978789219E-04 -0.45204231361E-03  0.21743389153E-03  0.17130000000E+03  0.17130000000E+03 0. -1.
      622    1    1    2    0    0 -0.90752336168E-03  0.44219834989E-03  0.39968410089E+01  0.39968911756E+01  0.20000000000E-01 0. -1.
</event>
<event>
 5   0  0.3603037E+08  0.9118800E+02  0.7818608E-02  0.1180000E+00
       11   -1    0    0    0    0  0.00000000000E+00  0.00000000000E+00  0.39999999673E+01  0.40000000000E+01  0.51109989000E-03 0.  1.
     -623   -1    0    0    0    0  0.00000000000E+00  0.00000000000E+00  0.12525980253E-10  0.17130000000E+03  0.17130000000E+03 0. -1.
       11    1    1    2    0    0 -0.11004479120E-02  0.31842717395E-03  0.28309413006E-01  0.28337192303E-01  0.51109989000E-03 0.  1.
     -623    1    1    2    0    0  0.23198130102E-02 -0.18707595715E-02  0.78620215203E-04  0.17130000003E+03  0.17130000000E+03 0. -1.
      622    1    1    2    0    0 -0.12193650983E-02  0.15523323975E-02  0.39716119341E+01  0.39716627818E+01  0.20000000000E-01 0.  1.
</event>
<event>
 5   0  0.3603037E+08  0.9118800E+02  0.7818608E-02  0.1180000E+00
       11   -1    0    0    0    0  0.00000000000E+00  0.00000000000E+00  0.39999999673E+01  0.40000000000E+01  0.51109989000E-03 0.  1.
     -623   -1    0    0    0    0  0.00000000000E+00  0.00000000000E+00  0.12525980253E-10  0.17130000000E+03  0.17130000000E+03 0. -1.
       11    1    1    2    0    0 -0.18987261865E-02  0.66978230079E-03  0.17799244928E-01  0.17920047737E-01  0.51109989000E-03 0.  1.
     -623    1    1    2    0    0 -0.68051355612E-03 -0.69950566127E-03  0.17183378317E-03  0.17130000000E+03  0.17130000000E+03 0. -1.
      622    1    1    2    0    0  0.25792397426E-02  0.29723360484E-04  0.39820288886E+01  0.39820799494E+01  0.20000000000E-01 0.  1.
</event>
<event>
 5   0  0.3603037E+08  0.9118800E+02  0.7818608E-02  0.1180000E+00
       11   -1    0    0    0    0  0.00000000000E+00  0.00000000000E+00  0.39999999673E+01  0.40000000000E+01  0.51109989000E-03 0.  1.
     -623   -1    0    0    0    0  0.00000000000E+00  0.00000000000E+00  0.12525980253E-10  0.17130000000E+03  0.17130000000E+03 0. -1.
       11    1    1    2    0    0  0.16492138693E-02  0.42193862346E-02  0.82357759825E-01  0.82483846612E-01  0.51109989000E-03 0.  1.
     -623    1    1    2    0    0  0.80571626088E-03 -0.83452793157E-04  0.18006174650E-03  0.17130000000E+03  0.17130000000E+03 0. -1.
      622    1    1    2    0    0 -0.24549301302E-02 -0.41359334415E-02  0.39174621458E+01  0.39175161514E+01  0.20000000000E-01 0.  1.
</event>
<event>
 5   0  0.3603037E+08  0.9118800E+02  0.7818608E-02  0.1180000E+00
       11   -1    0    0    0    0  0.00000000000E+00  0.00000000000E+00  0.39999999673E+01  0.40000000000E+01  0.51109989000E-03 0.  1.
     -623   -1    0    0    0    0  0.00000000000E+00  0.00000000000E+00  0.12525980253E-10  0.17130000000E+03  0.17130000000E+03 0. -1.
       11    1    1    2    0    0  0.13259270292E-02 -0.57832322666E-02  0.62408647064E+00  0.62411488359E+00  0.51109989000E-03 0.  1.
     -623    1    1    2    0    0  0.19539809792E-03  0.20911266923E-03  0.92569568900E-04  0.17130000000E+03  0.17130000000E+03 0. -1.
      622    1    1    2    0    0 -0.15213251271E-02  0.55741195974E-02  0.33758209271E+01  0.33758851161E+01  0.20000000000E-01 0.  1.
</event>
<event>
 5   0  0.3603037E+08  0.9118800E+02  0.7818608E-02  0.1180000E+00
       11   -1    0    0    0    0  0.00000000000E+00  0.00000000000E+00  0.39999999673E+01  0.40000000000E+01  0.51109989000E-03 0.  1.
     -623   -1    0    0    0    0  0.00000000000E+00  0.00000000000E+00  0.12525980253E-10  0.17130000000E+03  0.17130000000E+03 0. -1.
       11    1    1    2    0    0  0.32560763295E-02 -0.34867703591E-02  0.25652637040E+00  0.25657123675E+00  0.51109989000E-03 0.  1.
     -623    1    1    2    0    0  0.11922684047E-02  0.75871696346E-03  0.10190401525E-03  0.17130000001E+03  0.17130000000E+03 0. -1.
      622    1    1    2    0    0 -0.44483447342E-02  0.27280533956E-02  0.37433716929E+01  0.37434287574E+01  0.20000000000E-01 0.  1.
</event>
<event>
 5   0  0.3603037E+08  0.9118800E+02  0.7818608E-02  0.1180000E+00
       11   -1    0    0    0    0  0.00000000000E+00  0.00000000000E+00  0.39999999673E+01  0.40000000000E+01  0.51109989000E-03 0.  1.
     -623   -1    0    0    0    0  0.00000000000E+00  0.00000000000E+00  0.12525980253E-10  0.17130000000E+03  0.17130000000E+03 0.  1.
       11    1    1    2    0    0 -0.63521359251E-02  0.10661733730E-01  0.13238104236E+01  0.13238686948E+01  0.51109989000E-03 0.  1.
     -623    1    1    2    0    0  0.23109685349E-02 -0.28137679555E-02  0.14757218059E-03  0.17130000004E+03  0.17130000000E+03 0.  1.
      622    1    1    2    0    0  0.40411673902E-02 -0.78479657748E-02  0.26760419715E+01  0.26761312664E+01  0.20000000000E-01 0.  0.
</event>
<event>
 5   0  0.3603037E+08  0.9118800E+02  0.7818608E-02  0.1180000E+00
       11   -1    0    0    0    0  0.00000000000E+00  0.00000000000E+00  0.39999999673E+01  0.40000000000E+01  0.51109989000E-03 0. -1.
     -623   -1    0    0    0    0  0.00000000000E+00  0.00000000000E+00  0.12525980253E-10  0.17130000000E+03  0.17130000000E+03 0. -1.
       11    1    1    2    0    0  0.17001648742E-02  0.28966588296E-02  0.76968247149E+00  0.76968996962E+00  0.51109989000E-03 0. -1.
     -623    1    1    2    0    0 -0.15090020472E-02 -0.12706309965E-03  0.70579327877E-04  0.17130000001E+03  0.17130000000E+03 0. -1.
      622    1    1    2    0    0 -0.19116282703E-03 -0.27695957300E-02  0.32302469165E+01  0.32303100237E+01  0.20000000000E-01 0. -1.
</event>
<event>
 5   0  0.3603037E+08  0.9118800E+02  0.7818608E-02  0.1180000E+00
       11   -1    0    0    0    0  0.00000000000E+00  0.00000000000E+00  0.39999999673E+01  0.40000000000E+01  0.51109989000E-03 0. -1.
     -623   -1    0    0    0    0  0.00000000000E+00  0.00000000000E+00  0.12525980253E-10  0.17130000000E+03  0.17130000000E+03 0.  1.
       11    1    1    2    0    0  0.36595976545E-01  0.88602182404E-02  0.17275753883E+01  0.17279857500E+01  0.51109989000E-03 0. -1.
     -623    1    1    2    0    0 -0.39551684401E-01  0.34930895616E-01  0.93048689847E-03  0.17130000813E+03  0.17130000000E+03 0.  1.
      622    1    1    2    0    0  0.29557078555E-02 -0.43791113856E-01  0.22714940922E+01  0.22720061199E+01  0.20000000000E-01 0.  1.
</event>
<event>
 5   0  0.3603037E+08  0.9118800E+02  0.7818608E-02  0.1180000E+00
       11   -1    0    0    0    0  0.00000000000E+00  0.00000000000E+00  0.39999999673E+01  0.40000000000E+01  0.51109989000E-03 0. -1.
     -623   -1    0    0    0    0  0.00000000000E+00  0.00000000000E+00  0.12525980253E-10  0.17130000000E+03  0.17130000000E+03 0.  1.
       11    1    1    2    0    0  0.26286939029E-02 -0.32826832580E-02  0.18409233982E+00  0.18414107864E+00  0.51109989000E-03 0. -1.
     -623    1    1    2    0    0 -0.57102964736E-03 -0.14636676426E-02  0.10463332451E-03  0.17130000001E+03  0.17130000000E+03 0.  1.
      622    1    1    2    0    0 -0.20576642555E-02  0.47463509006E-02  0.38158029942E+01  0.38158589141E+01  0.20000000000E-01 0. -1.
</event>
<event>
 5   0  0.3603037E+08  0.9118800E+02  0.7818608E-02  0.1180000E+00
       11   -1    0    0    0    0  0.00000000000E+00  0.00000000000E+00  0.39999999673E+01  0.40000000000E+01  0.51109989000E-03 0.  1.
     -623   -1    0    0    0    0  0.00000000000E+00  0.00000000000E+00  0.12525980253E-10  0.17130000000E+03  0.17130000000E+03 0.  1.
       11    1    1    2    0    0 -0.15265202648E-01  0.28651450394E-02  0.13115942331E+01  0.13116862921E+01  0.51109989000E-03 0.  1.
     -623    1    1    2    0    0  0.45289302588E-02  0.81039089978E-02  0.21049378243E-03  0.17130000025E+03  0.17130000000E+03 0.  1.
      622    1    1    2    0    0  0.10736272389E-01 -0.10969054037E-01  0.26881952405E+01  0.26883134562E+01  0.20000000000E-01 0. -1.
</event>
<event>
 5   0  0.3603037E+08  0.9118800E+02  0.7818608E-02  0.1180000E+00
       11   -1    0    0    0    0  0.00000000000E+00  0.00000000000E+00  0.39999999673E+01  0.40000000000E+01  0.51109989000E-03 0.  1.
     -623   -1    0    0    0    0  0.00000000000E+00  0.00000000000E+00  0.12525980253E-10  0.17130000000E+03  0.17130000000E+03 0.  1.
       11    1    1    2    0    0 -0.36903808864E-03  0.17900269860E-03  0.26553936422E-01  0.26562021621E-01  0.51109989000E-03 0.  1.
     -623    1    1    2    0    0  0.72946319754E-03 -0.14047129279E-03  0.58405277212E-04  0.17130000000E+03  0.17130000000E+03 0.  1.
      622    1    1    2    0    0 -0.36042510890E-03 -0.38531405809E-04  0.39733876257E+01  0.39734379768E+01  0.20000000000E-01 0.  1.
</event>
<event>
 5   0  0.3603037E+08  0.9118800E+02  0.7818608E-02  0.1180000E+00
       11   -1    0    0    0    0  0.00000000000E+00  0.00000000000E+00  0.39999999673E+01  0.40000000000E+01  0.51109989000E-03 0. -1.
     -623   -1    0    0    0    0  0.00000000000E+00  0.00000000000E+00  0.12525980253E-10  0.17130000000E+03  0.17130000000E+03 0. -1.
       11    1    1    2    0    0  0.22786689199E-02  0.14578788466E-02  0.13525121388E+00  0.13527922908E+00  0.51109989000E-03 0. -1.
     -623    1    1    2    0    0 -0.24871081770E-02 -0.68072182266E-02  0.83594221973E-04  0.17130000015E+03  0.17130000000E+03 0. -1.
      622    1    1    2    0    0  0.20843925706E-03  0.53493393800E-02  0.38646651593E+01  0.38647206176E+01  0.20000000000E-01 0. -1.
</event>
<event>
 5   0  0.3603037E+08  0.9118800E+02  0.7818608E-02  0.1180000E+00
       11   -1    0    0    0    0  0.00000000000E+00  0.00000000000E+00  0.39999999673E+01  0.40000000000E+01  0.51109989000E-03 0. -1.
     -623   -1    0    0    0    0  0.00000000000E+00  0.00000000000E+00  0.12525980253E-10  0.17130000000E+03  0.17130000000E+03 0. -1.
       11    1    1    2    0    0 -0.15202548936E-01 -0.40816801646E-01  0.12603147822E+01  0.12610673021E+01  0.51109989000E-03 0. -1.
     -623    1    1    2    0    0 -0.29062255542E-02  0.29558246660E-01  0.91109381552E-03  0.17130000258E+03  0.17130000000E+03 0. -1.
      622    1    1    2    0    0  0.18108774490E-01  0.11258554985E-01  0.27387740913E+01  0.27389301207E+01  0.20000000000E-01 0. -1.
</event>
<event>
 5   0  0.3603037E+08  0.9118800E+02  0.7818608E-02  0.1180000E+00
       11   -1    0    0    0    0  0.00000000000E+00  0.00000000000E+00  0.39999999673E+01  0.40000000000E+01  0.51109989000E-03 0. -1.
     -623   -1    0    0    0    0  0.00000000000E+00  0.00000000000E+00  0.12525980253E-10  0.17130000000E+03  0.17130000000E+03 0.  1.
       11    1    1    2    0    0 -0.34325993239E-01  0.51700958279E-02  0.10681376899E+00  0.11231405153E+00  0.51109989000E-03 0. -1.
     -623    1    1    2    0    0 -0.17518959511E-01 -0.36997860117E-02  0.58987241506E-02  0.17130000104E+03  0.17130000000E+03 0.  1.
      622    1    1    2    0    0  0.51844952751E-01 -0.14703098162E-02  0.38872874742E+01  0.38876849111E+01  0.20000000000E-01 0. -1.
</event>
<event>
 5   0  0.3603037E+08  0.9118800E+02  0.7818608E-02  0.1180000E+00
       11   -1    0    0    0    0  0.00000000000E+00  0.00000000000E+00  0.39999999673E+01  0.40000000000E+01  0.51109989000E-03 0. -1.
     -623   -1    0    0    0    0  0.00000000000E+00  0.00000000000E+00  0.12525980253E-10  0.17130000000E+03  0.17130000000E+03 0. -1.
       11    1    1    2    0    0 -0.49262593037E-01 -0.54159854956E-02  0.84847656542E+00  0.84992286666E+00  0.51109989000E-03 0. -1.
     -623    1    1    2    0    0  0.23244211350E-01  0.37939039361E-01  0.17909089569E-02  0.17130000579E+03  0.17130000000E+03 0. -1.
      622    1    1    2    0    0  0.26018381687E-01 -0.32523053865E-01  0.31497324930E+01  0.31500713456E+01  0.20000000000E-01 0. -1.
</event>
<event>
 5   0  0.3603037E+08  0.9118800E+02  0.7818608E-02  0.1180000E+00
       11   -1    0    0    0    0  0.00000000000E+00  0.00000000000E+00  0.39999999673E+01  0.40000000000E+01  0.51109989000E-03 0. -1.
     -623   -1    0    0    0    0  0.00000000000E+00  0.00000000000E+00  0.12525980253E-10  0.17130000000E+03  0.17130000000E+03 0. -1.
       11    1    1    2    0    0 -0.34387271070E-02  0.14401067518E-02  0.30669758495E-01  0.30899742075E-01  0.51109989000E-03 0. -1.
     -623    1    1    2    0    0 -0.10596618703E-02  0.20228983769E-03  0.28323312034E-03  0.17130000000E+03  0.17130000000E+03 0. -1.
      622    1    1    2    0    0  0.44983889773E-02 -0.16423965895E-02  0.39690469757E+01  0.39691002543E+01  0.20000000000E-01 0. -1.
</event>
<event>
 5   0  0.3603037E+08  0.9118800E+02  0.7818608E-02  0.1180000E+00
       11   -1    0    0    0    0  0.00000000000E+00  0.00000000000E+00  0.39999999673E+01  0.40000000000E+01  0.51109989000E-03 0. -1.
     -623   -1    0    0    0    0  0.00000000000E+00  0.00000000000E+00  0.12525980253E-10  0.17130000000E+03  0.17130000000E+03 0. -1.
       11    1    1    2    0    0 -0.36409255678E-02  0.40996443979E-02  0.31209432540E-01  0.31691533959E-01  0.51109989000E-03 0. -1.
     -623    1    1    2    0    0  0.55471351445E-02 -0.12733032902E-02  0.53402813895E-03  0.17130000010E+03  0.17130000000E+03 0. -1.
      622    1    1    2    0    0 -0.19062095767E-02 -0.28263411077E-02  0.39682565067E+01  0.39683083707E+01  0.20000000000E-01 0. -1.
</event>
<event>
 5   0  0.3603037E+08  0.9118800E+02  0.7818608E-02  0.1180000E+00
       11   -1    0    0    0    0  0.00000000000E+00  0.00000000000E+00  0.39999999673E+01  0.40000000000E+01  0.51109989000E-03 0.  1.
     -623   -1    0    0    0    0  0.00000000000E+00  0.00000000000E+00  0.12525980253E-10  0.17130000000E+03  0.17130000000E+03 0. -1.
       11    1    1    2    0    0  0.10294765675E-02 -0.14699323290E-02  0.17741173167E+00  0.17742154401E+00  0.51109989000E-03 0.  1.
     -623    1    1    2    0    0  0.57563706296E-03  0.10974758346E-03  0.62680775040E-04  0.17130000000E+03  0.17130000000E+03 0. -1.
      622    1    1    2    0    0 -0.16051136304E-02  0.13601847456E-02  0.38225255549E+01  0.38225784550E+01  0.20000000000E-01 0.  1.
</event>
<event>
 5   0  0.3603037E+08  0.9118800E+02  0.7818608E-02  0.1180000E+00
       11   -1    0    0    0    0  0.00000000000E+00  0.00000000000E+00  0.39999999673E+01  0.40000000000E+01  0.51109989000E-03 0. -1.
     -623   -1    0    0    0    0  0.00000000000E+00  0.00000000000E+00  0.12525980253E-10  0.17130000000E+03  0.17130000000E+03 0.  1.
       11    1    1    2    0    0  0.27781750126E-02  0.11225461098E-01  0.17161889018E+01  0.17162279386E+01  0.51109989000E-03 0. -1.
     -623    1    1    2    0    0 -0.42002567346E-02 -0.60836763799E-02  0.13297102825E-03  0.17130000016E+03  0.17130000000E+03 0.  1.
      622    1    1    2    0    0  0.14220817220E-02 -0.51417847176E-02  0.22836780945E+01  0.22837719018E+01  0.20000000000E-01 0.  0.
</event>
<event>
 5   0  0.3603037E+08  0.9118800E+02  0.7818608E-02  0.1180000E+00
       11   -1    0    0    0    0  0.00000000000E+00  0.00000000000E+00  0.39999999673E+01  0.40000000000E+01  0.51109989000E-03 0.  1.
     -623   -1    0    0    0    0  0.00000000000E+00  0.00000000000E+00  0.12525980253E-10  0.17130000000E+03  0.17130000000E+03 0.  1.
       11    1    1    2    0    0 -0.39371589974E-02 -0.46919106431E-02  0.10675163472E+01  0.10675340407E+01  0.51109989000E-03 0.  1.
     -623    1    1    2    0    0  0.45985947522E-02 -0.11883382971E-03  0.89946141224E-04  0.17130000006E+03  0.17130000000E+03 0.  1.
      622    1    1    2    0    0 -0.66143575479E-03  0.48107444728E-02  0.29323936740E+01  0.29324658975E+01  0.20000000000E-01 0. -1.
</event>
<event>
 5   0  0.3603037E+08  0.9118800E+02  0.7818608E-02  0.1180000E+00
       11   -1    0    0    0    0  0.00000000000E+00  0.00000000000E+00  0.39999999673E+01  0.40000000000E+01  0.51109989000E-03 0.  1.
     -623   -1    0    0    0    0  0.00000000000E+00  0.00000000000E+00  0.12525980253E-10  0.17130000000E+03  0.17130000000E+03 0. -1.
       11    1    1    2    0    0  0.67921368132E-03 -0.47533821579E-03  0.20397901874E-03  0.99504169962E-03  0.51109989000E-03 0.  1.
     -623    1    1    2    0    0 -0.27275683793E-02  0.16821358776E-02  0.84178153702E-03  0.17130000003E+03  0.17130000000E+03 0. -1.
      622    1    1    2    0    0  0.20483546979E-02 -0.12067976618E-02  0.39989542068E+01  0.39990049263E+01  0.20000000000E-01 0.  1.
</event>
<event>
 5   0  0.3603037E+08  0.9118800E+02  0.7818608E-02  0.1180000E+00
       11   -1    0    0    0    0  0.00000000000E+00  0.00000000000E+00  0.39999999673E+01  0.40000000000E+01  0.51109989000E-03 0.  1.
     -623   -1    0    0    0    0  0.00000000000E+00  0.00000000000E+00  0.12525980253E-10  0.17130000000E+03  0.17130000000E+03 0.  1.
       11    1    1    2    0    0  0.81621405970E-02 -0.44277552923E-02  0.26153064128E+00  0.26169593636E+00  0.51109989000E-03 0.  1.
     -623    1    1    2    0    0  0.11671080995E-03  0.91545132337E-03  0.22958298510E-03  0.17130000000E+03  0.17130000000E+03 0.  1.
      622    1    1    2    0    0 -0.82788514070E-02  0.35123039689E-02  0.37382397431E+01  0.37383040610E+01  0.20000000000E-01 0.  1.
</event>
<event>
 5   0  0.3603037E+08  0.9118800E+02  0.7818608E-02  0.1180000E+00
       11   -1    0    0    0    0  0.00000000000E+00  0.00000000000E+00  0.39999999673E+01  0.40000000000E+01  0.51109989000E-03 0. -1.
     -623   -1    0    0    0    0  0.00000000000E+00  0.00000000000E+00  0.12525980253E-10  0.17130000000E+03  0.17130000000E+03 0. -1.
       11    1    1    2    0    0 -0.12059747688E-01  0.14472930037E-02  0.47832749268E-01  0.49353472990E-01  0.51109989000E-03 0.  1.
     -623    1    1    2    0    0  0.63452801025E-02  0.75891766508E-03  0.15761914570E-02  0.17130000013E+03  0.17130000000E+03 0. -1.
      622    1    1    2    0    0  0.57144675853E-02 -0.22062106687E-02  0.39505910266E+01  0.39506464006E+01  0.20000000000E-01 0. -1.
</event>
<event>
 5   0  0.3603037E+08  0.9118800E+02  0.7818608E-02  0.1180000E+00
       11   -1    0    0    0    0  0.00000000000E+00  0.00000000000E+00  0.39999999673E+01  0.40000000000E+01  0.51109989000E-03 0. -1.
     -623   -1    0    0    0    0  0.00000000000E+00  0.00000000000E+00  0.12525980253E-10  0.17130000000E+03  0.17130000000E+03 0. -1.
       11    1    1    2    0    0 -0.45023652510E-03  0.59361867350E-03  0.35558598217E-01  0.35570074858E-01  0.51109989000E-03 0. -1.
     -623    1    1    2    0    0 -0.39539058800E-03 -0.10896380234E-02  0.62018090393E-04  0.17130000000E+03  0.17130000000E+03 0. -1.
      622    1    1    2    0    0  0.84562711310E-03  0.49601934994E-03  0.39643793511E+01  0.39644299212E+01  0.20000000000E-01 0. -1.
</event>
<event>
 5   0  0.3603037E+08  0.9118800E+02  0.7818608E-02  0.1180000E+00
       11   -1    0    0    0    0  0.00000000000E+00  0.00000000000E+00  0.39999999673E+01  0.40000000000E+01  0.51109989000E-03 0. -1.
     -623   -1    0    0    0    0  0.00000000000E+00  0.00000000000E+00  0.12525980253E-10  0.17130000000E+03  0.17130000000E+03 0. -1.
       11    1    1    2    0    0  0.75578254999E-03  0.19233097238E-03  0.30261366396E-01  0.30275728149E-01  0.51109989000E-03 0. -1.
     -623    1    1    2    0    0 -0.11328021879E-02  0.87387808649E-03  0.64877842250E-04  0.17130000001E+03  0.17130000000E+03 0. -1.
      622    1    1    2    0    0  0.37701963789E-03 -0.10662090589E-02  0.39696737231E+01  0.39697242659E+01  0.20000000000E-01 0. -1.
</event>
<event>
 5   0  0.3603037E+08  0.9118800E+02  0.7818608E-02  0.1180000E+00
       11   -1    0    0    0    0  0.00000000000E+00  0.00000000000E+00  0.39999999673E+01  0.40000000000E+01  0.51109989000E-03 0. -1.
     -623   -1    0    0    0    0  0.00000000000E+00  0.00000000000E+00  0.12525980253E-10  0.17130000000E+03  0.17130000000E+03 0. -1.
       11    1    1    2    0    0  0.20801301327E-03  0.24740615857E-02  0.42148293025E+00  0.42149055264E+00  0.51109989000E-03 0. -1.
     -623    1    1    2    0    0 -0.17089259252E-02 -0.39699465574E-03  0.64405941450E-04  0.17130000001E+03  0.17130000000E+03 0. -1.
      622    1    1    2    0    0  0.15009129119E-02 -0.20770669299E-02  0.35784526312E+01  0.35785094384E+01  0.20000000000E-01 0. -1.
</event>
<event>
 5   0  0.3603037E+08  0.9118800E+02  0.7818608E-02  0.1180000E+00
       11   -1    0    0    0    0  0.00000000000E+00  0.00000000000E+00  0.39999999673E+01  0.40000000000E+01  0.51109989000E-03 0. -1.
     -623   -1    0    0    0    0  0.00000000000E+00  0.00000000000E+00  0.12525980253E-10  0.17130000000E+03  0.17130000000E+03 0.  1.
       11    1    1    2    0    0  0.48365714678E-02  0.13720707236E-02  0.17791572847E+00  0.17798747894E+00  0.51109989000E-03 0. -1.
     -623    1    1    2    0    0 -0.33970905894E-04  0.40050657001E-03  0.12747563802E-03  0.17130000000E+03  0.17130000000E+03 0.  1.
      622    1    1    2    0    0 -0.48026005619E-02 -0.17725772936E-02  0.38219567632E+01  0.38220125205E+01  0.20000000000E-01 0. -1.
</event>
<event>
 5   0  0.3603037E+08  0.9118800E+02  0.7818608E-02  0.1180000E+00
       11   -1    0    0    0    0  0.00000000000E+00  0.00000000000E+00  0.39999999673E+01  0.40000000000E+01  0.51109989000E-03 0.  1.
     -623   -1    0    0    0    0  0.00000000000E+00  0.00000000000E+00  0.12525980253E-10  0.17130000000E+03  0.17130000000E+03 0.  1.
       11    1    1    2    0    0 -0.33249950891E-04  0.66357860307E-03  0.57505442024E-03  0.10165383667E-02  0.51109989000E-03 0.  1.
     -623    1    1    2    0    0  0.57334249366E-03  0.47064932318E-03  0.49166396512E-03  0.17130000000E+03  0.17130000000E+03 0.  1.
      622    1    1    2    0    0 -0.54009254277E-03 -0.11342279262E-02  0.39989332490E+01  0.39989834593E+01  0.20000000000E-01 0.  1.
</event>
<event>
 5   0  0.3603037E+08  0.9118800E+02  0.7818608E-02  0.1180000E+00
       11   -1    0    0    0    0  0.00000000000E+00  0.00000000000E+00  0.39999999673E+01  0.40000000000E+01  0.51109989000E-03 0.  1.
     -623   -1    0    0    0    0  0.00000000000E+00  0.00000000000E+00  0.12525980253E-10  0.17130000000E+03  0.17130000000E+03 0. -1.
       11    1    1    2    0    0  0.40589616453E-03  0.47850559228E-03  0.36286226151E-01  0.36295249661E-01  0.51109989000E-03 0.  1.
     -623    1    1    2    0    0 -0.78551810895E-04 -0.20679589452E-03  0.59472018888E-04  0.17130000000E+03  0.17130000000E+03 0. -1.
      622    1    1    2    0    0 -0.32734435363E-03 -0.27170969776E-03  0.39636542692E+01  0.39637047502E+01  0.20000000000E-01 0.  1.
</event>
<event>
 5   0  0.3603037E+08  0.9118800E+02  0.7818608E-02  0.1180000E+00
       11   -1    0    0    0    0  0.00000000000E+00  0.00000000000E+00  0.39999999673E+01  0.40000000000E+01  0.51109989000E-03 0.  1.
     -623   -1    0    0    0    0  0.00000000000E+00  0.00000000000E+00  0.12525980253E-10  0.17130000000E+03  0.17130000000E+03 0. -1.
       11    1    1    2    0    0  0.22816324009E-01  0.16346968619E-01  0.23685228087E+01  0.23686891659E+01  0.51109989000E-03 0.  1.
     -623    1    1    2    0    0 -0.20237358744E-01 -0.29827842578E-01  0.35046879267E-03  0.17130000379E+03  0.17130000000E+03 0. -1.
      622    1    1    2    0    0 -0.25789652654E-02  0.13480873960E-01  0.16311266899E+01  0.16313070415E+01  0.20000000000E-01 0. -1.
</event>
<event>
 5   0  0.3603037E+08  0.9118800E+02  0.7818608E-02  0.1180000E+00
       11   -1    0    0    0    0  0.00000000000E+00  0.00000000000E+00  0.39999999673E+01  0.40000000000E+01  0.51109989000E-03 0.  1.
     -623   -1    0    0    0    0  0.00000000000E+00  0.00000000000E+00  0.12525980253E-10  0.17130000000E+03  0.17130000000E+03 0. -1.
       11    1    1    2    0    0  0.41636648953E-02  0.36649742601E-02  0.55130839879E+00  0.55133653963E+00  0.51109989000E-03 0.  1.
     -623    1    1    2    0    0 -0.40907227646E-04  0.45410788314E-03  0.91027115433E-04  0.17130000000E+03  0.17130000000E+03 0. -1.
      622    1    1    2    0    0 -0.41227576677E-02 -0.41190821433E-02  0.34486005415E+01  0.34486634597E+01  0.20000000000E-01 0.  1.
</event>
<event>
 5   0  0.3603037E+08  0.9118800E+02  0.7818608E-02  0.1180000E+00
       11   -1    0    0    0    0  0.00000000000E+00  0.00000000000E+00  0.39999999673E+01  0.40000000000E+01  0.51109989000E-03 0.  1.
     -623   -1    0    0    0    0  0.00000000000E+00  0.00000000000E+00  0.12525980253E-10  0.17130000000E+03  0.17130000000E+03 0. -1.
       11    1    1    2    0    0  0.23979678285E-03 -0.98384555953E-03  0.77646970677E-01  0.77655255668E-01  0.51109989000E-03 0.  1.
     -623    1    1    2    0    0  0.13022452907E-02  0.16260913952E-02  0.59610975084E-04  0.17130000001E+03  0.17130000000E+03 0. -1.
      622    1    1    2    0    0 -0.15420420735E-02 -0.64224583571E-03  0.39222933857E+01  0.39223447317E+01  0.20000000000E-01 0.  1.
</event>
<event>
 5   0  0.3603037E+08  0.9118800E+02  0.7818608E-02  0.1180000E+00
       11   -1    0    0    0    0  0.00000000000E+00  0.00000000000E+00  0.39999999673E+01  0.40000000000E+01  0.51109989000E-03 0.  1.
     -623   -1    0    0    0    0  0.00000000000E+00  0.00000000000E+00  0.12525980253E-10  0.17130000000E+03  0.17130000000E+03 0.  1.
       11    1    1    2    0    0  0.14530872386E-02  0.14931551255E-02  0.73808385902E+00  0.73808697668E+00  0.51109989000E-03 0.  1.
     -623    1    1    2    0    0 -0.77982027166E-03  0.19610060479E-02  0.66310708527E-04  0.17130000001E+03  0.17130000000E+03 0.  1.
      622    1    1    2    0    0 -0.67326696695E-03 -0.34541611733E-02  0.32618497976E+01  0.32619130103E+01  0.20000000000E-01 0.  1.
</event>
<event>
 5   0  0.3603037E+08  0.9118800E+02  0.7818608E-02  0.1180000E+00
       11   -1    0    0    0    0  0.00000000000E+00  0.00000000000E+00  0.39999999673E+01  0.40000000000E+01  0.51109989000E-03 0. -1.
     -623   -1    0    0    0    0  0.00000000000E+00  0.00000000000E+00  0.12525980253E-10  0.17130000000E+03  0.17130000000E+03 0.  1.
       11    1    1    2    0    0  0.44216946506E-02  0.15914419621E-02  0.65866382473E+00  0.65868078710E+00  0.51109989000E-03 0. -1.
     -623    1    1    2    0    0  0.27698433822E-02  0.25474473517E-02  0.87131037593E-04  0.17130000004E+03  0.17130000000E+03 0.  1.
      622    1    1    2    0    0 -0.71915380327E-02 -0.41388893138E-02  0.33412490116E+01  0.33413191715E+01  0.20000000000E-01 0. -1.
</event>
<event>
 5   0  0.3603037E+08  0.9118800E+02  0.7818608E-02  0.1180000E+00
       11   -1    0    0    0    0  0.00000000000E+00  0.00000000000E+00  0.39999999673E+01  0.40000000000E+01  0.51109989000E-03 0.  1.
     -623   -1    0    0    0    0  0.00000000000E+00  0.00000000000E+00  0.12525980253E-10  0.17130000000E+03  0.17130000000E+03 0.  1.
       11    1    1    2    0    0 -0.37216759940E-03 -0.10295812863E-02  0.62534309853E+00  0.62534426570E+00  0.51109989000E-03 0.  1.
     -623    1    1    2    0    0  0.31051511860E-03 -0.11830370031E-03  0.60596483778E-04  0.17130000000E+03  0.17130000000E+03 0.  1.
      622    1    1    2    0    0  0.61652480800E-04  0.11478849866E-02  0.33745962723E+01  0.33746557340E+01  0.20000000000E-01 0.  1.
</event>
<event>
 5   0  0.3603037E+08  0.9118800E+02  0.7818608E-02  0.1180000E+00
       11   -1    0    0    0    0  0.00000000000E+00  0.00000000000E+00  0.39999999673E+01  0.40000000000E+01  0.51109989000E-03 0. -1.
     -623   -1    0    0    0    0  0.00000000000E+00  0.00000000000E+00  0.12525980253E-10  0.17130000000E+03  0.17130000000E+03 0.  1.
       11    1    1    2    0    0 -0.23530536787E-03  0.32945122892E-02  0.18274298077E+00  0.18277354136E+00  0.51109989000E-03 0. -1.
     -623    1    1    2    0    0  0.31175601706E-03  0.45811538696E-03  0.84768643350E-04  0.17130000000E+03  0.17130000000E+03 0.  1.
      622    1    1    2    0    0 -0.76450649184E-04 -0.37526276762E-02  0.38171722179E+01  0.38172264577E+01  0.20000000000E-01 0. -1.
</event>
<event>
 5   0  0.3603037E+08  0.9118800E+02  0.7818608E-02  0.1180000E+00
       11   -1    0    0    0    0  0.00000000000E+00  0.00000000000E+00  0.39999999673E+01  0.40000000000E+01  0.51109989000E-03 0. -1.
     -623   -1    0    0    0    0  0.00000000000E+00  0.00000000000E+00  0.12525980253E-10  0.17130000000E+03  0.17130000000E+03 0. -1.
       11    1    1    2    0    0  0.72600090653E-03  0.12748032262E-02  0.51106499916E-01  0.51130106153E-01  0.51109989000E-03 0. -1.
     -623    1    1    2    0    0  0.29472319702E-03 -0.60425087731E-03  0.74411515743E-04  0.17130000000E+03  0.17130000000E+03 0. -1.
      622    1    1    2    0    0 -0.10207241035E-02 -0.67055234884E-03  0.39488190559E+01  0.39488698925E+01  0.20000000000E-01 0. -1.
</event>
<event>
 5   0  0.3603037E+08  0.9118800E+02  0.7818608E-02  0.1180000E+00
       11   -1    0    0    0    0  0.00000000000E+00  0.00000000000E+00  0.39999999673E+01  0.40000000000E+01  0.51109989000E-03 0. -1.
     -623   -1    0    0    0    0  0.00000000000E+00  0.00000000000E+00  0.12525980253E-10  0.17130000000E+03  0.17130000000E+03 0.  1.
       11    1    1    2    0    0 -0.10059954284E-01 -0.13881546557E-01  0.17221659979E+01  0.17222514002E+01  0.51109989000E-03 0. -1.
     -623    1    1    2    0    0 -0.53173352133E-02 -0.12251716054E-02  0.27527363833E-03  0.17130000009E+03  0.17130000000E+03 0.  1.
      622    1    1    2    0    0  0.15377289497E-01  0.15106718162E-01  0.22775586958E+01  0.22777485127E+01  0.20000000000E-01 0.  0.
</event>
<event>
 5   0  0.3603037E+08  0.9118800E+02  0.7818608E-02  0.1180000E+00
       11   -1    0    0    0    0  0.00000000000E+00  0.00000000000E+00  0.39999999673E+01  0.40000000000E+01  0.51109989000E-03 0.  1.
     -623   -1    0    0    0    0  0.00000000000E+00  0.00000000000E+00  0.12525980253E-10  0.17130000000E+03  0.17130000000E+03 0. -1.
       11    1    1    2    0    0 -0.25867374654E-03 -0.27342968709E-02  0.63580245518E-01  0.63641591221E-01  0.51109989000E-03 0.  1.
     -623    1    1    2    0    0 -0.87550295134E-04  0.68370969237E-04  0.11303984214E-03  0.17130000000E+03  0.17130000000E+03 0. -1.
      622    1    1    2    0    0  0.34622404168E-03  0.26659259017E-02  0.39363066820E+01  0.39363584087E+01  0.20000000000E-01 0.  1.
</event>
<event>
 5   0  0.3603037E+08  0.9118800E+02  0.7818608E-02  0.1180000E+00
       11   -1    0    0    0    0  0.00000000000E+00  0.00000000000E+00  0.39999999673E+01  0.40000000000E+01  0.51109989000E-03 0. -1.
     -623   -1    0    0    0    0  0.00000000000E+00  0.00000000000E+00  0.12525980253E-10  0.17130000000E+03  0.17130000000E+03 0. -1.
       11    1    1    2    0    0  0.13508072249E-01 -0.47434251086E-01  0.62079606119E+00  0.62275234805E+00  0.51109989000E-03 0. -1.
     -623    1    1    2    0    0 -0.17612825891E-01 -0.31875117076E-02  0.23983356541E-02  0.17130000095E+03  0.17130000000E+03 0. -1.
      622    1    1    2    0    0  0.41047536421E-02  0.50621762794E-01  0.33768055705E+01  0.33772467000E+01  0.20000000000E-01 0. -1.
</event>
<event>
 5   0  0.3603037E+08  0.9118800E+02  0.7818608E-02  0.1180000E+00
       11   -1    0    0    0    0  0.00000000000E+00  0.00000000000E+00  0.39999999673E+01  0.40000000000E+01  0.51109989000E-03 0. -1.
     -623   -1    0    0    0    0  0.00000000000E+00  0.00000000000E+00  0.12525980253E-10  0.17130000000E+03  0.17130000000E+03 0.  1.
       11    1    1    2    0    0  0.97886270130E-02 -0.31215385186E-02  0.56447488453E+00  0.56456861204E+00  0.51109989000E-03 0. -1.
     -623    1    1    2    0    0 -0.10012027056E-03  0.15547856184E-03  0.16685472271E-03  0.17130000000E+03  0.17130000000E+03 0.  1.
      622    1    1    2    0    0 -0.96885067425E-02  0.29660599567E-02  0.34353582281E+01  0.34354313878E+01  0.20000000000E-01 0. -1.
</event>
<event>
 5   0  0.3603037E+08  0.9118800E+02  0.7818608E-02  0.1180000E+00
       11   -1    0    0    0    0  0.00000000000E+00  0.00000000000E+00  0.39999999673E+01  0.40000000000E+01  0.51109989000E-03 0.  1.
     -623   -1    0    0    0    0  0.00000000000E+00  0.00000000000E+00  0.12525980253E-10  0.17130000000E+03  0.17130000000E+03 0. -1.
       11    1    1    2    0    0 -0.11832466815E-02  0.75729738744E-02  0.35858671465E+00  0.35866898828E+00  0.51109989000E-03 0.  1.
     -623    1    1    2    0    0 -0.42304671615E-02 -0.63371409302E-02  0.14157006438E-03  0.17130000017E+03  0.17130000000E+03 0. -1.
      622    1    1    2    0    0  0.54137138430E-02 -0.12358329442E-02  0.36412716826E+01  0.36413308422E+01  0.20000000000E-01 0.  1.
</event>
<event>
 5   0  0.3603037E+08  0.9118800E+02  0.7818608E-02  0.1180000E+00
       11   -1    0    0    0    0  0.00000000000E+00  0.00000000000E+00  0.39999999673E+01  0.40000000000E+01  0.51109989000E-03 0. -1.
     -623   -1    0    0    0    0  0.00000000000E+00  0.00000000000E+00  0.12525980253E-10  0.17130000000E+03  0.17130000000E+03 0. -1.
       11    1    1    2    0    0  0.13934082376E-02  0.15663050229E-02  0.24454984170E-01  0.24549997374E-01  0.51109989000E-03 0. -1.
     -623    1    1    2    0    0 -0.15612185881E-02 -0.23050181399E-02  0.14538451298E-03  0.17130000002E+03  0.17130000000E+03 0. -1.
      622    1    1    2    0    0  0.16781035047E-03  0.73871311699E-03  0.39753995987E+01  0.39754499799E+01  0.20000000000E-01 0. -1.
</event>
<event>
 5   0  0.3603037E+08  0.9118800E+02  0.7818608E-02  0.1180000E+00
       11   -1    0    0    0    0  0.00000000000E+00  0.00000000000E+00  0.39999999673E+01  0.40000000000E+01  0.51109989000E-03 0. -1.
     -623   -1    0    0    0    0  0.00000000000E+00  0.00000000000E+00  0.12525980253E-10  0.17130000000E+03  0.17130000000E+03 0. -1.
       11    1    1    2    0    0  0.13820151458E-02  0.22132273014E-02  0.39469155338E-01  0.39558612004E-01  0.51109989000E-03 0. -1.
     -623    1    1    2    0    0 -0.55822274413E-02 -0.27014507310E-02  0.14229345850E-03  0.17130000011E+03  0.17130000000E+03 0. -1.
      622    1    1    2    0    0  0.42002122955E-02  0.48822342961E-03  0.39603885186E+01  0.39604412757E+01  0.20000000000E-01 0. -1.
</event>
<event>
 5   0  0.3603037E+08  0.9118800E+02  0.7818608E-02  0.1180000E+00
       11   -1    0    0    0    0  0.00000000000E+00  0.00000000000E+00  0.39999999673E+01  0.40000000000E+01  0.51109989000E-03 0.  1.
     -623   -1    0    0    0    0  0.00000000000E+00  0.00000000000E+00  0.12525980253E-10  0.17130000000E+03  0.17130000000E+03 0. -1.
       11    1    1    2    0    0 -0.19796169873E-02 -0.43264752545E-03  0.30469095229E+00  0.30469811896E+00  0.51109989000E-03 0.  1.
     -623    1    1    2    0    0  0.10720811664E-01 -0.73095065091E-03  0.72116231016E-04  0.17130000034E+03  0.17130000000E+03 0. -1.
      622    1    1    2    0    0 -0.87411946764E-02  0.11635981764E-02  0.36952368988E+01  0.36953015440E+01  0.20000000000E-01 0.  1.
</event>
<event>
 5   0  0.3603037E+08  0.9118800E+02  0.7818608E-02  0.1180000E+00
       11   -1    0    0    0    0  0.00000000000E+00  0.00000000000E+00  0.39999999673E+01  0.40000000000E+01  0.51109989000E-03 0. -1.
     -623   -1    0    0    0    0  0.00000000000E+00  0.00000000000E+00  0.12525980253E-10  0.17130000000E+03  0.17130000000E+03 0.  1.
       11    1    1    2    0    0 -0.10571896181E-02 -0.80843926016E-03  0.16212812875E-01  0.16275372415E-01  0.51109989000E-03 0.  1.
     -623    1    1    2    0    0  0.20123802563E-03  0.91411091029E-03  0.11282744276E-03  0.17130000000E+03  0.17130000000E+03 0.  1.
      622    1    1    2    0    0  0.85595159250E-03 -0.10567165013E-03  0.39836743270E+01  0.39837246250E+01  0.20000000000E-01 0. -1.
</event>
<event>
 5   0  0.3603037E+08  0.9118800E+02  0.7818608E-02  0.1180000E+00
       11   -1    0    0    0    0  0.00000000000E+00  0.00000000000E+00  0.39999999673E+01  0.40000000000E+01  0.51109989000E-03 0. -1.
     -623   -1    0    0    0    0  0.00000000000E+00  0.00000000000E+00  0.12525980253E-10  0.17130000000E+03  0.17130000000E+03 0. -1.
       11    1    1    2    0    0 -0.30976026637E-02  0.51619413652E-04  0.84534354119E-01  0.84592647758E-01  0.51109989000E-03 0. -1.
     -623    1    1    2    0    0  0.10655528466E-02 -0.24561337248E-02  0.11062819012E-03  0.17130000002E+03  0.17130000000E+03 0. -1.
      622    1    1    2    0    0  0.20320498171E-02  0.24045143111E-02  0.39153549851E+01  0.39154073313E+01  0.20000000000E-01 0. -1.
</event>
<event>
 5   0  0.3603037E+08  0.9118800E+02  0.7818608E-02  0.1180000E+00
       11   -1    0    0    0    0  0.00000000000E+00  0.00000000000E+00  0.39999999673E+01  0.40000000000E+01  0.51109989000E-03 0.  1.
     -623   -1    0    0    0    0  0.00000000000E+00  0.00000000000E+00  0.12525980253E-10  0.17130000000E+03  0.17130000000E+03 0. -1.
       11    1    1    2    0    0  0.83294304061E-02  0.54870032596E-02  0.13722303265E+01  0.13722666712E+01  0.51109989000E-03 0.  1.
     -623    1    1    2    0    0  0.47453230869E-02  0.10402678844E-02  0.15312953073E-03  0.17130000007E+03  0.17130000000E+03 0. -1.
      622    1    1    2    0    0 -0.13074753493E-01 -0.65272711440E-02  0.26276165113E+01  0.26277332599E+01  0.20000000000E-01 0.  0.
</event>
<event>
 5   0  0.3603037E+08  0.9118800E+02  0.7818608E-02  0.1180000E+00
       11   -1    0    0    0    0  0.00000000000E+00  0.00000000000E+00  0.39999999673E+01  0.40000000000E+01  0.51109989000E-03 0.  1.
     -623   -1    0    0    0    0  0.00000000000E+00  0.00000000000E+00  0.12525980253E-10  0.17130000000E+03  0.17130000000E+03 0. -1.
       11    1    1    2    0    0  0.76236428264E-02 -0.13803985710E-01  0.10420288286E+01  0.10421482671E+01  0.51109989000E-03 0.  1.
     -623    1    1    2    0    0 -0.16403791065E-03  0.64869176296E-03  0.22568703256E-03  0.17130000000E+03  0.17130000000E+03 0. -1.
      622    1    1    2    0    0 -0.74596049157E-02  0.13155293947E-01  0.29577454518E+01  0.29578517314E+01  0.20000000000E-01 0.  0.
</event>
<event>
 5   0  0.3603037E+08  0.9118800E+02  0.7818608E-02  0.1180000E+00
       11   -1    0    0    0    0  0.00000000000E+00  0.00000000000E+00  0.39999999673E+01  0.40000000000E+01  0.51109989000E-03 0.  1.
     -623   -1    0    0    0    0  0.00000000000E+00  0.00000000000E+00  0.12525980253E-10  0.17130000000E+03  0.17130000000E+03 0.  1.
       11    1    1    2    0    0  0.70778143431E-04  0.31765129322E-03  0.12801629612E+00  0.12801773005E+00  0.51109989000E-03 0.  1.
     -623    1    1    2    0    0  0.19991101691E-03  0.38047551353E-04  0.53080689173E-04  0.17130000000E+03  0.17130000000E+03 0.  1.
      622    1    1    2    0    0 -0.27068916034E-03 -0.35569884457E-03  0.38719305905E+01  0.38719822698E+01  0.20000000000E-01 0.  1.
</event>
<event>
 5   0  0.3603037E+08  0.9118800E+02  0.7818608E-02  0.1180000E+00
       11   -1    0    0    0    0  0.00000000000E+00  0.00000000000E+00  0.39999999673E+01  0.40000000000E+01  0.51109989000E-03 0. -1.
     -623   -1    0    0    0    0  0.00000000000E+00  0.00000000000E+00  0.12525980253E-10  0.17130000000E+03  0.17130000000E+03 0.  1.
       11    1    1    2    0    0  0.99039834429E-03 -0.26262559363E-02  0.90801800024E-01  0.90846608178E-01  0.51109989000E-03 0. -1.
     -623    1    1    2    0    0 -0.33088392409E-03 -0.45542301125E-03  0.97209105614E-04  0.17130000000E+03  0.17130000000E+03 0.  1.
      622    1    1    2    0    0 -0.65951442021E-03  0.30816789476E-02  0.39091009582E+01  0.39091533909E+01  0.20000000000E-01 0. -1.
</event>
<event>
 5   0  0.3603037E+08  0.9118800E+02  0.7818608E-02  0.1180000E+00
       11   -1    0    0    0    0  0.00000000000E+00  0.00000000000E+00  0.39999999673E+01  0.40000000000E+01  0.51109989000E-03 0. -1.
     -623   -1    0    0    0    0  0.00000000000E+00  0.00000000000E+00  0.12525980253E-10  0.17130000000E+03  0.17130000000E+03 0. -1.
       11    1    1    2    0    0  0.11462283442E-01  0.23151662568E-03  0.29542563242E+00  0.29564844504E+00  0.51109989000E-03 0. -1.
     -623    1    1    2    0    0 -0.60847130596E-03  0.12490347321E-02  0.29297388114E-03  0.17130000001E+03  0.17130000000E+03 0. -1.
      622    1    1    2    0    0 -0.10853812136E-01 -0.14805513578E-02  0.37042813611E+01  0.37043515491E+01  0.20000000000E-01 0. -1.
</event>
<event>
 5   0  0.3603037E+08  0.9118800E+02  0.7818608E-02  0.1180000E+00
       11   -1    0    0    0    0  0.00000000000E+00  0.00000000000E+00  0.39999999673E+01  0.40000000000E+01  0.51109989000E-03 0. -1.
     -623   -1    0    0    0    0  0.00000000000E+00  0.00000000000E+00  0.12525980253E-10  0.17130000000E+03  0.17130000000E+03 0. -1.
       11    1    1    2    0    0 -0.65623151087E-02 -0.25172793191E-02  0.26931094863E+00  0.26940313463E+00  0.51109989000E-03 0. -1.
     -623    1    1    2    0    0  0.68683262785E-03  0.22288893488E-02  0.15041840743E-03  0.17130000002E+03  0.17130000000E+03 0. -1.
      622    1    1    2    0    0  0.58754824809E-02  0.28838997024E-03  0.37305386003E+01  0.37305968494E+01  0.20000000000E-01 0. -1.
</event>
<event>
 5   0  0.3603037E+08  0.9118800E+02  0.7818608E-02  0.1180000E+00
       11   -1    0    0    0    0  0.00000000000E+00  0.00000000000E+00  0.39999999673E+01  0.40000000000E+01  0.51109989000E-03 0. -1.
     -623   -1    0    0    0    0  0.00000000000E+00  0.00000000000E+00  0.12525980253E-10  0.17130000000E+03  0.17130000000E+03 0.  1.
       11    1    1    2    0    0 -0.69251688420E-03  0.12020324110E-02  0.43205785122E-01  0.43231071596E-01  0.51109989000E-03 0. -1.
     -623    1    1    2    0    0  0.65072723303E-03 -0.37230325997E-02  0.76645502422E-04  0.17130000004E+03  0.17130000000E+03 0.  1.
      622    1    1    2    0    0  0.41789651171E-04  0.25210001886E-02  0.39567175367E+01  0.39567688867E+01  0.20000000000E-01 0. -1.
</event>
<event>
 5   0  0.3603037E+08  0.9118800E+02  0.7818608E-02  0.1180000E+00
       11   -1    0    0    0    0  0.00000000000E+00  0.00000000000E+00  0.39999999673E+01  0.40000000000E+01  0.51109989000E-03 0. -1.
     -623   -1    0    0    0    0  0.00000000000E+00  0.00000000000E+00  0.12525980253E-10  0.17130000000E+03  0.17130000000E+03 0.  1.
       11    1    1    2    0    0  0.70349319130E-02 -0.16582519307E-02  0.36633694194E+00  0.36640859204E+00  0.51109989000E-03 0. -1.
     -623    1    1    2    0    0  0.94171217652E-03  0.11912980993E-02  0.13545213379E-03  0.17130000001E+03  0.17130000000E+03 0.  1.
      622    1    1    2    0    0 -0.79766440895E-02  0.46695383136E-03  0.36335275733E+01  0.36335914012E+01  0.20000000000E-01 0. -1.
</event>
<event>
 5   0  0.3603037E+08  0.9118800E+02  0.7818608E-02  0.1180000E+00
       11   -1    0    0    0    0  0.00000000000E+00  0.00000000000E+00  0.39999999673E+01  0.40000000000E+01  0.51109989000E-03 0. -1.
     -623   -1    0    0    0    0  0.00000000000E+00  0.00000000000E+00  0.12525980253E-10  0.17130000000E+03  0.17130000000E+03 0. -1.
       11    1    1    2    0    0  0.81786925412E-03 -0.11628303206E-02  0.24191578795E-01  0.24238704367E-01  0.51109989000E-03 0. -1.
     -623    1    1    2    0    0 -0.67253927370E-03 -0.19566943495E-03  0.97634297332E-04  0.17130000000E+03  0.17130000000E+03 0. -1.
      622    1    1    2    0    0 -0.14532998042E-03  0.13584997556E-02  0.39757107543E+01  0.39757612942E+01  0.20000000000E-01 0. -1.
</event>
<event>
 5   0  0.3603037E+08  0.9118800E+02  0.7818608E-02  0.1180000E+00
       11   -1    0    0    0    0  0.00000000000E+00  0.00000000000E+00  0.39999999673E+01  0.40000000000E+01  0.51109989000E-03 0.  1.
     -623   -1    0    0    0    0  0.00000000000E+00  0.00000000000E+00  0.12525980253E-10  0.17130000000E+03  0.17130000000E+03 0.  1.
       11    1    1    2    0    0 -0.72100619020E-02  0.26983537957E-02  0.25459768137E+01  0.25459885041E+01  0.51109989000E-03 0.  1.
     -623    1    1    2    0    0 -0.15721177240E-02 -0.27764162859E-02  0.17577148991E-03  0.17130000003E+03  0.17130000000E+03 0.  1.
      622    1    1    2    0    0  0.87821796260E-02  0.78062490197E-04  0.14538473822E+01  0.14540114661E+01  0.20000000000E-01 0. -1.
</event>
<event>
 5   0  0.3603037E+08  0.9118800E+02  0.7818608E-02  0.1180000E+00
       11   -1    0    0    0    0  0.00000000000E+00  0.00000000000E+00  0.39999999673E+01  0.40000000000E+01  0.51109989000E-03 0. -1.
     -623   -1    0    0    0    0  0.00000000000E+00  0.00000000000E+00  0.12525980253E-10  0.17130000000E+03  0.17130000000E+03 0. -1.
       11    1    1    2    0    0 -0.49095914272E-03  0.97893374918E-03  0.22481145701E-02  0.25523700650E-02  0.51109989000E-03 0.  1.
     -623    1    1    2    0    0  0.15257439896E-03  0.46433784523E-03  0.35453102805E-03  0.17130000000E+03  0.17130000000E+03 0. -1.
      622    1    1    2    0    0  0.33838474376E-03 -0.14432715944E-02  0.39973973218E+01  0.39974476289E+01  0.20000000000E-01 0. -1.
</event>
<event>
 5   0  0.3603037E+08  0.9118800E+02  0.7818608E-02  0.1180000E+00
       11   -1    0    0    0    0  0.00000000000E+00  0.00000000000E+00  0.39999999673E+01  0.40000000000E+01  0.51109989000E-03 0.  1.
     -623   -1    0    0    0    0  0.00000000000E+00  0.00000000000E+00  0.12525980253E-10  0.17130000000E+03  0.17130000000E+03 0.  1.
       11    1    1    2    0    0 -0.20644207756E-01 -0.10932338247E-01  0.23266572799E+01  0.23267746042E+01  0.51109989000E-03 0.  1.
     -623    1    1    2    0    0  0.32885404386E-03  0.12445526049E-02  0.38822281781E-03  0.17130000001E+03  0.17130000000E+03 0.  1.
      622    1    1    2    0    0  0.20315353712E-01  0.96877856423E-02  0.16729544646E+01  0.16732253905E+01  0.20000000000E-01 0.  0.
</event>
<event>
 5   0  0.3603037E+08  0.9118800E+02  0.7818608E-02  0.1180000E+00
       11   -1    0    0    0    0  0.00000000000E+00  0.00000000000E+00  0.39999999673E+01  0.40000000000E+01  0.51109989000E-03 0.  1.
     -623   -1    0    0    0    0  0.00000000000E+00  0.00000000000E+00  0.12525980253E-10  0.17130000000E+03  0.17130000000E+03 0.  1.
       11    1    1    2    0    0  0.18337317201E-02  0.23239711855E-02  0.62303429594E-01  0.62375812420E-01  0.51109989000E-03 0.  1.
     -623    1    1    2    0    0 -0.12280978484E-02  0.10091130596E-02  0.12460725604E-03  0.17130000001E+03  0.17130000000E+03 0.  1.
      622    1    1    2    0    0 -0.60563387169E-03 -0.33330842450E-02  0.39375719305E+01  0.39376241802E+01  0.20000000000E-01 0.  1.
</event>
<event>
 5   0  0.3603037E+08  0.9118800E+02  0.7818608E-02  0.1180000E+00
       11   -1    0    0    0    0  0.00000000000E+00  0.00000000000E+00  0.39999999673E+01  0.40000000000E+01  0.51109989000E-03 0.  1.
     -623   -1    0    0    0    0  0.00000000000E+00  0.00000000000E+00  0.12525980253E-10  0.17130000000E+03  0.17130000000E+03 0. -1.
       11    1    1    2    0    0  0.34658455375E-02 -0.13100959881E-01  0.15586995790E+01  0.15587585721E+01  0.51109989000E-03 0.  1.
     -623    1    1    2    0    0 -0.85449525319E-03  0.17974588093E-03  0.17648303239E-03  0.17130000000E+03  0.17130000000E+03 0. -1.
      622    1    1    2    0    0 -0.26113502843E-02  0.12921214000E-01  0.24411239053E+01  0.24412414256E+01  0.20000000000E-01 0.  1.
</event>
<event>
 5   0  0.3603037E+08  0.9118800E+02  0.7818608E-02  0.1180000E+00
       11   -1    0    0    0    0  0.00000000000E+00  0.00000000000E+00  0.39999999673E+01  0.40000000000E+01  0.51109989000E-03 0.  1.
     -623   -1    0    0    0    0  0.00000000000E+00  0.00000000000E+00  0.12525980253E-10  0.17130000000E+03  0.17130000000E+03 0. -1.
       11    1    1    2    0    0 -0.11289587948E-01 -0.61676227014E-02  0.25449505723E+01  0.25449831377E+01  0.51109989000E-03 0.  1.
     -623    1    1    2    0    0 -0.21362387712E-03  0.11867415557E-02  0.22400216188E-03  0.17130000000E+03  0.17130000000E+03 0. -1.
      622    1    1    2    0    0  0.11503211825E-01  0.49808811457E-02  0.14548253929E+01  0.14550168579E+01  0.20000000000E-01 0.  1.
</event>
<event>
 5   0  0.3603037E+08  0.9118800E+02  0.7818608E-02  0.1180000E+00
       11   -1    0    0    0    0  0.00000000000E+00  0.00000000000E+00  0.39999999673E+01  0.40000000000E+01  0.51109989000E-03 0. -1.
     -623   -1    0    0    0    0  0.00000000000E+00  0.00000000000E+00  0.12525980253E-10  0.17130000000E+03  0.17130000000E+03 0.  1.
       11    1    1    2    0    0 -0.12533626325E-02  0.10286571782E-03  0.17966423488E-01  0.18017632883E-01  0.51109989000E-03 0. -1.
     -623    1    1    2    0    0  0.21382318022E-02 -0.25596976428E-02  0.10229205695E-03  0.17130000003E+03  0.17130000000E+03 0.  1.
      622    1    1    2    0    0 -0.88486916964E-03  0.24568319250E-02  0.39819312518E+01  0.39819823346E+01  0.20000000000E-01 0. -1.
</event>
<event>
 5   0  0.3603037E+08  0.9118800E+02  0.7818608E-02  0.1180000E+00
       11   -1    0    0    0    0  0.00000000000E+00  0.00000000000E+00  0.39999999673E+01  0.40000000000E+01  0.51109989000E-03 0.  1.
     -623   -1    0    0    0    0  0.00000000000E+00  0.00000000000E+00  0.12525980253E-10  0.17130000000E+03  0.17130000000E+03 0.  1.
       11    1    1    2    0    0 -0.45546387267E-02 -0.64092626925E-02  0.12399235673E+00  0.12424246106E+00  0.51109989000E-03 0.  1.
     -623    1    1    2    0    0  0.24523925077E-02 -0.18567305009E-02  0.31108764252E-03  0.17130000003E+03  0.17130000000E+03 0.  1.
      622    1    1    2    0    0  0.21022462190E-02  0.82659931934E-02  0.38756965230E+01  0.38757575110E+01  0.20000000000E-01 0.  1.
</event>
<event>
 5   0  0.3603037E+08  0.9118800E+02  0.7818608E-02  0.1180000E+00
       11   -1    0    0    0    0  0.00000000000E+00  0.00000000000E+00  0.39999999673E+01  0.40000000000E+01  0.51109989000E-03 0.  1.
     -623   -1    0    0    0    0  0.00000000000E+00  0.00000000000E+00  0.12525980253E-10  0.17130000000E+03  0.17130000000E+03 0. -1.
       11    1    1    2    0    0 -0.29675701569E-03  0.93804288552E-03  0.22887667864E-01  0.22914505230E-01  0.51109989000E-03 0.  1.
     -623    1    1    2    0    0  0.23432114182E-03  0.30376610588E-04  0.77211702680E-04  0.17130000000E+03  0.17130000000E+03 0. -1.
      622    1    1    2    0    0  0.62435873872E-04 -0.96841949610E-03  0.39770350878E+01  0.39770854946E+01  0.20000000000E-01 0.  1.
</event>
<event>
 5   0  0.3603037E+08  0.9118800E+02  0.7818608E-02  0.1180000E+00
       11   -1    0    0    0    0  0.00000000000E+00  0.00000000000E+00  0.39999999673E+01  0.40000000000E+01  0.51109989000E-03 0.  1.
     -623   -1    0    0    0    0  0.00000000000E+00  0.00000000000E+00  0.12525980253E-10  0.17130000000E+03  0.17130000000E+03 0.  1.
       11    1    1    2    0    0 -0.24925217100E-02 -0.50890736996E-02  0.12712511752E+00  0.12725237940E+00  0.51109989000E-03 0.  1.
     -623    1    1    2    0    0 -0.55544116902E-03 -0.39191995997E-02  0.19059486305E-03  0.17130000005E+03  0.17130000000E+03 0.  1.
      622    1    1    2    0    0  0.30479628790E-02  0.90082732993E-02  0.38726842550E+01  0.38727475748E+01  0.20000000000E-01 0.  0.
</event>
<event>
 5   0  0.3603037E+08  0.9118800E+02  0.7818608E-02  0.1180000E+00
       11   -1    0    0    0    0  0.00000000000E+00  0.00000000000E+00  0.39999999673E+01  0.40000000000E+01  0.51109989000E-03 0. -1.
     -623   -1    0    0    0    0  0.00000000000E+00  0.00000000000E+00  0.12525980253E-10  0.17130000000E+03  0.17130000000E+03 0. -1.
       11    1    1    2    0    0 -0.27784579151E-03 -0.23660402997E-03  0.52574835405E-01  0.52578586118E-01  0.51109989000E-03 0. -1.
     -623    1    1    2    0    0  0.19869315191E-04  0.13765167252E-04  0.54399114521E-04  0.17130000000E+03  0.17130000000E+03 0. -1.
      622    1    1    2    0    0  0.25797647632E-03  0.22283886272E-03  0.39473707328E+01  0.39474214139E+01  0.20000000000E-01 0. -1.
</event>
<event>
 5   0  0.3603037E+08  0.9118800E+02  0.7818608E-02  0.1180000E+00
       11   -1    0    0    0    0  0.00000000000E+00  0.00000000000E+00  0.39999999673E+01  0.40000000000E+01  0.51109989000E-03 0.  1.
     -623   -1    0    0    0    0  0.00000000000E+00  0.00000000000E+00  0.12525980253E-10  0.17130000000E+03  0.17130000000E+03 0. -1.
       11    1    1    2    0    0 -0.42837146378E-03  0.56969506151E-03  0.62711013251E+00  0.62711074586E+00  0.51109989000E-03 0.  1.
     -623    1    1    2    0    0  0.16331650978E-02  0.81199370016E-03  0.60385481383E-04  0.17130000001E+03  0.17130000000E+03 0. -1.
      622    1    1    2    0    0 -0.12047936341E-02 -0.13816887617E-02  0.33728294494E+01  0.33728892444E+01  0.20000000000E-01 0.  1.
</event>
<event>
 5   0  0.3603037E+08  0.9118800E+02  0.7818608E-02  0.1180000E+00
       11   -1    0    0    0    0  0.00000000000E+00  0.00000000000E+00  0.39999999673E+01  0.40000000000E+01  0.51109989000E-03 0.  1.
     -623   -1    0    0    0    0  0.00000000000E+00  0.00000000000E+00  0.12525980253E-10  0.17130000000E+03  0.17130000000E+03 0. -1.
       11    1    1    2    0    0 -0.12556771610E-02  0.35391499875E-03  0.17729115377E-01  0.17784395828E-01  0.51109989000E-03 0.  1.
     -623    1    1    2    0    0  0.35457471937E-03  0.82696169486E-03  0.10575086363E-03  0.17130000000E+03  0.17130000000E+03 0. -1.
      622    1    1    2    0    0  0.90110244159E-03 -0.11808766936E-02  0.39821651011E+01  0.39822156018E+01  0.20000000000E-01 0.  1.
</event>
<event>
 5   0  0.3603037E+08  0.9118800E+02  0.7818608E-02  0.1180000E+00
       11   -1    0    0    0    0  0.00000000000E+00  0.00000000000E+00  0.39999999673E+01  0.40000000000E+01  0.51109989000E-03 0. -1.
     -623   -1    0    0    0    0  0.00000000000E+00  0.00000000000E+00  0.12525980253E-10  0.17130000000E+03  0.17130000000E+03 0. -1.
       11    1    1    2    0    0  0.55117309103E-03  0.38339088455E-02  0.63409706405E+00  0.63410909985E+00  0.51109989000E-03 0. -1.
     -623    1    1    2    0    0 -0.12385463512E-02 -0.91135804362E-03  0.72769243691E-04  0.17130000001E+03  0.17130000000E+03 0. -1.
      622    1    1    2    0    0  0.68737326020E-03 -0.29225508019E-02  0.33658301341E+01  0.33658908932E+01  0.20000000000E-01 0. -1.
</event>
<event>
 5   0  0.3603037E+08  0.9118800E+02  0.7818608E-02  0.1180000E+00
       11   -1    0    0    0    0  0.00000000000E+00  0.00000000000E+00  0.39999999673E+01  0.40000000000E+01  0.51109989000E-03 0.  1.
     -623   -1    0    0    0    0  0.00000000000E+00  0.00000000000E+00  0.12525980253E-10  0.17130000000E+03  0.17130000000E+03 0. -1.
       11    1    1    2    0    0 -0.11421108467E-02  0.14381101704E-02  0.27198644962E+00  0.27199312965E+00  0.51109989000E-03 0.  1.
     -623    1    1    2    0    0  0.23378877667E-03  0.97821056798E-04  0.60723004220E-04  0.17130000000E+03  0.17130000000E+03 0. -1.
      622    1    1    2    0    0  0.90832207001E-03 -0.15359312272E-02  0.37279527947E+01  0.37280068702E+01  0.20000000000E-01 0.  1.
</event>
<event>
 5   0  0.3603037E+08  0.9118800E+02  0.7818608E-02  0.1180000E+00
       11   -1    0    0    0    0  0.00000000000E+00  0.00000000000E+00  0.39999999673E+01  0.40000000000E+01  0.51109989000E-03 0. -1.
     -623   -1    0    0    0    0  0.00000000000E+00  0.00000000000E+00  0.12525980253E-10  0.17130000000E+03  0.17130000000E+03 0. -1.
       11    1    1    2    0    0  0.20254919720E-02 -0.10826618256E-01  0.10596251960E+00  0.10653466600E+00  0.51109989000E-03 0. -1.
     -623    1    1    2    0    0  0.67232971683E-03  0.11835318249E-02  0.63636537489E-03  0.17130000001E+03  0.17130000000E+03 0. -1.
      622    1    1    2    0    0 -0.26978216889E-02  0.96430864311E-02  0.38934010824E+01  0.38934653274E+01  0.20000000000E-01 0. -1.
</event>
<event>
 5   0  0.3603037E+08  0.9118800E+02  0.7818608E-02  0.1180000E+00
       11   -1    0    0    0    0  0.00000000000E+00  0.00000000000E+00  0.39999999673E+01  0.40000000000E+01  0.51109989000E-03 0.  1.
     -623   -1    0    0    0    0  0.00000000000E+00  0.00000000000E+00  0.12525980253E-10  0.17130000000E+03  0.17130000000E+03 0. -1.
       11    1    1    2    0    0 -0.67982320277E-02 -0.92533112538E-02  0.26251548235E+01  0.26251799840E+01  0.51109989000E-03 0.  1.
     -623    1    1    2    0    0 -0.91794102347E-02  0.26292159348E-03  0.29311255068E-03  0.17130000025E+03  0.17130000000E+03 0. -1.
      622    1    1    2    0    0  0.15977642262E-01  0.89903896603E-02  0.13745520313E+01  0.13748197696E+01  0.20000000000E-01 0.  0.
</event>
<event>
 5   0  0.3603037E+08  0.9118800E+02  0.7818608E-02  0.1180000E+00
       11   -1    0    0    0    0  0.00000000000E+00  0.00000000000E+00  0.39999999673E+01  0.40000000000E+01  0.51109989000E-03 0.  1.
     -623   -1    0    0    0    0  0.00000000000E+00  0.00000000000E+00  0.12525980253E-10  0.17130000000E+03  0.17130000000E+03 0. -1.
       11    1    1    2    0    0  0.13648283057E-03  0.33312858182E-02  0.71264600739E+00  0.71265398979E+00  0.51109989000E-03 0.  1.
     -623    1    1    2    0    0 -0.23805652156E-04 -0.16224396344E-03  0.70319224505E-04  0.17130000000E+03  0.17130000000E+03 0. -1.
      622    1    1    2    0    0 -0.11267717841E-03 -0.31690418547E-02  0.32872836407E+01  0.32873460101E+01  0.20000000000E-01 0.  1.
</event>
<event>
 5   0  0.3603037E+08  0.9118800E+02  0.7818608E-02  0.1180000E+00
       11   -1    0    0    0    0  0.00000000000E+00  0.00000000000E+00  0.39999999673E+01  0.40000000000E+01  0.51109989000E-03 0. -1.
     -623   -1    0    0    0    0  0.00000000000E+00  0.00000000000E+00  0.12525980253E-10  0.17130000000E+03  0.17130000000E+03 0.  1.
       11    1    1    2    0    0  0.13131800620E-01  0.13730033578E-01  0.20080726056E+00  0.20170467304E+00  0.51109989000E-03 0. -1.
     -623    1    1    2    0    0 -0.14329964184E-01 -0.11260515358E-01  0.95199934040E-03  0.17130000097E+03  0.17130000000E+03 0.  1.
      622    1    1    2    0    0  0.11981635637E-02 -0.24695182197E-02  0.37982407075E+01  0.37982943548E+01  0.20000000000E-01 0. -1.
</event>
<event>
 5   0  0.3603037E+08  0.9118800E+02  0.7818608E-02  0.1180000E+00
       11   -1    0    0    0    0  0.00000000000E+00  0.00000000000E+00  0.39999999673E+01  0.40000000000E+01  0.51109989000E-03 0. -1.
     -623   -1    0    0    0    0  0.00000000000E+00  0.00000000000E+00  0.12525980253E-10  0.17130000000E+03  0.17130000000E+03 0. -1.
       11    1    1    2    0    0  0.43860358294E-02  0.58919818565E-02  0.44004813687E-01  0.44616562037E-01  0.51109989000E-03 0. -1.
     -623    1    1    2    0    0  0.11039855311E-02 -0.16125947477E-02  0.66841757150E-03  0.17130000001E+03  0.17130000000E+03 0. -1.
      622    1    1    2    0    0 -0.54900213604E-02 -0.42793871089E-02  0.39553267361E+01  0.39553834255E+01  0.20000000000E-01 0. -1.
</event>
<event>
 5   0  0.3603037E+08  0.9118800E+02  0.7818608E-02  0.1180000E+00
       11   -1    0    0    0    0  0.00000000000E+00  0.00000000000E+00  0.39999999673E+01  0.40000000000E+01  0.51109989000E-03 0. -1.
     -623   -1    0    0    0    0  0.00000000000E+00  0.00000000000E+00  0.12525980253E-10  0.17130000000E+03  0.17130000000E+03 0. -1.
       11    1    1    2    0    0  0.17387569973E-02 -0.21830107261E-02  0.22058035102E-01  0.22239760475E-01  0.51109989000E-03 0. -1.
     -623    1    1    2    0    0  0.15539716334E-02  0.14018925379E-02  0.23342509479E-03  0.17130000001E+03  0.17130000000E+03 0. -1.
      622    1    1    2    0    0 -0.32927286307E-02  0.78111818828E-03  0.39777085072E+01  0.39777602266E+01  0.20000000000E-01 0. -1.
</event>
<event>
 5   0  0.3603037E+08  0.9118800E+02  0.7818608E-02  0.1180000E+00
       11   -1    0    0    0    0  0.00000000000E+00  0.00000000000E+00  0.39999999673E+01  0.40000000000E+01  0.51109989000E-03 0.  1.
     -623   -1    0    0    0    0  0.00000000000E+00  0.00000000000E+00  0.12525980253E-10  0.17130000000E+03  0.17130000000E+03 0.  1.
       11    1    1    2    0    0  0.18676021048E-03 -0.11982507958E-03  0.18770194646E-01  0.18778462830E-01  0.51109989000E-03 0.  1.
     -623    1    1    2    0    0 -0.23509630618E-03  0.29275267468E-03  0.58476169198E-04  0.17130000000E+03  0.17130000000E+03 0.  1.
      622    1    1    2    0    0  0.48336095705E-04 -0.17292759510E-03  0.39811712965E+01  0.39812215367E+01  0.20000000000E-01 0.  1.
</event>
<event>
 5   0  0.3603037E+08  0.9118800E+02  0.7818608E-02  0.1180000E+00
       11   -1    0    0    0    0  0.00000000000E+00  0.00000000000E+00  0.39999999673E+01  0.40000000000E+01  0.51109989000E-03 0. -1.
     -623   -1    0    0    0    0  0.00000000000E+00  0.00000000000E+00  0.12525980253E-10  0.17130000000E+03  0.17130000000E+03 0.  1.
       11    1    1    2    0    0  0.74674248081E-03  0.35796098079E-02  0.35117208413E+00  0.35119149353E+00  0.51109989000E-03 0. -1.
     -623    1    1    2    0    0 -0.25661351946E-03 -0.19587265355E-03  0.75791804863E-04  0.17130000000E+03  0.17130000000E+03 0.  1.
      622    1    1    2    0    0 -0.49012896135E-03 -0.33837371544E-02  0.36487520914E+01  0.36488085062E+01  0.20000000000E-01 0. -1.
</event>
<event>
 5   0  0.3603037E+08  0.9118800E+02  0.7818608E-02  0.1180000E+00
       11   -1    0    0    0    0  0.00000000000E+00  0.00000000000E+00  0.39999999673E+01  0.40000000000E+01  0.51109989000E-03 0. -1.
     -623   -1    0    0    0    0  0.00000000000E+00  0.00000000000E+00  0.12525980253E-10  0.17130000000E+03  0.17130000000E+03 0. -1.
       11    1    1    2    0    0  0.21742590465E-02  0.35834510190E-03  0.75516686120E-01  0.75550558691E-01  0.51109989000E-03 0. -1.
     -623    1    1    2    0    0 -0.29996901167E-02  0.20529196241E-02  0.85668995978E-04  0.17130000004E+03  0.17130000000E+03 0. -1.
      622    1    1    2    0    0  0.82543107022E-03 -0.24112647260E-02  0.39243976122E+01  0.39244494027E+01  0.20000000000E-01 0. -1.
</event>
<event>
 5   0  0.3603037E+08  0.9118800E+02  0.7818608E-02  0.1180000E+00
       11   -1    0    0    0    0  0.00000000000E+00  0.00000000000E+00  0.39999999673E+01  0.40000000000E+01  0.51109989000E-03 0. -1.
     -623   -1    0    0    0    0  0.00000000000E+00  0.00000000000E+00  0.12525980253E-10  0.17130000000E+03  0.17130000000E+03 0.  1.
       11    1    1    2    0    0 -0.71830011850E-02  0.91483911884E-02  0.37902679868E+00  0.37920556946E+00  0.51109989000E-03 0. -1.
     -623    1    1    2    0    0  0.90847145035E-03  0.21908225071E-02  0.25718417240E-03  0.17130000002E+03  0.17130000000E+03 0.  1.
      622    1    1    2    0    0  0.62745297346E-02 -0.11339213696E-01  0.36207159845E+01  0.36207944139E+01  0.20000000000E-01 0. -1.
</event>
<event>
 5   0  0.3603037E+08  0.9118800E+02  0.7818608E-02  0.1180000E+00
       11   -1    0    0    0    0  0.00000000000E+00  0.00000000000E+00  0.39999999673E+01  0.40000000000E+01  0.51109989000E-03 0.  1.
     -623   -1    0    0    0    0  0.00000000000E+00  0.00000000000E+00  0.12525980253E-10  0.17130000000E+03  0.17130000000E+03 0. -1.
       11    1    1    2    0    0 -0.58663223096E-04  0.10795046251E-03  0.13353892727E-01  0.13364234652E-01  0.51109989000E-03 0.  1.
     -623    1    1    2    0    0 -0.68973924976E-03  0.16087644439E-03  0.60558000840E-04  0.17130000000E+03  0.17130000000E+03 0. -1.
      622    1    1    2    0    0  0.74840247286E-03 -0.26882690691E-03  0.39865855166E+01  0.39866357639E+01  0.20000000000E-01 0.  1.
</event>
<event>
 5   0  0.3603037E+08  0.9118800E+02  0.7818608E-02  0.1180000E+00
       11   -1    0    0    0    0  0.00000000000E+00  0.00000000000E+00  0.39999999673E+01  0.40000000000E+01  0.51109989000E-03 0. -1.
     -623   -1    0    0    0    0  0.00000000000E+00  0.00000000000E+00  0.12525980253E-10  0.17130000000E+03  0.17130000000E+03 0.  1.
       11    1    1    2    0    0  0.97951945443E-02 -0.10197869046E-02  0.11292003566E+01  0.11292434159E+01  0.51109989000E-03 0. -1.
     -623    1    1    2    0    0  0.13547939098E-04  0.19807630093E-03  0.12957093732E-03  0.17130000000E+03  0.17130000000E+03 0.  1.
      622    1    1    2    0    0 -0.98087424834E-02  0.82171060362E-03  0.28706700398E+01  0.28707565839E+01  0.20000000000E-01 0.  1.
</event>
<event>
 5   0  0.3603037E+08  0.9118800E+02  0.7818608E-02  0.1180000E+00
       11   -1    0    0    0    0  0.00000000000E+00  0.00000000000E+00  0.39999999673E+01  0.40000000000E+01  0.51109989000E-03 0.  1.
     -623   -1    0    0    0    0  0.00000000000E+00  0.00000000000E+00  0.12525980253E-10  0.17130000000E+03  0.17130000000E+03 0. -1.
       11    1    1    2    0    0  0.94758496203E-03  0.39594921206E-02  0.66514117703E+00  0.66515383341E+00  0.51109989000E-03 0.  1.
     -623    1    1    2    0    0 -0.10181612930E-02 -0.18417915977E-03  0.74737964179E-04  0.17130000000E+03  0.17130000000E+03 0. -1.
      622    1    1    2    0    0  0.70576331000E-04 -0.37753129608E-02  0.33347840524E+01  0.33348461634E+01  0.20000000000E-01 0.  1.
</event>
<event>
 5   0  0.3603037E+08  0.9118800E+02  0.7818608E-02  0.1180000E+00
       11   -1    0    0    0    0  0.00000000000E+00  0.00000000000E+00  0.39999999673E+01  0.40000000000E+01  0.51109989000E-03 0.  1.
     -623   -1    0    0    0    0  0.00000000000E+00  0.00000000000E+00  0.12525980253E-10  0.17130000000E+03  0.17130000000E+03 0.  1.
       11    1    1    2    0    0 -0.46054948222E-03  0.81415763472E-03  0.31647339895E-01  0.31665285418E-01  0.51109989000E-03 0.  1.
     -623    1    1    2    0    0 -0.28975500850E-03 -0.52510650045E-04  0.68456469807E-04  0.17130000000E+03  0.17130000000E+03 0.  1.
      622    1    1    2    0    0  0.75030449072E-03 -0.76164698467E-03  0.39682841710E+01  0.39683347143E+01  0.20000000000E-01 0.  1.
</event>
<event>
 5   0  0.3603037E+08  0.9118800E+02  0.7818608E-02  0.1180000E+00
       11   -1    0    0    0    0  0.00000000000E+00  0.00000000000E+00  0.39999999673E+01  0.40000000000E+01  0.51109989000E-03 0.  1.
     -623   -1    0    0    0    0  0.00000000000E+00  0.00000000000E+00  0.12525980253E-10  0.17130000000E+03  0.17130000000E+03 0. -1.
       11    1    1    2    0    0  0.12077717121E-01 -0.10620348257E-01  0.13404368472E+01  0.13405334257E+01  0.51109989000E-03 0.  1.
     -623    1    1    2    0    0  0.56311132588E-02  0.82303811775E-02  0.23207644924E-03  0.17130000029E+03  0.17130000000E+03 0. -1.
      622    1    1    2    0    0 -0.17708830380E-01  0.23899670793E-02  0.26593310438E+01  0.26594662838E+01  0.20000000000E-01 0. -1.
</event>
<event>
 5   0  0.3603037E+08  0.9118800E+02  0.7818608E-02  0.1180000E+00
       11   -1    0    0    0    0  0.00000000000E+00  0.00000000000E+00  0.39999999673E+01  0.40000000000E+01  0.51109989000E-03 0.  1.
     -623   -1    0    0    0    0  0.00000000000E+00  0.00000000000E+00  0.12525980253E-10  0.17130000000E+03  0.17130000000E+03 0. -1.
       11    1    1    2    0    0 -0.38072585487E-03  0.61907476976E-03  0.15860552362E-01  0.15885419412E-01  0.51109989000E-03 0.  1.
     -623    1    1    2    0    0  0.63489693990E-03  0.90975787736E-03  0.75339137368E-04  0.17130000000E+03  0.17130000000E+03 0. -1.
      622    1    1    2    0    0 -0.25417108502E-03 -0.15288326471E-02  0.39840640759E+01  0.39841145770E+01  0.20000000000E-01 0.  1.
</event>
<event>
 5   0  0.3603037E+08  0.9118800E+02  0.7818608E-02  0.1180000E+00
       11   -1    0    0    0    0  0.00000000000E+00  0.00000000000E+00  0.39999999673E+01  0.40000000000E+01  0.51109989000E-03 0. -1.
     -623   -1    0    0    0    0  0.00000000000E+00  0.00000000000E+00  0.12525980253E-10  0.17130000000E+03  0.17130000000E+03 0. -1.
       11    1    1    2    0    0 -0.77537789875E-04  0.68593283251E-02  0.78926555378E-01  0.79225745569E-01  0.51109989000E-03 0. -1.
     -623    1    1    2    0    0 -0.76478537685E-03 -0.36152612561E-03  0.35564555353E-03  0.17130000000E+03  0.17130000000E+03 0. -1.
      622    1    1    2    0    0  0.84232316673E-03 -0.64978021994E-02  0.39207177664E+01  0.39207742520E+01  0.20000000000E-01 0. -1.
</event>
<event>
 5   0  0.3603037E+08  0.9118800E+02  0.7818608E-02  0.1180000E+00
       11   -1    0    0    0    0  0.00000000000E+00  0.00000000000E+00  0.39999999673E+01  0.40000000000E+01  0.51109989000E-03 0. -1.
     -623   -1    0    0    0    0  0.00000000000E+00  0.00000000000E+00  0.12525980253E-10  0.17130000000E+03  0.17130000000E+03 0. -1.
       11    1    1    2    0    0 -0.38895722108E-03 -0.72197234646E-03  0.78099436857E+00  0.78099496636E+00  0.51109989000E-03 0. -1.
     -623    1    1    2    0    0 -0.15408450936E-02  0.37288015628E-03  0.63301505141E-04  0.17130000001E+03  0.17130000000E+03 0. -1.
      622    1    1    2    0    0  0.19298023146E-02  0.34909219018E-03  0.32189422973E+01  0.32190050263E+01  0.20000000000E-01 0. -1.
</event>
<event>
 5   0  0.3603037E+08  0.9118800E+02  0.7818608E-02  0.1180000E+00
       11   -1    0    0    0    0  0.00000000000E+00  0.00000000000E+00  0.39999999673E+01  0.40000000000E+01  0.51109989000E-03 0.  1.
     -623   -1    0    0    0    0  0.00000000000E+00  0.00000000000E+00  0.12525980253E-10  0.17130000000E+03  0.17130000000E+03 0. -1.
       11    1    1    2    0    0  0.11057477424E-02  0.13665831039E-01  0.10558741342E+00  0.10647507084E+00  0.51109989000E-03 0.  1.
     -623    1    1    2    0    0 -0.43479214437E-03 -0.25740373133E-02  0.95487209484E-03  0.17130000002E+03  0.17130000000E+03 0. -1.
      622    1    1    2    0    0 -0.67095559804E-03 -0.11091793726E-01  0.38934576818E+01  0.38935249066E+01  0.20000000000E-01 0.  1.
</event>
<event>
 5   0  0.3603037E+08  0.9118800E+02  0.7818608E-02  0.1180000E+00
       11   -1    0    0    0    0  0.00000000000E+00  0.00000000000E+00  0.39999999673E+01  0.40000000000E+01  0.51109989000E-03 0.  1.
     -623   -1    0    0    0    0  0.00000000000E+00  0.00000000000E+00  0.12525980253E-10  0.17130000000E+03  0.17130000000E+03 0.  1.
       11    1    1    2    0    0 -0.13015849981E-02  0.33834405268E-02  0.23754406423E+00  0.23757227420E+00  0.51109989000E-03 0.  1.
     -623    1    1    2    0    0  0.18123339804E-02  0.25322473336E-03  0.83136906215E-04  0.17130000001E+03  0.17130000000E+03 0.  1.
      622    1    1    2    0    0 -0.51074898234E-03 -0.36366652601E-02  0.37623727662E+01  0.37624277160E+01  0.20000000000E-01 0.  1.
</event>
<event>
 5   0  0.3603037E+08  0.9118800E+02  0.7818608E-02  0.1180000E+00
       11   -1    0    0    0    0  0.00000000000E+00  0.00000000000E+00  0.39999999673E+01  0.40000000000E+01  0.51109989000E-03 0.  1.
     -623   -1    0    0    0    0  0.00000000000E+00  0.00000000000E+00  0.12525980253E-10  0.17130000000E+03  0.17130000000E+03 0. -1.
       11    1    1    2    0    0  0.20222946524E-02 -0.70324243659E-02  0.58195194865E+00  0.58199817562E+00  0.51109989000E-03 0.  1.
     -623    1    1    2    0    0  0.22562643707E-02  0.60849508064E-03  0.11343927473E-03  0.17130000002E+03  0.17130000000E+03 0. -1.
      622    1    1    2    0    0 -0.42785590232E-02  0.64239292853E-02  0.34179345794E+01  0.34180018084E+01  0.20000000000E-01 0.  1.
</event>
<event>
 5   0  0.3603037E+08  0.9118800E+02  0.7818608E-02  0.1180000E+00
       11   -1    0    0    0    0  0.00000000000E+00  0.00000000000E+00  0.39999999673E+01  0.40000000000E+01  0.51109989000E-03 0. -1.
     -623   -1    0    0    0    0  0.00000000000E+00  0.00000000000E+00  0.12525980253E-10  0.17130000000E+03  0.17130000000E+03 0.  1.
       11    1    1    2    0    0 -0.41524423119E-02  0.23825396200E-02  0.42449753774E-01  0.42721915792E-01  0.51109989000E-03 0. -1.
     -623    1    1    2    0    0  0.23877426220E-02  0.10930030551E-02  0.32460964993E-03  0.17130000002E+03  0.17130000000E+03 0.  1.
      622    1    1    2    0    0  0.17646996899E-02 -0.34755426752E-02  0.39572256039E+01  0.39572780638E+01  0.20000000000E-01 0. -1.
</event>
<event>
 5   0  0.3603037E+08  0.9118800E+02  0.7818608E-02  0.1180000E+00
       11   -1    0    0    0    0  0.00000000000E+00  0.00000000000E+00  0.39999999673E+01  0.40000000000E+01  0.51109989000E-03 0.  1.
     -623   -1    0    0    0    0  0.00000000000E+00  0.00000000000E+00  0.12525980253E-10  0.17130000000E+03  0.17130000000E+03 0. -1.
       11    1    1    2    0    0 -0.86975183449E-03 -0.69211553351E-02  0.48412030515E-01  0.48914668341E-01  0.51109989000E-03 0.  1.
     -623    1    1    2    0    0 -0.64612870059E-02  0.65408241232E-02  0.56029174936E-03  0.17130000025E+03  0.17130000000E+03 0. -1.
      622    1    1    2    0    0  0.73310388403E-02  0.38033121190E-03  0.39510276451E+01  0.39510850840E+01  0.20000000000E-01 0.  1.
</event>
<event>
 5   0  0.3603037E+08  0.9118800E+02  0.7818608E-02  0.1180000E+00
       11   -1    0    0    0    0  0.00000000000E+00  0.00000000000E+00  0.39999999673E+01  0.40000000000E+01  0.51109989000E-03 0. -1.
     -623   -1    0    0    0    0  0.00000000000E+00  0.00000000000E+00  0.12525980253E-10  0.17130000000E+03  0.17130000000E+03 0.  1.
       11    1    1    2    0    0 -0.11268238120E-01 -0.12621216385E-01  0.13347697234E+01  0.13348770520E+01  0.51109989000E-03 0. -1.
     -623    1    1    2    0    0  0.38714517517E-02  0.84850217347E-02  0.19606906374E-03  0.17130000025E+03  0.17130000000E+03 0.  1.
      622    1    1    2    0    0  0.73967863683E-02  0.41361946507E-02  0.26650341749E+01  0.26651226940E+01  0.20000000000E-01 0.  0.
</event>
<event>
 5   0  0.3603037E+08  0.9118800E+02  0.7818608E-02  0.1180000E+00
       11   -1    0    0    0    0  0.00000000000E+00  0.00000000000E+00  0.39999999673E+01  0.40000000000E+01  0.51109989000E-03 0. -1.
     -623   -1    0    0    0    0  0.00000000000E+00  0.00000000000E+00  0.12525980253E-10  0.17130000000E+03  0.17130000000E+03 0. -1.
       11    1    1    2    0    0  0.41495804360E-02  0.36521605683E-02  0.34890399725E+00  0.34894815921E+00  0.51109989000E-03 0. -1.
     -623    1    1    2    0    0 -0.92143050941E-02 -0.10794603798E-01  0.10999577368E-03  0.17130000059E+03  0.17130000000E+03 0. -1.
      622    1    1    2    0    0  0.50647246581E-02  0.71424432294E-02  0.36509859743E+01  0.36510512528E+01  0.20000000000E-01 0. -1.
</event>
<event>
 5   0  0.3603037E+08  0.9118800E+02  0.7818608E-02  0.1180000E+00
       11   -1    0    0    0    0  0.00000000000E+00  0.00000000000E+00  0.39999999673E+01  0.40000000000E+01  0.51109989000E-03 0. -1.
     -623   -1    0    0    0    0  0.00000000000E+00  0.00000000000E+00  0.12525980253E-10  0.17130000000E+03  0.17130000000E+03 0.  1.
       11    1    1    2    0    0 -0.36530337196E-03 -0.39927223880E-03  0.89235879890E-02  0.89545802789E-02  0.51109989000E-03 0. -1.
     -623    1    1    2    0    0 -0.37684788284E-04 -0.80981074661E-04  0.81121431604E-04  0.17130000000E+03  0.17130000000E+03 0.  1.
      622    1    1    2    0    0  0.40298816024E-03  0.48025331346E-03  0.39909952579E+01  0.39910454197E+01  0.20000000000E-01 0. -1.
</event>
<event>
 5   0  0.3603037E+08  0.9118800E+02  0.7818608E-02  0.1180000E+00
       11   -1    0    0    0    0  0.00000000000E+00  0.00000000000E+00  0.39999999673E+01  0.40000000000E+01  0.51109989000E-03 0.  1.
     -623   -1    0    0    0    0  0.00000000000E+00  0.00000000000E+00  0.12525980253E-10  0.17130000000E+03  0.17130000000E+03 0.  1.
       11    1    1    2    0    0  0.11721825823E-01 -0.48077116479E-02  0.27299737574E+01  0.27300032037E+01  0.51109989000E-03 0.  1.
     -623    1    1    2    0    0  0.15468888062E-03 -0.35331875753E-03  0.25293373501E-03  0.17130000000E+03  0.17130000000E+03 0.  1.
      622    1    1    2    0    0 -0.11876514704E-01  0.51610304055E-02  0.12697732763E+01  0.12699967957E+01  0.20000000000E-01 0.  0.
</event>
<event>
 5   0  0.3603037E+08  0.9118800E+02  0.7818608E-02  0.1180000E+00
       11   -1    0    0    0    0  0.00000000000E+00  0.00000000000E+00  0.39999999673E+01  0.40000000000E+01  0.51109989000E-03 0. -1.
     -623   -1    0    0    0    0  0.00000000000E+00  0.00000000000E+00  0.12525980253E-10  0.17130000000E+03  0.17130000000E+03 0.  1.
       11    1    1    2    0    0 -0.10467319422E-02  0.34551284887E-02  0.14472045731E-01  0.14924305297E-01  0.51109989000E-03 0. -1.
     -623    1    1    2    0    0 -0.10965112396E-02  0.15837882977E-03  0.50463347754E-03  0.17130000000E+03  0.17130000000E+03 0.  1.
      622    1    1    2    0    0  0.21432431818E-02 -0.36135073185E-02  0.39850232882E+01  0.39850756904E+01  0.20000000000E-01 0. -1.
</event>
<event>
 5   0  0.3603037E+08  0.9118800E+02  0.7818608E-02  0.1180000E+00
       11   -1    0    0    0    0  0.00000000000E+00  0.00000000000E+00  0.39999999673E+01  0.40000000000E+01  0.51109989000E-03 0. -1.
     -623   -1    0    0    0    0  0.00000000000E+00  0.00000000000E+00  0.12525980253E-10  0.17130000000E+03  0.17130000000E+03 0. -1.
       11    1    1    2    0    0  0.38430774476E-02 -0.21021045257E-03  0.56551657075E+00  0.56552989881E+00  0.51109989000E-03 0. -1.
     -623    1    1    2    0    0  0.26912441324E-03  0.52530311816E-03  0.74006424159E-04  0.17130000000E+03  0.17130000000E+03 0. -1.
      622    1    1    2    0    0 -0.41122018608E-02 -0.31509266559E-03  0.34344093902E+01  0.34344701002E+01  0.20000000000E-01 0.  0.
</event>
<event>
 5   0  0.3603037E+08  0.9118800E+02  0.7818608E-02  0.1180000E+00
       11   -1    0    0    0    0  0.00000000000E+00  0.00000000000E+00  0.39999999673E+01  0.40000000000E+01  0.51109989000E-03 0. -1.
     -623   -1    0    0    0    0  0.00000000000E+00  0.00000000000E+00  0.12525980253E-10  0.17130000000E+03  0.17130000000E+03 0. -1.
       11    1    1    2    0    0  0.80999736128E-02  0.72547200919E-02  0.11776915159E+01  0.11777418258E+01  0.51109989000E-03 0. -1.
     -623    1    1    2    0    0  0.23500605559E-03 -0.35898221452E-03  0.14187681483E-03  0.17130000000E+03  0.17130000000E+03 0. -1.
      622    1    1    2    0    0 -0.83349796684E-02 -0.68957378774E-02  0.28221665747E+01  0.28222581736E+01  0.20000000000E-01 0. -1.
</event>
<event>
 5   0  0.3603037E+08  0.9118800E+02  0.7818608E-02  0.1180000E+00
       11   -1    0    0    0    0  0.00000000000E+00  0.00000000000E+00  0.39999999673E+01  0.40000000000E+01  0.51109989000E-03 0. -1.
     -623   -1    0    0    0    0  0.00000000000E+00  0.00000000000E+00  0.12525980253E-10  0.17130000000E+03  0.17130000000E+03 0. -1.
       11    1    1    2    0    0  0.16235681463E-02  0.42859525402E-02  0.43191542490E-01  0.43437034051E-01  0.51109989000E-03 0. -1.
     -623    1    1    2    0    0 -0.11517389559E-02 -0.22376283642E-03  0.29812592397E-03  0.17130000000E+03  0.17130000000E+03 0. -1.
      622    1    1    2    0    0 -0.47182919043E-03 -0.40621897037E-02  0.39565102989E+01  0.39565629617E+01  0.20000000000E-01 0. -1.
</event>
<event>
 5   0  0.3603037E+08  0.9118800E+02  0.7818608E-02  0.1180000E+00
       11   -1    0    0    0    0  0.00000000000E+00  0.00000000000E+00  0.39999999673E+01  0.40000000000E+01  0.51109989000E-03 0. -1.
     -623   -1    0    0    0    0  0.00000000000E+00  0.00000000000E+00  0.12525980253E-10  0.17130000000E+03  0.17130000000E+03 0.  1.
       11    1    1    2    0    0 -0.96905894606E-03  0.46807068897E-02  0.38922748491E-01  0.39218486243E-01  0.51109989000E-03 0. -1.
     -623    1    1    2    0    0 -0.82822679743E-02 -0.97576773674E-02  0.36073741353E-03  0.17130000048E+03  0.17130000000E+03 0.  1.
      622    1    1    2    0    0  0.92513269204E-02  0.50769704777E-02  0.39607164815E+01  0.39607810352E+01  0.20000000000E-01 0. -1.
</event>
<event>
 5   0  0.3603037E+08  0.9118800E+02  0.7818608E-02  0.1180000E+00
       11   -1    0    0    0    0  0.00000000000E+00  0.00000000000E+00  0.39999999673E+01  0.40000000000E+01  0.51109989000E-03 0. -1.
     -623   -1    0    0    0    0  0.00000000000E+00  0.00000000000E+00  0.12525980253E-10  0.17130000000E+03  0.17130000000E+03 0. -1.
       11    1    1    2    0    0  0.52012581051E-02  0.54756850722E-01  0.88721607480E+00  0.88891956351E+00  0.51109989000E-03 0. -1.
     -623    1    1    2    0    0  0.74763389409E-02 -0.17217146636E-01  0.20211149640E-02  0.17130000104E+03  0.17130000000E+03 0. -1.
      622    1    1    2    0    0 -0.12677597046E-01 -0.37539704086E-01  0.31107627776E+01  0.31110793962E+01  0.20000000000E-01 0. -1.
</event>
<event>
 5   0  0.3603037E+08  0.9118800E+02  0.7818608E-02  0.1180000E+00
       11   -1    0    0    0    0  0.00000000000E+00  0.00000000000E+00  0.39999999673E+01  0.40000000000E+01  0.51109989000E-03 0. -1.
     -623   -1    0    0    0    0  0.00000000000E+00  0.00000000000E+00  0.12525980253E-10  0.17130000000E+03  0.17130000000E+03 0. -1.
       11    1    1    2    0    0 -0.46225279862E-02 -0.38798392991E-02  0.14789598042E+00  0.14801994178E+00  0.51109989000E-03 0. -1.
     -623    1    1    2    0    0  0.78885321459E-03  0.36986148969E-02  0.17780427206E-03  0.17130000004E+03  0.17130000000E+03 0. -1.
      622    1    1    2    0    0  0.38336747717E-02  0.18122440219E-03  0.38519261827E+01  0.38519800164E+01  0.20000000000E-01 0. -1.
</event>
<event>
 5   0  0.3603037E+08  0.9118800E+02  0.7818608E-02  0.1180000E+00
       11   -1    0    0    0    0  0.00000000000E+00  0.00000000000E+00  0.39999999673E+01  0.40000000000E+01  0.51109989000E-03 0. -1.
     -623   -1    0    0    0    0  0.00000000000E+00  0.00000000000E+00  0.12525980253E-10  0.17130000000E+03  0.17130000000E+03 0.  1.
       11    1    1    2    0    0 -0.19908816324E-02  0.14474996882E-02  0.43691098829E-01  0.43763366012E-01  0.51109989000E-03 0. -1.
     -623    1    1    2    0    0 -0.20142832307E-03 -0.18462553935E-03  0.12359721774E-03  0.17130000000E+03  0.17130000000E+03 0.  1.
      622    1    1    2    0    0  0.21923099554E-02 -0.12628741489E-02  0.39561852713E+01  0.39562366337E+01  0.20000000000E-01 0. -1.
</event>
<event>
 5   0  0.3603037E+08  0.9118800E+02  0.7818608E-02  0.1180000E+00
       11   -1    0    0    0    0  0.00000000000E+00  0.00000000000E+00  0.39999999673E+01  0.40000000000E+01  0.51109989000E-03 0.  1.
     -623   -1    0    0    0    0  0.00000000000E+00  0.00000000000E+00  0.12525980253E-10  0.17130000000E+03  0.17130000000E+03 0.  1.
       11    1    1    2    0    0 -0.11691774101E-01  0.49728224680E-03  0.22393363062E+01  0.22393669414E+01  0.51109989000E-03 0.  1.
     -623    1    1    2    0    0 -0.51313956823E-02 -0.43101789567E-02  0.22884339483E-03  0.17130000013E+03  0.17130000000E+03 0.  1.
      622    1    1    2    0    0  0.16823169783E-01  0.38128967099E-02  0.17604348178E+01  0.17606329273E+01  0.20000000000E-01 0.  0.
</event>
<event>
 5   0  0.3603037E+08  0.9118800E+02  0.7818608E-02  0.1180000E+00
       11   -1    0    0    0    0  0.00000000000E+00  0.00000000000E+00  0.39999999673E+01  0.40000000000E+01  0.51109989000E-03 0.  1.
     -623   -1    0    0    0    0  0.00000000000E+00  0.00000000000E+00  0.12525980253E-10  0.17130000000E+03  0.17130000000E+03 0. -1.
       11    1    1    2    0    0 -0.94321789248E-02 -0.15210718506E-01  0.98294479770E+00  0.98310786209E+00  0.51109989000E-03 0.  1.
     -623    1    1    2    0    0  0.14856901106E-01  0.30734105948E-02  0.25929075353E-03  0.17130000067E+03  0.17130000000E+03 0. -1.
      622    1    1    2    0    0 -0.54247221810E-02  0.12137307911E-01  0.30167958789E+01  0.30168914659E+01  0.20000000000E-01 0.  1.
</event>
<event>
 5   0  0.3603037E+08  0.9118800E+02  0.7818608E-02  0.1180000E+00
       11   -1    0    0    0    0  0.00000000000E+00  0.00000000000E+00  0.39999999673E+01  0.40000000000E+01  0.51109989000E-03 0.  1.
     -623   -1    0    0    0    0  0.00000000000E+00  0.00000000000E+00  0.12525980253E-10  0.17130000000E+03  0.17130000000E+03 0. -1.
       11    1    1    2    0    0 -0.15331042940E-01  0.19994990030E-01  0.13010688642E+01  0.13013129105E+01  0.51109989000E-03 0.  1.
     -623    1    1    2    0    0  0.21649019003E-02  0.28197725084E-03  0.42643830576E-03  0.17130000001E+03  0.17130000000E+03 0. -1.
      622    1    1    2    0    0  0.13166141040E-01 -0.20276967281E-01  0.26985046649E+01  0.26986870750E+01  0.20000000000E-01 0.  1.
</event>
<event>
 5   0  0.3603037E+08  0.9118800E+02  0.7818608E-02  0.1180000E+00
       11   -1    0    0    0    0  0.00000000000E+00  0.00000000000E+00  0.39999999673E+01  0.40000000000E+01  0.51109989000E-03 0.  1.
     -623   -1    0    0    0    0  0.00000000000E+00  0.00000000000E+00  0.12525980253E-10  0.17130000000E+03  0.17130000000E+03 0. -1.
       11    1    1    2    0    0 -0.26753605413E-03 -0.57649759034E-03  0.12637539957E-01  0.12663828899E-01  0.51109989000E-03 0.  1.
     -623    1    1    2    0    0 -0.16376379290E-03  0.14799195450E-05  0.76480302489E-04  0.17130000000E+03  0.17130000000E+03 0. -1.
      622    1    1    2    0    0  0.43129984703E-03  0.57501767079E-03  0.39872859471E+01  0.39873361710E+01  0.20000000000E-01 0.  1.
</event>
<event>
 5   0  0.3603037E+08  0.9118800E+02  0.7818608E-02  0.1180000E+00
       11   -1    0    0    0    0  0.00000000000E+00  0.00000000000E+00  0.39999999673E+01  0.40000000000E+01  0.51109989000E-03 0.  1.
     -623   -1    0    0    0    0  0.00000000000E+00  0.00000000000E+00  0.12525980253E-10  0.17130000000E+03  0.17130000000E+03 0.  1.
       11    1    1    2    0    0 -0.35889977113E-02  0.23366525308E-03  0.10127181493E+00  0.10133694896E+00  0.51109989000E-03 0.  1.
     -623    1    1    2    0    0  0.24055175431E-04  0.18404199814E-03  0.11805380034E-03  0.17130000000E+03  0.17130000000E+03 0.  1.
      622    1    1    2    0    0  0.35649425359E-02 -0.41770725122E-03  0.38986100986E+01  0.38986630509E+01  0.20000000000E-01 0.  1.
</event>
<event>
 5   0  0.3603037E+08  0.9118800E+02  0.7818608E-02  0.1180000E+00
       11   -1    0    0    0    0  0.00000000000E+00  0.00000000000E+00  0.39999999673E+01  0.40000000000E+01  0.51109989000E-03 0. -1.
     -623   -1    0    0    0    0  0.00000000000E+00  0.00000000000E+00  0.12525980253E-10  0.17130000000E+03  0.17130000000E+03 0. -1.
       11    1    1    2    0    0 -0.14095266679E-03  0.80375176588E-03  0.13307846389E-01  0.13342633998E-01  0.51109989000E-03 0.  1.
     -623    1    1    2    0    0 -0.63895857076E-04  0.30154038877E-04  0.85015142437E-04  0.17130000000E+03  0.17130000000E+03 0. -1.
      622    1    1    2    0    0  0.20484852387E-03 -0.83390580476E-03  0.39866071058E+01  0.39866573660E+01  0.20000000000E-01 0. -1.
</event>
<event>
 5   0  0.3603037E+08  0.9118800E+02  0.7818608E-02  0.1180000E+00
       11   -1    0    0    0    0  0.00000000000E+00  0.00000000000E+00  0.39999999673E+01  0.40000000000E+01  0.51109989000E-03 0.  1.
     -623   -1    0    0    0    0  0.00000000000E+00  0.00000000000E+00  0.12525980253E-10  0.17130000000E+03  0.17130000000E+03 0.  1.
       11    1    1    2    0    0 -0.30767272489E-02 -0.38907691140E-02  0.65196110862E+00  0.65198017816E+00  0.51109989000E-03 0.  1.
     -623    1    1    2    0    0 -0.59666342091E-03  0.68285022699E-02  0.82215510194E-04  0.17130000014E+03  0.17130000000E+03 0.  1.
      622    1    1    2    0    0  0.36733906698E-02 -0.29377331559E-02  0.33479566432E+01  0.33480196847E+01  0.20000000000E-01 0.  1.
</event>
<event>
 5   0  0.3603037E+08  0.9118800E+02  0.7818608E-02  0.1180000E+00
       11   -1    0    0    0    0  0.00000000000E+00  0.00000000000E+00  0.39999999673E+01  0.40000000000E+01  0.51109989000E-03 0. -1.
     -623   -1    0    0    0    0  0.00000000000E+00  0.00000000000E+00  0.12525980253E-10  0.17130000000E+03  0.17130000000E+03 0. -1.
       11    1    1    2    0    0  0.73566803105E-02  0.14243927625E-01  0.66509986153E+00  0.66529324154E+00  0.51109989000E-03 0. -1.
     -623    1    1    2    0    0  0.13908527167E-02 -0.26978233332E-02  0.28481286236E-03  0.17130000003E+03  0.17130000000E+03 0. -1.
      622    1    1    2    0    0 -0.87475330271E-02 -0.11546104292E-01  0.33346152930E+01  0.33347067313E+01  0.20000000000E-01 0. -1.
</event>
<event>
 5   0  0.3603037E+08  0.9118800E+02  0.7818608E-02  0.1180000E+00
       11   -1    0    0    0    0  0.00000000000E+00  0.00000000000E+00  0.39999999673E+01  0.40000000000E+01  0.51109989000E-03 0. -1.
     -623   -1    0    0    0    0  0.00000000000E+00  0.00000000000E+00  0.12525980253E-10  0.17130000000E+03  0.17130000000E+03 0.  1.
       11    1    1    2    0    0 -0.12817375249E-02  0.16577311445E-02  0.77041239473E-01  0.77071426119E-01  0.51109989000E-03 0. -1.
     -623    1    1    2    0    0 -0.39098682222E-03 -0.26714770742E-03  0.81740425900E-04  0.17130000000E+03  0.17130000000E+03 0.  1.
      622    1    1    2    0    0  0.16727243471E-02 -0.13905834371E-02  0.39228769875E+01  0.39229285732E+01  0.20000000000E-01 0. -1.
</event>
<event>
 5   0  0.3603037E+08  0.9118800E+02  0.7818608E-02  0.1180000E+00
       11   -1    0    0    0    0  0.00000000000E+00  0.00000000000E+00  0.39999999673E+01  0.40000000000E+01  0.51109989000E-03 0. -1.
     -623   -1    0    0    0    0  0.00000000000E+00  0.00000000000E+00  0.12525980253E-10  0.17130000000E+03  0.17130000000E+03 0. -1.
       11    1    1    2    0    0 -0.40256346574E-03  0.62932337631E-03  0.16231718594E-01  0.16256937494E-01  0.51109989000E-03 0. -1.
     -623    1    1    2    0    0 -0.26091362999E-03 -0.11594113962E-03  0.75479201723E-04  0.17130000000E+03  0.17130000000E+03 0. -1.
      622    1    1    2    0    0  0.66347709573E-03 -0.51338223670E-03  0.39836927696E+01  0.39837430623E+01  0.20000000000E-01 0. -1.
</event>
<event>
 5   0  0.3603037E+08  0.9118800E+02  0.7818608E-02  0.1180000E+00
       11   -1    0    0    0    0  0.00000000000E+00  0.00000000000E+00  0.39999999673E+01  0.40000000000E+01  0.51109989000E-03 0. -1.
     -623   -1    0    0    0    0  0.00000000000E+00  0.00000000000E+00  0.12525980253E-10  0.17130000000E+03  0.17130000000E+03 0. -1.
       11    1    1    2    0    0 -0.12493861643E-01 -0.66133628633E-02  0.11800461523E+01  0.11801309317E+01  0.51109989000E-03 0. -1.
     -623    1    1    2    0    0 -0.29199740153E-02  0.29803091717E-02  0.20019288157E-03  0.17130000005E+03  0.17130000000E+03 0. -1.
      622    1    1    2    0    0  0.15413835658E-01  0.36330536915E-02  0.28197536222E+01  0.28198690174E+01  0.20000000000E-01 0. -1.
</event>
<event>
 5   0  0.3603037E+08  0.9118800E+02  0.7818608E-02  0.1180000E+00
       11   -1    0    0    0    0  0.00000000000E+00  0.00000000000E+00  0.39999999673E+01  0.40000000000E+01  0.51109989000E-03 0.  1.
     -623   -1    0    0    0    0  0.00000000000E+00  0.00000000000E+00  0.12525980253E-10  0.17130000000E+03  0.17130000000E+03 0.  1.
       11    1    1    2    0    0  0.54260365073E-02 -0.32145414955E-02  0.18188268392E+01  0.18188378453E+01  0.51109989000E-03 0.  1.
     -623    1    1    2    0    0 -0.10731629304E-02  0.63165445231E-02  0.10933897979E-03  0.17130000012E+03  0.17130000000E+03 0.  1.
      622    1    1    2    0    0 -0.43528735769E-02 -0.31020030276E-02  0.21810637891E+01  0.21811620348E+01  0.20000000000E-01 0.  1.
</event>
<event>
 5   0  0.3603037E+08  0.9118800E+02  0.7818608E-02  0.1180000E+00
       11   -1    0    0    0    0  0.00000000000E+00  0.00000000000E+00  0.39999999673E+01  0.40000000000E+01  0.51109989000E-03 0.  1.
     -623   -1    0    0    0    0  0.00000000000E+00  0.00000000000E+00  0.12525980253E-10  0.17130000000E+03  0.17130000000E+03 0.  1.
       11    1    1    2    0    0  0.45721187654E-04 -0.85012509050E-03  0.45577849508E-01  0.45588665163E-01  0.51109989000E-03 0.  1.
     -623    1    1    2    0    0  0.31833956789E-02  0.18717958161E-02  0.62850009470E-04  0.17130000004E+03  0.17130000000E+03 0.  1.
      622    1    1    2    0    0 -0.32291168665E-02 -0.10216707256E-02  0.39543592678E+01  0.39544112950E+01  0.20000000000E-01 0.  1.
</event>
<event>
 5   0  0.3603037E+08  0.9118800E+02  0.7818608E-02  0.1180000E+00
       11   -1    0    0    0    0  0.00000000000E+00  0.00000000000E+00  0.39999999673E+01  0.40000000000E+01  0.51109989000E-03 0. -1.
     -623   -1    0    0    0    0  0.00000000000E+00  0.00000000000E+00  0.12525980253E-10  0.17130000000E+03  0.17130000000E+03 0.  1.
       11    1    1    2    0    0  0.70644981751E-03 -0.35640923601E-02  0.24788792325E+00  0.24791507727E+00  0.51109989000E-03 0. -1.
     -623    1    1    2    0    0 -0.25851772499E-03  0.79446372045E-03  0.81476480218E-04  0.17130000000E+03  0.17130000000E+03 0.  1.
      622    1    1    2    0    0 -0.44793209252E-03  0.27696286396E-02  0.37520305676E+01  0.37520849207E+01  0.20000000000E-01 0. -1.
</event>
<event>
 5   0  0.3603037E+08  0.9118800E+02  0.7818608E-02  0.1180000E+00
       11   -1    0    0    0    0  0.00000000000E+00  0.00000000000E+00  0.39999999673E+01  0.40000000000E+01  0.51109989000E-03 0.  1.
     -623   -1    0    0    0    0  0.00000000000E+00  0.00000000000E+00  0.12525980253E-10  0.17130000000E+03  0.17130000000E+03 0. -1.
       11    1    1    2    0    0 -0.59445372909E-04  0.15078236511E-01  0.22235702096E+01  0.22236213920E+01  0.51109989000E-03 0.  1.
     -623    1    1    2    0    0 -0.42607233535E-03  0.21316584864E-02  0.24719589211E-03  0.17130000001E+03  0.17130000000E+03 0. -1.
      622    1    1    2    0    0  0.48551770825E-03 -0.17209894997E-01  0.17761825619E+01  0.17763785940E+01  0.20000000000E-01 0.  0.
</event>
<event>
 5   0  0.3603037E+08  0.9118800E+02  0.7818608E-02  0.1180000E+00
       11   -1    0    0    0    0  0.00000000000E+00  0.00000000000E+00  0.39999999673E+01  0.40000000000E+01  0.51109989000E-03 0. -1.
     -623   -1    0    0    0    0  0.00000000000E+00  0.00000000000E+00  0.12525980253E-10  0.17130000000E+03  0.17130000000E+03 0.  1.
       11    1    1    2    0    0  0.41751929223E-03 -0.63418754975E-03  0.70228175424E-01  0.70234139570E-01  0.51109989000E-03 0. -1.
     -623    1    1    2    0    0 -0.17276538986E-03 -0.23551932151E-03  0.56929573283E-04  0.17130000000E+03  0.17130000000E+03 0.  1.
      622    1    1    2    0    0 -0.24475390237E-03  0.86970687126E-03  0.39297148624E+01  0.39297658602E+01  0.20000000000E-01 0. -1.
</event>
<event>
 5   0  0.3603037E+08  0.9118800E+02  0.7818608E-02  0.1180000E+00
       11   -1    0    0    0    0  0.00000000000E+00  0.00000000000E+00  0.39999999673E+01  0.40000000000E+01  0.51109989000E-03 0. -1.
     -623   -1    0    0    0    0  0.00000000000E+00  0.00000000000E+00  0.12525980253E-10  0.17130000000E+03  0.17130000000E+03 0.  1.
       11    1    1    2    0    0  0.44493171450E-02  0.14077576354E-01  0.14076862724E+01  0.14077637861E+01  0.51109989000E-03 0. -1.
     -623    1    1    2    0    0  0.63963448154E-03 -0.22250597151E-01  0.17396212568E-03  0.17130000145E+03  0.17130000000E+03 0.  1.
      622    1    1    2    0    0 -0.50889516265E-02  0.81730207967E-02  0.25921397328E+01  0.25922347676E+01  0.20000000000E-01 0.  1.
</event>
<event>
 5   0  0.3603037E+08  0.9118800E+02  0.7818608E-02  0.1180000E+00
       11   -1    0    0    0    0  0.00000000000E+00  0.00000000000E+00  0.39999999673E+01  0.40000000000E+01  0.51109989000E-03 0.  1.
     -623   -1    0    0    0    0  0.00000000000E+00  0.00000000000E+00  0.12525980253E-10  0.17130000000E+03  0.17130000000E+03 0.  1.
       11    1    1    2    0    0 -0.11395531118E-02  0.59957379453E-02  0.54323454294E+00  0.54326906531E+00  0.51109989000E-03 0.  1.
     -623    1    1    2    0    0  0.53707099065E-03  0.47615235232E-03  0.98461010192E-04  0.17130000000E+03  0.17130000000E+03 0.  1.
      622    1    1    2    0    0  0.60248212111E-03 -0.64718902976E-02  0.34566669634E+01  0.34567309332E+01  0.20000000000E-01 0.  1.
</event>
<event>
 5   0  0.3603037E+08  0.9118800E+02  0.7818608E-02  0.1180000E+00
       11   -1    0    0    0    0  0.00000000000E+00  0.00000000000E+00  0.39999999673E+01  0.40000000000E+01  0.51109989000E-03 0.  1.
     -623   -1    0    0    0    0  0.00000000000E+00  0.00000000000E+00  0.12525980253E-10  0.17130000000E+03  0.17130000000E+03 0.  1.
       11    1    1    2    0    0  0.16554254319E-02 -0.53065785480E-02  0.20658618272E+01  0.20658693691E+01  0.51109989000E-03 0.  1.
     -623    1    1    2    0    0 -0.51200556202E-03 -0.86993030252E-04  0.11877731616E-03  0.17130000000E+03  0.17130000000E+03 0.  1.
      622    1    1    2    0    0 -0.11434198699E-02  0.53935715783E-02  0.19340193629E+01  0.19341306300E+01  0.20000000000E-01 0.  1.
</event>
<event>
 5   0  0.3603037E+08  0.9118800E+02  0.7818608E-02  0.1180000E+00
       11   -1    0    0    0    0  0.00000000000E+00  0.00000000000E+00  0.39999999673E+01  0.40000000000E+01  0.51109989000E-03 0.  1.
     -623   -1    0    0    0    0  0.00000000000E+00  0.00000000000E+00  0.12525980253E-10  0.17130000000E+03  0.17130000000E+03 0.  1.
       11    1    1    2    0    0 -0.53120303683E-03 -0.65362403332E-02  0.22965651623E+00  0.22975069376E+00  0.51109989000E-03 0.  1.
     -623    1    1    2    0    0 -0.41747954082E-03  0.14698045397E-03  0.15272601417E-03  0.17130000000E+03  0.17130000000E+03 0.  1.
      622    1    1    2    0    0  0.94868257765E-03  0.63892598792E-02  0.37701907251E+01  0.37702493056E+01  0.20000000000E-01 0.  1.
</event>
<event>
 5   0  0.3603037E+08  0.9118800E+02  0.7818608E-02  0.1180000E+00
       11   -1    0    0    0    0  0.00000000000E+00  0.00000000000E+00  0.39999999673E+01  0.40000000000E+01  0.51109989000E-03 0.  1.
     -623   -1    0    0    0    0  0.00000000000E+00  0.00000000000E+00  0.12525980253E-10  0.17130000000E+03  0.17130000000E+03 0.  1.
       11    1    1    2    0    0  0.35900940911E-02 -0.65796694986E-02  0.18430654304E+01  0.18430807424E+01  0.51109989000E-03 0.  1.
     -623    1    1    2    0    0 -0.16008644747E-04  0.17190156372E-03  0.12048611315E-03  0.17130000000E+03  0.17130000000E+03 0.  1.
      622    1    1    2    0    0 -0.35740854463E-02  0.64077679349E-02  0.21568140508E+01  0.21569192575E+01  0.20000000000E-01 0.  0.
</event>
<event>
 5   0  0.3603037E+08  0.9118800E+02  0.7818608E-02  0.1180000E+00
       11   -1    0    0    0    0  0.00000000000E+00  0.00000000000E+00  0.39999999673E+01  0.40000000000E+01  0.51109989000E-03 0. -1.
     -623   -1    0    0    0    0  0.00000000000E+00  0.00000000000E+00  0.12525980253E-10  0.17130000000E+03  0.17130000000E+03 0.  1.
       11    1    1    2    0    0  0.12531574865E-01  0.15858842377E-01  0.28696142660E+01  0.28696854950E+01  0.51109989000E-03 0. -1.
     -623    1    1    2    0    0  0.71470923507E-02 -0.14238488174E-01  0.42139714248E-03  0.17130000074E+03  0.17130000000E+03 0.  1.
      622    1    1    2    0    0 -0.19678667215E-01 -0.16203542020E-02  0.11299643042E+01  0.11303137637E+01  0.20000000000E-01 0.  1.
</event>
<event>
 5   0  0.3603037E+08  0.9118800E+02  0.7818608E-02  0.1180000E+00
       11   -1    0    0    0    0  0.00000000000E+00  0.00000000000E+00  0.39999999673E+01  0.40000000000E+01  0.51109989000E-03 0.  1.
     -623   -1    0    0    0    0  0.00000000000E+00  0.00000000000E+00  0.12525980253E-10  0.17130000000E+03  0.17130000000E+03 0. -1.
       11    1    1    2    0    0  0.13155652536E-01 -0.66595178863E-03  0.11986694502E+01  0.11987419350E+01  0.51109989000E-03 0.  1.
     -623    1    1    2    0    0  0.74023023336E-02 -0.31099717103E-02  0.22202148280E-03  0.17130000019E+03  0.17130000000E+03 0. -1.
      622    1    1    2    0    0 -0.20557954870E-01  0.37759234989E-02  0.28011084957E+01  0.28012578767E+01  0.20000000000E-01 0.  0.
</event>
<event>
 5   0  0.3603037E+08  0.9118800E+02  0.7818608E-02  0.1180000E+00
       11   -1    0    0    0    0  0.00000000000E+00  0.00000000000E+00  0.39999999673E+01  0.40000000000E+01  0.51109989000E-03 0. -1.
     -623   -1    0    0    0    0  0.00000000000E+00  0.00000000000E+00  0.12525980253E-10  0.17130000000E+03  0.17130000000E+03 0.  1.
       11    1    1    2    0    0 -0.41998405941E-03  0.68008601512E-02  0.73974239114E+00  0.73977394828E+00  0.51109989000E-03 0. -1.
     -623    1    1    2    0    0 -0.13020085480E-02  0.10978491911E-01  0.14216244659E-03  0.17130000036E+03  0.17130000000E+03 0.  1.
      622    1    1    2    0    0  0.17219926074E-02 -0.17779352062E-01  0.32601154138E+01  0.32602256949E+01  0.20000000000E-01 0.  0.
</event>
<event>
 5   0  0.3603037E+08  0.9118800E+02  0.7818608E-02  0.1180000E+00
       11   -1    0    0    0    0  0.00000000000E+00  0.00000000000E+00  0.39999999673E+01  0.40000000000E+01  0.51109989000E-03 0.  1.
     -623   -1    0    0    0    0  0.00000000000E+00  0.00000000000E+00  0.12525980253E-10  0.17130000000E+03  0.17130000000E+03 0. -1.
       11    1    1    2    0    0  0.17424701545E-03  0.95347453035E-04  0.30921055425E-01  0.30925917012E-01  0.51109989000E-03 0.  1.
     -623    1    1    2    0    0 -0.51118899860E-03 -0.45402460997E-03  0.55250734433E-04  0.17130000000E+03  0.17130000000E+03 0. -1.
      622    1    1    2    0    0  0.33694198315E-03  0.35867715693E-03  0.39690236612E+01  0.39690740816E+01  0.20000000000E-01 0.  1.
</event>
<event>
 5   0  0.3603037E+08  0.9118800E+02  0.7818608E-02  0.1180000E+00
       11   -1    0    0    0    0  0.00000000000E+00  0.00000000000E+00  0.39999999673E+01  0.40000000000E+01  0.51109989000E-03 0. -1.
     -623   -1    0    0    0    0  0.00000000000E+00  0.00000000000E+00  0.12525980253E-10  0.17130000000E+03  0.17130000000E+03 0.  1.
       11    1    1    2    0    0  0.18511864602E-02  0.73664858904E-02  0.61708901450E+00  0.61713596966E+00  0.51109989000E-03 0. -1.
     -623    1    1    2    0    0  0.18597479158E-02 -0.11941042172E-02  0.11372545477E-03  0.17130000001E+03  0.17130000000E+03 0.  1.
      622    1    1    2    0    0 -0.37109343760E-02 -0.61723816732E-02  0.33827972274E+01  0.33828640160E+01  0.20000000000E-01 0.  1.
</event>
<event>
 5   0  0.3603037E+08  0.9118800E+02  0.7818608E-02  0.1180000E+00
       11   -1    0    0    0    0  0.00000000000E+00  0.00000000000E+00  0.39999999673E+01  0.40000000000E+01  0.51109989000E-03 0.  1.
     -623   -1    0    0    0    0  0.00000000000E+00  0.00000000000E+00  0.12525980253E-10  0.17130000000E+03  0.17130000000E+03 0.  1.
       11    1    1    2    0    0 -0.10263441139E-01  0.44905089395E-02  0.19389568529E-01  0.22399095606E-01  0.51109989000E-03 0. -1.
     -623    1    1    2    0    0  0.77173421733E-02 -0.29071167399E-02  0.30611322434E-02  0.17130000023E+03  0.17130000000E+03 0.  1.
      622    1    1    2    0    0  0.25460989661E-02 -0.15833921997E-02  0.39775492666E+01  0.39776006785E+01  0.20000000000E-01 0.  1.
</event>
<event>
 5   0  0.3603037E+08  0.9118800E+02  0.7818608E-02  0.1180000E+00
       11   -1    0    0    0    0  0.00000000000E+00  0.00000000000E+00  0.39999999673E+01  0.40000000000E+01  0.51109989000E-03 0. -1.
     -623   -1    0    0    0    0  0.00000000000E+00  0.00000000000E+00  0.12525980253E-10  0.17130000000E+03  0.17130000000E+03 0. -1.
       11    1    1    2    0    0 -0.27263175759E-02 -0.99189753285E-03  0.45455493084E-01  0.45550847855E-01  0.51109989000E-03 0. -1.
     -623    1    1    2    0    0  0.37724663365E-02 -0.50582523318E-03  0.14636275966E-03  0.17130000004E+03  0.17130000000E+03 0. -1.
      622    1    1    2    0    0 -0.10461487606E-02  0.14977227660E-02  0.39543981115E+01  0.39544491098E+01  0.20000000000E-01 0. -1.
</event>
<event>
 5   0  0.3603037E+08  0.9118800E+02  0.7818608E-02  0.1180000E+00
       11   -1    0    0    0    0  0.00000000000E+00  0.00000000000E+00  0.39999999673E+01  0.40000000000E+01  0.51109989000E-03 0.  1.
     -623   -1    0    0    0    0  0.00000000000E+00  0.00000000000E+00  0.12525980253E-10  0.17130000000E+03  0.17130000000E+03 0.  1.
       11    1    1    2    0    0  0.27104891391E-03 -0.99341923689E-03  0.39259046267E-01  0.39275874073E-01  0.51109989000E-03 0.  1.
     -623    1    1    2    0    0 -0.94689913110E-03  0.17528546065E-02  0.67433375961E-04  0.17130000001E+03  0.17130000000E+03 0.  1.
      622    1    1    2    0    0  0.67585021719E-03 -0.75943536959E-03  0.39606734877E+01  0.39607241143E+01  0.20000000000E-01 0.  1.
</event>
<event>
 5   0  0.3603037E+08  0.9118800E+02  0.7818608E-02  0.1180000E+00
       11   -1    0    0    0    0  0.00000000000E+00  0.00000000000E+00  0.39999999673E+01  0.40000000000E+01  0.51109989000E-03 0. -1.
     -623   -1    0    0    0    0  0.00000000000E+00  0.00000000000E+00  0.12525980253E-10  0.17130000000E+03  0.17130000000E+03 0.  1.
       11    1    1    2    0    0  0.30627912596E-02 -0.22046620610E-02  0.27953732109E+00  0.27956325998E+00  0.51109989000E-03 0. -1.
     -623    1    1    2    0    0 -0.10844070246E-02  0.28350781985E-02  0.80270111486E-04  0.17130000003E+03  0.17130000000E+03 0.  1.
      622    1    1    2    0    0 -0.19783842350E-02 -0.63041613756E-03  0.37203823762E+01  0.37204367131E+01  0.20000000000E-01 0. -1.
</event>
<event>
 5   0  0.3603037E+08  0.9118800E+02  0.7818608E-02  0.1180000E+00
       11   -1    0    0    0    0  0.00000000000E+00  0.00000000000E+00  0.39999999673E+01  0.40000000000E+01  0.51109989000E-03 0.  1.
     -623   -1    0    0    0    0  0.00000000000E+00  0.00000000000E+00  0.12525980253E-10  0.17130000000E+03  0.17130000000E+03 0.  1.
       11    1    1    2    0    0  0.56621965456E-03 -0.17034185482E-02  0.16226322043E+00  0.16227395406E+00  0.51109989000E-03 0.  1.
     -623    1    1    2    0    0 -0.33203392435E-04  0.16452561196E-04  0.63223346355E-04  0.17130000000E+03  0.17130000000E+03 0.  1.
      622    1    1    2    0    0 -0.53301626212E-03  0.16869659870E-02  0.38376735236E+01  0.38377260459E+01  0.20000000000E-01 0.  1.
</event>
<event>
 5   0  0.3603037E+08  0.9118800E+02  0.7818608E-02  0.1180000E+00
       11   -1    0    0    0    0  0.00000000000E+00  0.00000000000E+00  0.39999999673E+01  0.40000000000E+01  0.51109989000E-03 0. -1.
     -623   -1    0    0    0    0  0.00000000000E+00  0.00000000000E+00  0.12525980253E-10  0.17130000000E+03  0.17130000000E+03 0.  1.
       11    1    1    2    0    0  0.31390137227E-03 -0.16931181620E-02  0.70188190183E-01  0.70211170373E-01  0.51109989000E-03 0. -1.
     -623    1    1    2    0    0  0.23726191007E-03  0.10267447223E-02  0.73939607796E-04  0.17130000000E+03  0.17130000000E+03 0.  1.
      622    1    1    2    0    0 -0.55116328233E-03  0.66637343973E-03  0.39297378376E+01  0.39297888264E+01  0.20000000000E-01 0. -1.
</event>
<event>
 5   0  0.3603037E+08  0.9118800E+02  0.7818608E-02  0.1180000E+00
       11   -1    0    0    0    0  0.00000000000E+00  0.00000000000E+00  0.39999999673E+01  0.40000000000E+01  0.51109989000E-03 0.  1.
     -623   -1    0    0    0    0  0.00000000000E+00  0.00000000000E+00  0.12525980253E-10  0.17130000000E+03  0.17130000000E+03 0.  1.
       11    1    1    2    0    0  0.30163120021E-02  0.86981130625E-04  0.14719450762E-01  0.15034266069E-01  0.51109989000E-03 0.  1.
     -623    1    1    2    0    0 -0.89185446013E-03  0.34193273978E-03  0.36556405654E-03  0.17130000000E+03  0.17130000000E+03 0.  1.
      622    1    1    2    0    0 -0.21244575420E-02 -0.42891387040E-03  0.39849149525E+01  0.39849657309E+01  0.20000000000E-01 0.  1.
</event>
<event>
 5   0  0.3603037E+08  0.9118800E+02  0.7818608E-02  0.1180000E+00
       11   -1    0    0    0    0  0.00000000000E+00  0.00000000000E+00  0.39999999673E+01  0.40000000000E+01  0.51109989000E-03 0. -1.
     -623   -1    0    0    0    0  0.00000000000E+00  0.00000000000E+00  0.12525980253E-10  0.17130000000E+03  0.17130000000E+03 0.  1.
       11    1    1    2    0    0 -0.15931983710E-02  0.63225436981E-03  0.33241722012E+00  0.33242203218E+00  0.51109989000E-03 0. -1.
     -623    1    1    2    0    0 -0.15802233381E-02 -0.14420649302E-02  0.60787448122E-04  0.17130000001E+03  0.17130000000E+03 0.  1.
      622    1    1    2    0    0  0.31734217091E-02  0.80981056036E-03  0.36675219598E+01  0.36675779544E+01  0.20000000000E-01 0. -1.
</event>
<event>
 5   0  0.3603037E+08  0.9118800E+02  0.7818608E-02  0.1180000E+00
       11   -1    0    0    0    0  0.00000000000E+00  0.00000000000E+00  0.39999999673E+01  0.40000000000E+01  0.51109989000E-03 0.  1.
     -623   -1    0    0    0    0  0.00000000000E+00  0.00000000000E+00  0.12525980253E-10  0.17130000000E+03  0.17130000000E+03 0.  1.
       11    1    1    2    0    0 -0.14160455789E-02 -0.42700815540E-02  0.34948093264E+00  0.34951026063E+00  0.51109989000E-03 0.  1.
     -623    1    1    2    0    0 -0.36993339607E-03  0.63655648161E-04  0.86943802819E-04  0.17130000000E+03  0.17130000000E+03 0.  1.
      622    1    1    2    0    0  0.17859789749E-02  0.42064259059E-02  0.36504320909E+01  0.36504897389E+01  0.20000000000E-01 0.  1.
</event>
<event>
 5   0  0.3603037E+08  0.9118800E+02  0.7818608E-02  0.1180000E+00
       11   -1    0    0    0    0  0.00000000000E+00  0.00000000000E+00  0.39999999673E+01  0.40000000000E+01  0.51109989000E-03 0.  1.
     -623   -1    0    0    0    0  0.00000000000E+00  0.00000000000E+00  0.12525980253E-10  0.17130000000E+03  0.17130000000E+03 0. -1.
       11    1    1    2    0    0  0.71273552906E-03 -0.50630511052E-03  0.19332690180E-02  0.21824497495E-02  0.51109989000E-03 0. -1.
     -623    1    1    2    0    0  0.26359432896E-03 -0.44377871125E-03  0.29940885386E-03  0.17130000000E+03  0.17130000000E+03 0. -1.
      622    1    1    2    0    0 -0.97632985802E-03  0.95008382177E-03  0.39977672895E+01  0.39978175492E+01  0.20000000000E-01 0.  1.
</event>
<event>
 5   0  0.3603037E+08  0.9118800E+02  0.7818608E-02  0.1180000E+00
       11   -1    0    0    0    0  0.00000000000E+00  0.00000000000E+00  0.39999999673E+01  0.40000000000E+01  0.51109989000E-03 0.  1.
     -623   -1    0    0    0    0  0.00000000000E+00  0.00000000000E+00  0.12525980253E-10  0.17130000000E+03  0.17130000000E+03 0. -1.
       11    1    1    2    0    0  0.67006367927E-04 -0.38636628760E-02  0.20793231157E+01  0.20793267692E+01  0.51109989000E-03 0.  1.
     -623    1    1    2    0    0 -0.34183542851E-02 -0.13268033675E-02  0.11773094781E-03  0.17130000004E+03  0.17130000000E+03 0. -1.
      622    1    1    2    0    0  0.33513479171E-02  0.51904662435E-02  0.19205591207E+01  0.19206731915E+01  0.20000000000E-01 0.  0.
</event>
<event>
 5   0  0.3603037E+08  0.9118800E+02  0.7818608E-02  0.1180000E+00
       11   -1    0    0    0    0  0.00000000000E+00  0.00000000000E+00  0.39999999673E+01  0.40000000000E+01  0.51109989000E-03 0. -1.
     -623   -1    0    0    0    0  0.00000000000E+00  0.00000000000E+00  0.12525980253E-10  0.17130000000E+03  0.17130000000E+03 0.  1.
       11    1    1    2    0    0 -0.51821198145E-02 -0.20562253236E-01  0.30916130910E+01  0.30916858550E+01  0.51109989000E-03 0. -1.
     -623    1    1    2    0    0  0.30367798476E-02  0.57320598166E-03  0.51553669867E-03  0.17130000003E+03  0.17130000000E+03 0.  1.
      622    1    1    2    0    0  0.21453399670E-02  0.19989047254E-01  0.90787133971E+00  0.90831411635E+00  0.20000000000E-01 0.  0.
</event>
<event>
 5   0  0.3603037E+08  0.9118800E+02  0.7818608E-02  0.1180000E+00
       11   -1    0    0    0    0  0.00000000000E+00  0.00000000000E+00  0.39999999673E+01  0.40000000000E+01  0.51109989000E-03 0. -1.
     -623   -1    0    0    0    0  0.00000000000E+00  0.00000000000E+00  0.12525980253E-10  0.17130000000E+03  0.17130000000E+03 0. -1.
       11    1    1    2    0    0 -0.32707425959E-02 -0.38904416052E-02  0.79969567894E+00  0.79971199406E+00  0.51109989000E-03 0. -1.
     -623    1    1    2    0    0 -0.36145278901E-02  0.22577752220E-02  0.86653787646E-04  0.17130000005E+03  0.17130000000E+03 0. -1.
      622    1    1    2    0    0  0.68852704860E-02  0.16326663832E-02  0.32002176346E+01  0.32002879529E+01  0.20000000000E-01 0. -1.
</event>
<event>
 5   0  0.3603037E+08  0.9118800E+02  0.7818608E-02  0.1180000E+00
       11   -1    0    0    0    0  0.00000000000E+00  0.00000000000E+00  0.39999999673E+01  0.40000000000E+01  0.51109989000E-03 0. -1.
     -623   -1    0    0    0    0  0.00000000000E+00  0.00000000000E+00  0.12525980253E-10  0.17130000000E+03  0.17130000000E+03 0. -1.
       11    1    1    2    0    0  0.12677993364E-02 -0.68614668325E-03  0.57430787624E-02  0.59432555686E-02  0.51109989000E-03 0. -1.
     -623    1    1    2    0    0  0.60890521242E-04 -0.31307839909E-03  0.25056536352E-03  0.17130000000E+03  0.17130000000E+03 0. -1.
      622    1    1    2    0    0 -0.13286898576E-02  0.99922508234E-03  0.39940063232E+01  0.39940567440E+01  0.20000000000E-01 0. -1.
</event>
<event>
 5   0  0.3603037E+08  0.9118800E+02  0.7818608E-02  0.1180000E+00
       11   -1    0    0    0    0  0.00000000000E+00  0.00000000000E+00  0.39999999673E+01  0.40000000000E+01  0.51109989000E-03 0.  1.
     -623   -1    0    0    0    0  0.00000000000E+00  0.00000000000E+00  0.12525980253E-10  0.17130000000E+03  0.17130000000E+03 0. -1.
       11    1    1    2    0    0 -0.19999519959E-02 -0.15819228012E-02  0.57870482399E-01  0.57928889534E-01  0.51109989000E-03 0.  1.
     -623    1    1    2    0    0 -0.80983369409E-04  0.23175646210E-03  0.10989025265E-03  0.17130000000E+03  0.17130000000E+03 0. -1.
      622    1    1    2    0    0  0.20809353653E-02  0.13501663391E-02  0.39420195947E+01  0.39420711103E+01  0.20000000000E-01 0.  1.
</event>
<event>
 5   0  0.3603037E+08  0.9118800E+02  0.7818608E-02  0.1180000E+00
       11   -1    0    0    0    0  0.00000000000E+00  0.00000000000E+00  0.39999999673E+01  0.40000000000E+01  0.51109989000E-03 0. -1.
     -623   -1    0    0    0    0  0.00000000000E+00  0.00000000000E+00  0.12525980253E-10  0.17130000000E+03  0.17130000000E+03 0.  1.
       11    1    1    2    0    0 -0.15922128385E-02  0.38550571741E-02  0.75388272401E-01  0.75505294155E-01  0.51109989000E-03 0. -1.
     -623    1    1    2    0    0  0.19956749137E-02 -0.93189253687E-03  0.16907507820E-03  0.17130000001E+03  0.17130000000E+03 0.  1.
      622    1    1    2    0    0 -0.40346207518E-03 -0.29231646372E-02  0.39244426199E+01  0.39244946916E+01  0.20000000000E-01 0. -1.
</event>
<event>
 5   0  0.3603037E+08  0.9118800E+02  0.7818608E-02  0.1180000E+00
       11   -1    0    0    0    0  0.00000000000E+00  0.00000000000E+00  0.39999999673E+01  0.40000000000E+01  0.51109989000E-03 0. -1.
     -623   -1    0    0    0    0  0.00000000000E+00  0.00000000000E+00  0.12525980253E-10  0.17130000000E+03  0.17130000000E+03 0. -1.
       11    1    1    2    0    0  0.35199456861E-03  0.83102319562E-04  0.75206997257E-02  0.75467179239E-02  0.51109989000E-03 0. -1.
     -623    1    1    2    0    0  0.13405261040E-02  0.11943611546E-02  0.76652947864E-04  0.17130000001E+03  0.17130000000E+03 0. -1.
      622    1    1    2    0    0 -0.16925206727E-02 -0.12774634742E-02  0.39924026147E+01  0.39924532727E+01  0.20000000000E-01 0. -1.
</event>
<event>
 5   0  0.3603037E+08  0.9118800E+02  0.7818608E-02  0.1180000E+00
       11   -1    0    0    0    0  0.00000000000E+00  0.00000000000E+00  0.39999999673E+01  0.40000000000E+01  0.51109989000E-03 0.  1.
     -623   -1    0    0    0    0  0.00000000000E+00  0.00000000000E+00  0.12525980253E-10  0.17130000000E+03  0.17130000000E+03 0.  1.
       11    1    1    2    0    0 -0.19228704453E-02 -0.39795786684E-02  0.73391634505E-01  0.73526374265E-01  0.51109989000E-03 0.  1.
     -623    1    1    2    0    0 -0.15037502239E-03  0.36609219027E-03  0.18785440881E-03  0.17130000000E+03  0.17130000000E+03 0.  1.
      622    1    1    2    0    0  0.20732454677E-02  0.36134864781E-02  0.39264204784E+01  0.39264736252E+01  0.20000000000E-01 0.  1.
</event>
<event>
 5   0  0.3603037E+08  0.9118800E+02  0.7818608E-02  0.1180000E+00
       11   -1    0    0    0    0  0.00000000000E+00  0.00000000000E+00  0.39999999673E+01  0.40000000000E+01  0.51109989000E-03 0. -1.
     -623   -1    0    0    0    0  0.00000000000E+00  0.00000000000E+00  0.12525980253E-10  0.17130000000E+03  0.17130000000E+03 0.  1.
       11    1    1    2    0    0  0.64831824347E-02  0.57720653212E-03  0.20861620010E+01  0.20861722174E+01  0.51109989000E-03 0. -1.
     -623    1    1    2    0    0 -0.17805590404E-02  0.19320118172E-03  0.12063158120E-03  0.17130000001E+03  0.17130000000E+03 0.  1.
      622    1    1    2    0    0 -0.47026233943E-02 -0.77040771383E-03  0.19137173347E+01  0.19138277732E+01  0.20000000000E-01 0.  0.
</event>
<event>
 5   0  0.3603037E+08  0.9118800E+02  0.7818608E-02  0.1180000E+00
       11   -1    0    0    0    0  0.00000000000E+00  0.00000000000E+00  0.39999999673E+01  0.40000000000E+01  0.51109989000E-03 0.  1.
     -623   -1    0    0    0    0  0.00000000000E+00  0.00000000000E+00  0.12525980253E-10  0.17130000000E+03  0.17130000000E+03 0.  1.
       11    1    1    2    0    0 -0.68410971745E-05 -0.62213731344E-03  0.73576372959E-01  0.73580778616E-01  0.51109989000E-03 0.  1.
     -623    1    1    2    0    0 -0.10018899270E-02  0.17025794926E-02  0.55599976289E-04  0.17130000001E+03  0.17130000000E+03 0.  1.
      622    1    1    2    0    0  0.10087310242E-02 -0.10804421791E-02  0.39263679944E+01  0.39264192100E+01  0.20000000000E-01 0.  1.
</event>
<event>
 5   0  0.3603037E+08  0.9118800E+02  0.7818608E-02  0.1180000E+00
       11   -1    0    0    0    0  0.00000000000E+00  0.00000000000E+00  0.39999999673E+01  0.40000000000E+01  0.51109989000E-03 0. -1.
     -623   -1    0    0    0    0  0.00000000000E+00  0.00000000000E+00  0.12525980253E-10  0.17130000000E+03  0.17130000000E+03 0. -1.
       11    1    1    2    0    0  0.18083885541E-02  0.42296624683E-02  0.39792258971E-01  0.40060521833E-01  0.51109989000E-03 0. -1.
     -623    1    1    2    0    0 -0.66730006161E-03 -0.65532363561E-04  0.32109184127E-03  0.17130000000E+03  0.17130000000E+03 0. -1.
      622    1    1    2    0    0 -0.11410884925E-02 -0.41641301047E-02  0.39598866165E+01  0.39599394766E+01  0.20000000000E-01 0. -1.
</event>
<event>
 5   0  0.3603037E+08  0.9118800E+02  0.7818608E-02  0.1180000E+00
       11   -1    0    0    0    0  0.00000000000E+00  0.00000000000E+00  0.39999999673E+01  0.40000000000E+01  0.51109989000E-03 0.  1.
     -623   -1    0    0    0    0  0.00000000000E+00  0.00000000000E+00  0.12525980253E-10  0.17130000000E+03  0.17130000000E+03 0. -1.
       11    1    1    2    0    0 -0.10841899340E-02 -0.40756280426E-03  0.15094310157E+00  0.15094841075E+00  0.51109989000E-03 0.  1.
     -623    1    1    2    0    0  0.65811480576E-04  0.70965154493E-04  0.57387216782E-04  0.17130000000E+03  0.17130000000E+03 0. -1.
      622    1    1    2    0    0  0.10183784534E-02  0.33659764977E-03  0.38489994786E+01  0.38490515892E+01  0.20000000000E-01 0.  1.
</event>
<event>
 5   0  0.3603037E+08  0.9118800E+02  0.7818608E-02  0.1180000E+00
       11   -1    0    0    0    0  0.00000000000E+00  0.00000000000E+00  0.39999999673E+01  0.40000000000E+01  0.51109989000E-03 0. -1.
     -623   -1    0    0    0    0  0.00000000000E+00  0.00000000000E+00  0.12525980253E-10  0.17130000000E+03  0.17130000000E+03 0. -1.
       11    1    1    2    0    0 -0.33281322446E-03 -0.29008003272E-04  0.99684702072E-02  0.99871530642E-02  0.51109989000E-03 0. -1.
     -623    1    1    2    0    0 -0.59616313159E-03  0.76582905437E-03  0.68954626856E-04  0.17130000000E+03  0.17130000000E+03 0. -1.
      622    1    1    2    0    0  0.92897635605E-03 -0.73682105110E-03  0.39899625425E+01  0.39900128442E+01  0.20000000000E-01 0. -1.
</event>
<event>
 5   0  0.3603037E+08  0.9118800E+02  0.7818608E-02  0.1180000E+00
       11   -1    0    0    0    0  0.00000000000E+00  0.00000000000E+00  0.39999999673E+01  0.40000000000E+01  0.51109989000E-03 0. -1.
     -623   -1    0    0    0    0  0.00000000000E+00  0.00000000000E+00  0.12525980253E-10  0.17130000000E+03  0.17130000000E+03 0.  1.
       11    1    1    2    0    0  0.15970190996E-02 -0.41572879896E-02  0.49625286887E+00  0.49627311492E+00  0.51109989000E-03 0. -1.
     -623    1    1    2    0    0 -0.30782936969E-02 -0.11737874844E-02  0.81696582166E-04  0.17130000003E+03  0.17130000000E+03 0.  1.
      622    1    1    2    0    0  0.14812745973E-02  0.53310754740E-02  0.35036654019E+01  0.35037268534E+01  0.20000000000E-01 0. -1.
</event>
<event>
 5   0  0.3603037E+08  0.9118800E+02  0.7818608E-02  0.1180000E+00
       11   -1    0    0    0    0  0.00000000000E+00  0.00000000000E+00  0.39999999673E+01  0.40000000000E+01  0.51109989000E-03 0.  1.
     -623   -1    0    0    0    0  0.00000000000E+00  0.00000000000E+00  0.12525980253E-10  0.17130000000E+03  0.17130000000E+03 0.  1.
       11    1    1    2    0    0 -0.18219873348E-01  0.15329631395E-01  0.12802310412E+01  0.12804525533E+01  0.51109989000E-03 0.  1.
     -623    1    1    2    0    0 -0.27758206165E-03 -0.39419446587E-03  0.39894672252E-03  0.17130000000E+03  0.17130000000E+03 0.  1.
      622    1    1    2    0    0  0.18497455410E-01 -0.14935436929E-01  0.27193699795E+01  0.27195474455E+01  0.20000000000E-01 0.  1.
</event>
<event>
 5   0  0.3603037E+08  0.9118800E+02  0.7818608E-02  0.1180000E+00
       11   -1    0    0    0    0  0.00000000000E+00  0.00000000000E+00  0.39999999673E+01  0.40000000000E+01  0.51109989000E-03 0.  1.
     -623   -1    0    0    0    0  0.00000000000E+00  0.00000000000E+00  0.12525980253E-10  0.17130000000E+03  0.17130000000E+03 0. -1.
       11    1    1    2    0    0 -0.52683498663E-02 -0.10624151211E-02  0.89946673644E-01  0.90108543204E-01  0.51109989000E-03 0.  1.
     -623    1    1    2    0    0  0.15775981760E-02 -0.61257298279E-03  0.21509881965E-03  0.17130000001E+03  0.17130000000E+03 0. -1.
      622    1    1    2    0    0  0.36907516903E-02  0.16749881039E-02  0.39098381949E+01  0.39098914483E+01  0.20000000000E-01 0.  1.
</event>
<event>
 5   0  0.3603037E+08  0.9118800E+02  0.7818608E-02  0.1180000E+00
       11   -1    0    0    0    0  0.00000000000E+00  0.00000000000E+00  0.39999999673E+01  0.40000000000E+01  0.51109989000E-03 0. -1.
     -623   -1    0    0    0    0  0.00000000000E+00  0.00000000000E+00  0.12525980253E-10  0.17130000000E+03  0.17130000000E+03 0. -1.
       11    1    1    2    0    0  0.12644229145E-01 -0.14706241954E-02  0.22106492799E+00  0.22143171154E+00  0.51109989000E-03 0. -1.
     -623    1    1    2    0    0 -0.20496021250E-02  0.78882627291E-02  0.44017912720E-03  0.17130000019E+03  0.17130000000E+03 0. -1.
      622    1    1    2    0    0 -0.10594627020E-01 -0.64176385337E-02  0.37784948602E+01  0.37785680940E+01  0.20000000000E-01 0. -1.
</event>
<event>
 5   0  0.3603037E+08  0.9118800E+02  0.7818608E-02  0.1180000E+00
       11   -1    0    0    0    0  0.00000000000E+00  0.00000000000E+00  0.39999999673E+01  0.40000000000E+01  0.51109989000E-03 0.  1.
     -623   -1    0    0    0    0  0.00000000000E+00  0.00000000000E+00  0.12525980253E-10  0.17130000000E+03  0.17130000000E+03 0. -1.
       11    1    1    2    0    0 -0.16932898083E-02 -0.95029361954E-02  0.80808269804E+00  0.80814050828E+00  0.51109989000E-03 0.  1.
     -623    1    1    2    0    0 -0.57964882385E-03 -0.63193189062E-03  0.13733971373E-03  0.17130000000E+03  0.17130000000E+03 0. -1.
      622    1    1    2    0    0  0.22729386321E-02  0.10134868086E-01  0.31917799296E+01  0.31918594895E+01  0.20000000000E-01 0.  0.
</event>
<event>
 5   0  0.3603037E+08  0.9118800E+02  0.7818608E-02  0.1180000E+00
       11   -1    0    0    0    0  0.00000000000E+00  0.00000000000E+00  0.39999999673E+01  0.40000000000E+01  0.51109989000E-03 0. -1.
     -623   -1    0    0    0    0  0.00000000000E+00  0.00000000000E+00  0.12525980253E-10  0.17130000000E+03  0.17130000000E+03 0.  1.
       11    1    1    2    0    0 -0.39603503448E-02  0.23443293984E-03  0.57264197001E+00  0.57265594066E+00  0.51109989000E-03 0. -1.
     -623    1    1    2    0    0  0.57280287056E-03  0.48335344691E-03  0.74043684657E-04  0.17130000000E+03  0.17130000000E+03 0.  1.
      622    1    1    2    0    0  0.33875474742E-02 -0.71778638675E-03  0.34272839537E+01  0.34273440577E+01  0.20000000000E-01 0. -1.
</event>
<event>
 5   0  0.3603037E+08  0.9118800E+02  0.7818608E-02  0.1180000E+00
       11   -1    0    0    0    0  0.00000000000E+00  0.00000000000E+00  0.39999999673E+01  0.40000000000E+01  0.51109989000E-03 0. -1.
     -623   -1    0    0    0    0  0.00000000000E+00  0.00000000000E+00  0.12525980253E-10  0.17130000000E+03  0.17130000000E+03 0. -1.
       11    1    1    2    0    0  0.43568997337E-02 -0.31236981584E-03  0.83391812399E-01  0.83507698727E-01  0.51109989000E-03 0. -1.
     -623    1    1    2    0    0  0.60833639835E-03  0.35411094507E-02  0.17143623675E-03  0.17130000004E+03  0.17130000000E+03 0. -1.
      622    1    1    2    0    0 -0.49652361321E-02 -0.32287396348E-02  0.39164367187E+01  0.39164922635E+01  0.20000000000E-01 0. -1.
</event>
<event>
 5   0  0.3603037E+08  0.9118800E+02  0.7818608E-02  0.1180000E+00
       11   -1    0    0    0    0  0.00000000000E+00  0.00000000000E+00  0.39999999673E+01  0.40000000000E+01  0.51109989000E-03 0.  1.
     -623   -1    0    0    0    0  0.00000000000E+00  0.00000000000E+00  0.12525980253E-10  0.17130000000E+03  0.17130000000E+03 0. -1.
       11    1    1    2    0    0 -0.75715139510E-03  0.23295918576E-03  0.25679657046E+00  0.25679830095E+00  0.51109989000E-03 0.  1.
     -623    1    1    2    0    0  0.87111128474E-05 -0.27106002988E-04  0.55208923680E-04  0.17130000000E+03  0.17130000000E+03 0. -1.
      622    1    1    2    0    0  0.74844028226E-03 -0.20585318277E-03  0.37431481880E+01  0.37432016990E+01  0.20000000000E-01 0.  1.
</event>
<event>
 5   0  0.3603037E+08  0.9118800E+02  0.7818608E-02  0.1180000E+00
       11   -1    0    0    0    0  0.00000000000E+00  0.00000000000E+00  0.39999999673E+01  0.40000000000E+01  0.51109989000E-03 0. -1.
     -623   -1    0    0    0    0  0.00000000000E+00  0.00000000000E+00  0.12525980253E-10  0.17130000000E+03  0.17130000000E+03 0.  1.
       11    1    1    2    0    0  0.11084560773E-02  0.87315735025E-03  0.71533637098E-01  0.71549378312E-01  0.51109989000E-03 0. -1.
     -623    1    1    2    0    0  0.29198199911E-02 -0.41529243298E-02  0.70129264344E-04  0.17130000008E+03  0.17130000000E+03 0.  1.
      622    1    1    2    0    0 -0.40282760684E-02  0.32797669796E-02  0.39283962010E+01  0.39284505464E+01  0.20000000000E-01 0.  0.
</event>
<event>
 5   0  0.3603037E+08  0.9118800E+02  0.7818608E-02  0.1180000E+00
       11   -1    0    0    0    0  0.00000000000E+00  0.00000000000E+00  0.39999999673E+01  0.40000000000E+01  0.51109989000E-03 0.  1.
     -623   -1    0    0    0    0  0.00000000000E+00  0.00000000000E+00  0.12525980253E-10  0.17130000000E+03  0.17130000000E+03 0. -1.
       11    1    1    2    0    0  0.41569610266E-02 -0.19974562006E-02  0.55091962180E+00  0.55093916276E+00  0.51109989000E-03 0.  1.
     -623    1    1    2    0    0 -0.61336158685E-03  0.30186621063E-02  0.79494901053E-04  0.17130000003E+03  0.17130000000E+03 0. -1.
      622    1    1    2    0    0 -0.35435994397E-02 -0.10212059056E-02  0.34490008507E+01  0.34490608095E+01  0.20000000000E-01 0.  1.
</event>
<event>
 5   0  0.3603037E+08  0.9118800E+02  0.7818608E-02  0.1180000E+00
       11   -1    0    0    0    0  0.00000000000E+00  0.00000000000E+00  0.39999999673E+01  0.40000000000E+01  0.51109989000E-03 0. -1.
     -623   -1    0    0    0    0  0.00000000000E+00  0.00000000000E+00  0.12525980253E-10  0.17130000000E+03  0.17130000000E+03 0.  1.
       11    1    1    2    0    0  0.63063546234E-03  0.20300869292E-01  0.40768061305E-01  0.45550181548E-01  0.51109989000E-03 0. -1.
     -623    1    1    2    0    0 -0.54411108794E-02 -0.16163900441E-01  0.48386711704E-02  0.17130000092E+03  0.17130000000E+03 0.  1.
      622    1    1    2    0    0  0.48104754171E-02 -0.41369688508E-02  0.39543932349E+01  0.39544489011E+01  0.20000000000E-01 0. -1.
</event>
<event>
 5   0  0.3603037E+08  0.9118800E+02  0.7818608E-02  0.1180000E+00
       11   -1    0    0    0    0  0.00000000000E+00  0.00000000000E+00  0.39999999673E+01  0.40000000000E+01  0.51109989000E-03 0. -1.
     -623   -1    0    0    0    0  0.00000000000E+00  0.00000000000E+00  0.12525980253E-10  0.17130000000E+03  0.17130000000E+03 0.  1.
       11    1    1    2    0    0 -0.42104563009E-02  0.79906221713E-03  0.52988301435E-01  0.53163782349E-01  0.51109989000E-03 0. -1.
     -623    1    1    2    0    0  0.37540840916E-02 -0.20098354058E-02  0.22638727638E-03  0.17130000005E+03  0.17130000000E+03 0.  1.
      622    1    1    2    0    0  0.45637220934E-03  0.12107731887E-02  0.39467852786E+01  0.39468361646E+01  0.20000000000E-01 0. -1.
</event>
<event>
 5   0  0.3603037E+08  0.9118800E+02  0.7818608E-02  0.1180000E+00
       11   -1    0    0    0    0  0.00000000000E+00  0.00000000000E+00  0.39999999673E+01  0.40000000000E+01  0.51109989000E-03 0.  1.
     -623   -1    0    0    0    0  0.00000000000E+00  0.00000000000E+00  0.12525980253E-10  0.17130000000E+03  0.17130000000E+03 0.  1.
       11    1    1    2    0    0 -0.99230050729E-02 -0.19241008032E-03  0.68950393744E+00  0.68957555352E+00  0.51109989000E-03 0.  1.
     -623    1    1    2    0    0  0.33822441748E-02 -0.88416287683E-02  0.15104968628E-03  0.17130000026E+03  0.17130000000E+03 0.  1.
      622    1    1    2    0    0  0.65407608981E-02  0.90340388486E-02  0.33103449802E+01  0.33104241848E+01  0.20000000000E-01 0.  1.
</event>
<event>
 5   0  0.3603037E+08  0.9118800E+02  0.7818608E-02  0.1180000E+00
       11   -1    0    0    0    0  0.00000000000E+00  0.00000000000E+00  0.39999999673E+01  0.40000000000E+01  0.51109989000E-03 0.  1.
     -623   -1    0    0    0    0  0.00000000000E+00  0.00000000000E+00  0.12525980253E-10  0.17130000000E+03  0.17130000000E+03 0.  1.
       11    1    1    2    0    0  0.10789353120E-04  0.12638921345E-03  0.33712175431E-01  0.33716288095E-01  0.51109989000E-03 0.  1.
     -623    1    1    2    0    0  0.18523959464E-03  0.49750146489E-04  0.54514251825E-04  0.17130000000E+03  0.17130000000E+03 0.  1.
      622    1    1    2    0    0 -0.19602894776E-03 -0.17613935994E-03  0.39662332777E+01  0.39662837118E+01  0.20000000000E-01 0.  1.
</event>
<event>
 5   0  0.3603037E+08  0.9118800E+02  0.7818608E-02  0.1180000E+00
       11   -1    0    0    0    0  0.00000000000E+00  0.00000000000E+00  0.39999999673E+01  0.40000000000E+01  0.51109989000E-03 0.  1.
     -623   -1    0    0    0    0  0.00000000000E+00  0.00000000000E+00  0.12525980253E-10  0.17130000000E+03  0.17130000000E+03 0.  1.
       11    1    1    2    0    0 -0.16985258097E-03 -0.18079013015E-04  0.44095584908E-01  0.44098877600E-01  0.51109989000E-03 0.  1.
     -623    1    1    2    0    0 -0.10297794017E-04 -0.86863876379E-04  0.53823280831E-04  0.17130000000E+03  0.17130000000E+03 0.  1.
      622    1    1    2    0    0  0.18015037499E-03  0.10494288939E-03  0.39558505592E+01  0.39559011224E+01  0.20000000000E-01 0.  1.
</event>
<event>
 5   0  0.3603037E+08  0.9118800E+02  0.7818608E-02  0.1180000E+00
       11   -1    0    0    0    0  0.00000000000E+00  0.00000000000E+00  0.39999999673E+01  0.40000000000E+01  0.51109989000E-03 0.  1.
     -623   -1    0    0    0    0  0.00000000000E+00  0.00000000000E+00  0.12525980253E-10  0.17130000000E+03  0.17130000000E+03 0.  1.
       11    1    1    2    0    0 -0.16182461997E-01 -0.12827324347E-01  0.33271575583E+01  0.33272216775E+01  0.51109989000E-03 0.  1.
     -623    1    1    2    0    0  0.39138909002E-03 -0.12055355793E-02  0.69333045465E-03  0.17130000001E+03  0.17130000000E+03 0.  1.
      622    1    1    2    0    0  0.15791072907E-01  0.14032859926E-01  0.67214907862E+00  0.67277831641E+00  0.20000000000E-01 0.  0.
</event>
<event>
 5   0  0.3603037E+08  0.9118800E+02  0.7818608E-02  0.1180000E+00
       11   -1    0    0    0    0  0.00000000000E+00  0.00000000000E+00  0.39999999673E+01  0.40000000000E+01  0.51109989000E-03 0.  1.
     -623   -1    0    0    0    0  0.00000000000E+00  0.00000000000E+00  0.12525980253E-10  0.17130000000E+03  0.17130000000E+03 0. -1.
       11    1    1    2    0    0 -0.70061178652E-03  0.37135635725E-03  0.36134507381E-02  0.37345697339E-02  0.51109989000E-03 0. -1.
     -623    1    1    2    0    0 -0.25732760776E-03  0.20291018478E-04  0.17126768133E-03  0.17130000000E+03  0.17130000000E+03 0. -1.
      622    1    1    2    0    0  0.95793939428E-03 -0.39164737573E-03  0.39962152489E+01  0.39962654300E+01  0.20000000000E-01 0.  1.
</event>
<event>
 5   0  0.3603037E+08  0.9118800E+02  0.7818608E-02  0.1180000E+00
       11   -1    0    0    0    0  0.00000000000E+00  0.00000000000E+00  0.39999999673E+01  0.40000000000E+01  0.51109989000E-03 0.  1.
     -623   -1    0    0    0    0  0.00000000000E+00  0.00000000000E+00  0.12525980253E-10  0.17130000000E+03  0.17130000000E+03 0. -1.
       11    1    1    2    0    0 -0.25031754429E-02 -0.92382305865E-03  0.19283282675E-01  0.19473714299E-01  0.51109989000E-03 0.  1.
     -623    1    1    2    0    0 -0.87298513931E-05 -0.54320422840E-03  0.24170786382E-03  0.17130000000E+03  0.17130000000E+03 0. -1.
      622    1    1    2    0    0  0.25119052942E-02  0.14670272870E-02  0.39804749768E+01  0.39805262847E+01  0.20000000000E-01 0.  1.
</event>
<event>
 5   0  0.3603037E+08  0.9118800E+02  0.7818608E-02  0.1180000E+00
       11   -1    0    0    0    0  0.00000000000E+00  0.00000000000E+00  0.39999999673E+01  0.40000000000E+01  0.51109989000E-03 0.  1.
     -623   -1    0    0    0    0  0.00000000000E+00  0.00000000000E+00  0.12525980253E-10  0.17130000000E+03  0.17130000000E+03 0. -1.
       11    1    1    2    0    0  0.20815917145E-02  0.16389299256E-01  0.89320060199E+00  0.89335352396E+00  0.51109989000E-03 0.  1.
     -623    1    1    2    0    0  0.95718917077E-03 -0.10428689021E-03  0.26144137365E-03  0.17130000000E+03  0.17130000000E+03 0. -1.
      622    1    1    2    0    0 -0.30387808853E-02 -0.16285012366E-01  0.31065379240E+01  0.31066464731E+01  0.20000000000E-01 0.  1.
</event>
<event>
 5   0  0.3603037E+08  0.9118800E+02  0.7818608E-02  0.1180000E+00
       11   -1    0    0    0    0  0.00000000000E+00  0.00000000000E+00  0.39999999673E+01  0.40000000000E+01  0.51109989000E-03 0. -1.
     -623   -1    0    0    0    0  0.00000000000E+00  0.00000000000E+00  0.12525980253E-10  0.17130000000E+03  0.17130000000E+03 0. -1.
       11    1    1    2    0    0  0.36502094134E-02  0.23229332134E-02  0.26632247618E+01  0.26632283253E+01  0.51109989000E-03 0. -1.
     -623    1    1    2    0    0  0.24368924773E-04  0.59968776991E-03  0.16140090364E-03  0.17130000000E+03  0.17130000000E+03 0. -1.
      622    1    1    2    0    0 -0.36745783382E-02 -0.29226209833E-02  0.13366138047E+01  0.13367716735E+01  0.20000000000E-01 0.  1.
</event>
<event>
 5   0  0.3603037E+08  0.9118800E+02  0.7818608E-02  0.1180000E+00
       11   -1    0    0    0    0  0.00000000000E+00  0.00000000000E+00  0.39999999673E+01  0.40000000000E+01  0.51109989000E-03 0.  1.
     -623   -1    0    0    0    0  0.00000000000E+00  0.00000000000E+00  0.12525980253E-10  0.17130000000E+03  0.17130000000E+03 0.  1.
       11    1    1    2    0    0  0.69228689572E-03 -0.17991615506E-02  0.12887664298E+01  0.12887679729E+01  0.51109989000E-03 0.  1.
     -623    1    1    2    0    0 -0.10313004322E-02  0.57879541798E-03  0.75578647745E-04  0.17130000000E+03  0.17130000000E+03 0.  1.
      622    1    1    2    0    0  0.33901353652E-03  0.12203661327E-02  0.27111579589E+01  0.27112320230E+01  0.20000000000E-01 0.  1.
</event>
<event>
 5   0  0.3603037E+08  0.9118800E+02  0.7818608E-02  0.1180000E+00
       11   -1    0    0    0    0  0.00000000000E+00  0.00000000000E+00  0.39999999673E+01  0.40000000000E+01  0.51109989000E-03 0. -1.
     -623   -1    0    0    0    0  0.00000000000E+00  0.00000000000E+00  0.12525980253E-10  0.17130000000E+03  0.17130000000E+03 0. -1.
       11    1    1    2    0    0 -0.43784438661E-02 -0.30118864426E-01  0.15506212824E+01  0.15509200300E+01  0.51109989000E-03 0. -1.
     -623    1    1    2    0    0 -0.32045404109E-02  0.11287188983E-02  0.56374712742E-03  0.17130000003E+03  0.17130000000E+03 0. -1.
      622    1    1    2    0    0  0.75829842770E-02  0.28990145528E-01  0.24488149378E+01  0.24490799354E+01  0.20000000000E-01 0. -1.
</event>
<event>
 5   0  0.3603037E+08  0.9118800E+02  0.7818608E-02  0.1180000E+00
       11   -1    0    0    0    0  0.00000000000E+00  0.00000000000E+00  0.39999999673E+01  0.40000000000E+01  0.51109989000E-03 0.  1.
     -623   -1    0    0    0    0  0.00000000000E+00  0.00000000000E+00  0.12525980253E-10  0.17130000000E+03  0.17130000000E+03 0. -1.
       11    1    1    2    0    0 -0.76905692581E-03 -0.19051089150E-02  0.12915759188E-01  0.13088122346E-01  0.51109989000E-03 0.  1.
     -623    1    1    2    0    0 -0.11828924756E-02  0.28316391250E-02  0.22310810008E-03  0.17130000003E+03  0.17130000000E+03 0. -1.
      622    1    1    2    0    0  0.19519494014E-02 -0.92653020996E-03  0.39868611001E+01  0.39869118500E+01  0.20000000000E-01 0.  1.
</event>
<event>
 5   0  0.3603037E+08  0.9118800E+02  0.7818608E-02  0.1180000E+00
       11   -1    0    0    0    0  0.00000000000E+00  0.00000000000E+00  0.39999999673E+01  0.40000000000E+01  0.51109989000E-03 0.  1.
     -623   -1    0    0    0    0  0.00000000000E+00  0.00000000000E+00  0.12525980253E-10  0.17130000000E+03  0.17130000000E+03 0. -1.
       11    1    1    2    0    0 -0.18219719559E-03  0.36772584697E-03  0.17768503513E-01  0.17780589307E-01  0.51109989000E-03 0.  1.
     -623    1    1    2    0    0  0.43182698060E-03  0.15095620702E-04  0.62303502117E-04  0.17130000000E+03  0.17130000000E+03 0. -1.
      622    1    1    2    0    0 -0.24962978501E-03 -0.38282146767E-03  0.39821691603E+01  0.39822194101E+01  0.20000000000E-01 0.  1.
</event>
<event>
 5   0  0.3603037E+08  0.9118800E+02  0.7818608E-02  0.1180000E+00
       11   -1    0    0    0    0  0.00000000000E+00  0.00000000000E+00  0.39999999673E+01  0.40000000000E+01  0.51109989000E-03 0.  1.
     -623   -1    0    0    0    0  0.00000000000E+00  0.00000000000E+00  0.12525980253E-10  0.17130000000E+03  0.17130000000E+03 0. -1.
       11    1    1    2    0    0 -0.49107668946E-03 -0.55413782051E-03  0.12510751959E+00  0.12511075455E+00  0.51109989000E-03 0.  1.
     -623    1    1    2    0    0  0.11193241562E-02 -0.10764191905E-02  0.55218091691E-04  0.17130000001E+03  0.17130000000E+03 0. -1.
      622    1    1    2    0    0 -0.62824746677E-03  0.16305570110E-02  0.38748372297E+01  0.38748892384E+01  0.20000000000E-01 0.  1.
</event>
<event>
 5   0  0.3603037E+08  0.9118800E+02  0.7818608E-02  0.1180000E+00
       11   -1    0    0    0    0  0.00000000000E+00  0.00000000000E+00  0.39999999673E+01  0.40000000000E+01  0.51109989000E-03 0. -1.
     -623   -1    0    0    0    0  0.00000000000E+00  0.00000000000E+00  0.12525980253E-10  0.17130000000E+03  0.17130000000E+03 0. -1.
       11    1    1    2    0    0 -0.16307953045E-03 -0.23560339209E-03  0.10331651728E+00  0.10331817879E+00  0.51109989000E-03 0. -1.
     -623    1    1    2    0    0 -0.54308619916E-03 -0.19033645277E-02  0.53617427331E-04  0.17130000001E+03  0.17130000000E+03 0. -1.
      622    1    1    2    0    0  0.70616572960E-03  0.21389679197E-02  0.38966298327E+01  0.38966818098E+01  0.20000000000E-01 0. -1.
</event>
<event>
 5   0  0.3603037E+08  0.9118800E+02  0.7818608E-02  0.1180000E+00
       11   -1    0    0    0    0  0.00000000000E+00  0.00000000000E+00  0.39999999673E+01  0.40000000000E+01  0.51109989000E-03 0. -1.
     -623   -1    0    0    0    0  0.00000000000E+00  0.00000000000E+00  0.12525980253E-10  0.17130000000E+03  0.17130000000E+03 0. -1.
       11    1    1    2    0    0 -0.11593384595E-02  0.67445345343E-04  0.54555111259E-01  0.54569863489E-01  0.51109989000E-03 0. -1.
     -623    1    1    2    0    0  0.40840615352E-04 -0.27740787442E-04  0.65570237986E-04  0.17130000000E+03  0.17130000000E+03 0. -1.
      622    1    1    2    0    0  0.11184978442E-02 -0.39704557901E-04  0.39453792859E+01  0.39454301365E+01  0.20000000000E-01 0. -1.
</event>
<event>
 5   0  0.3603037E+08  0.9118800E+02  0.7818608E-02  0.1180000E+00
       11   -1    0    0    0    0  0.00000000000E+00  0.00000000000E+00  0.39999999673E+01  0.40000000000E+01  0.51109989000E-03 0.  1.
     -623   -1    0    0    0    0  0.00000000000E+00  0.00000000000E+00  0.12525980253E-10  0.17130000000E+03  0.17130000000E+03 0. -1.
       11    1    1    2    0    0 -0.21040473170E-02 -0.35387818878E-02  0.87824519693E+00  0.87825499551E+00  0.51109989000E-03 0.  1.
     -623    1    1    2    0    0  0.59341967745E-04 -0.14846025722E-02  0.78551235546E-04  0.17130000001E+03  0.17130000000E+03 0. -1.
      622    1    1    2    0    0  0.20447053492E-02  0.50233844599E-02  0.31216762192E+01  0.31217449980E+01  0.20000000000E-01 0.  0.
</event>
<event>
 5   0  0.3603037E+08  0.9118800E+02  0.7818608E-02  0.1180000E+00
       11   -1    0    0    0    0  0.00000000000E+00  0.00000000000E+00  0.39999999673E+01  0.40000000000E+01  0.51109989000E-03 0.  1.
     -623   -1    0    0    0    0  0.00000000000E+00  0.00000000000E+00  0.12525980253E-10  0.17130000000E+03  0.17130000000E+03 0. -1.
       11    1    1    2    0    0  0.24114469093E-02 -0.24243808064E-02  0.69072709786E+00  0.69073575095E+00  0.51109989000E-03 0.  1.
     -623    1    1    2    0    0  0.21959434241E-03  0.11563664423E-02  0.70350318687E-04  0.17130000000E+03  0.17130000000E+03 0. -1.
      622    1    1    2    0    0 -0.26310412518E-02  0.12680143641E-02  0.33092025192E+01  0.33092642450E+01  0.20000000000E-01 0.  1.
</event>
<event>
 5   0  0.3603037E+08  0.9118800E+02  0.7818608E-02  0.1180000E+00
       11   -1    0    0    0    0  0.00000000000E+00  0.00000000000E+00  0.39999999673E+01  0.40000000000E+01  0.51109989000E-03 0. -1.
     -623   -1    0    0    0    0  0.00000000000E+00  0.00000000000E+00  0.12525980253E-10  0.17130000000E+03  0.17130000000E+03 0. -1.
       11    1    1    2    0    0  0.63991236911E-02 -0.17463326991E-02  0.27766094227E+00  0.27774063178E+00  0.51109989000E-03 0. -1.
     -623    1    1    2    0    0 -0.81922546634E-04 -0.27807746479E-03  0.13929955882E-03  0.17130000000E+03  0.17130000000E+03 0. -1.
      622    1    1    2    0    0 -0.63172011445E-02  0.20244101639E-02  0.37221997255E+01  0.37222593679E+01  0.20000000000E-01 0. -1.
</event>
<event>
 5   0  0.3603037E+08  0.9118800E+02  0.7818608E-02  0.1180000E+00
       11   -1    0    0    0    0  0.00000000000E+00  0.00000000000E+00  0.39999999673E+01  0.40000000000E+01  0.51109989000E-03 0.  1.
     -623   -1    0    0    0    0  0.00000000000E+00  0.00000000000E+00  0.12525980253E-10  0.17130000000E+03  0.17130000000E+03 0. -1.
       11    1    1    2    0    0 -0.84889054567E-02  0.16402337616E-02  0.15403239915E+01  0.15403483411E+01  0.51109989000E-03 0.  1.
     -623    1    1    2    0    0 -0.15720036324E-02  0.12717369902E-02  0.12794364433E-03  0.17130000001E+03  0.17130000000E+03 0. -1.
      622    1    1    2    0    0  0.10060909089E-01 -0.29119707518E-02  0.24595480322E+01  0.24596516470E+01  0.20000000000E-01 0.  0.
</event>
<event>
 5   0  0.3603037E+08  0.9118800E+02  0.7818608E-02  0.1180000E+00
       11   -1    0    0    0    0  0.00000000000E+00  0.00000000000E+00  0.39999999673E+01  0.40000000000E+01  0.51109989000E-03 0.  1.
     -623   -1    0    0    0    0  0.00000000000E+00  0.00000000000E+00  0.12525980253E-10  0.17130000000E+03  0.17130000000E+03 0. -1.
       11    1    1    2    0    0  0.28030056081E-02 -0.11142531502E-01  0.15520054705E+01  0.15520480839E+01  0.51109989000E-03 0.  1.
     -623    1    1    2    0    0  0.22013873218E-01  0.18510827783E-01  0.26359014635E-03  0.17130000241E+03  0.17130000000E+03 0. -1.
      622    1    1    2    0    0 -0.24816878826E-01 -0.73682962817E-02  0.24477309067E+01  0.24479495013E+01  0.20000000000E-01 0.  0.
</event>
<event>
 5   0  0.3603037E+08  0.9118800E+02  0.7818608E-02  0.1180000E+00
       11   -1    0    0    0    0  0.00000000000E+00  0.00000000000E+00  0.39999999673E+01  0.40000000000E+01  0.51109989000E-03 0. -1.
     -623   -1    0    0    0    0  0.00000000000E+00  0.00000000000E+00  0.12525980253E-10  0.17130000000E+03  0.17130000000E+03 0.  1.
       11    1    1    2    0    0 -0.36492863945E-02 -0.15310101484E-02  0.26685519186E+00  0.26688502380E+00  0.51109989000E-03 0. -1.
     -623    1    1    2    0    0  0.59473090156E-02  0.10108107964E-02  0.84224050647E-04  0.17130000011E+03  0.17130000000E+03 0.  1.
      622    1    1    2    0    0 -0.22980226211E-02  0.52019935197E-03  0.37330605515E+01  0.37331148700E+01  0.20000000000E-01 0. -1.
</event>
<event>
 5   0  0.3603037E+08  0.9118800E+02  0.7818608E-02  0.1180000E+00
       11   -1    0    0    0    0  0.00000000000E+00  0.00000000000E+00  0.39999999673E+01  0.40000000000E+01  0.51109989000E-03 0.  1.
     -623   -1    0    0    0    0  0.00000000000E+00  0.00000000000E+00  0.12525980253E-10  0.17130000000E+03  0.17130000000E+03 0. -1.
       11    1    1    2    0    0 -0.19997474846E-03 -0.26963728699E-03  0.33447497337E-01  0.33453086471E-01  0.51109989000E-03 0.  1.
     -623    1    1    2    0    0 -0.12222235868E-03  0.23470866055E-03  0.55991957577E-04  0.17130000000E+03  0.17130000000E+03 0. -1.
      622    1    1    2    0    0  0.32219710715E-03  0.34928626445E-04  0.39664964781E+01  0.39665469133E+01  0.20000000000E-01 0.  1.
</event>
<event>
 5   0  0.3603037E+08  0.9118800E+02  0.7818608E-02  0.1180000E+00
       11   -1    0    0    0    0  0.00000000000E+00  0.00000000000E+00  0.39999999673E+01  0.40000000000E+01  0.51109989000E-03 0.  1.
     -623   -1    0    0    0    0  0.00000000000E+00  0.00000000000E+00  0.12525980253E-10  0.17130000000E+03  0.17130000000E+03 0. -1.
       11    1    1    2    0    0  0.63204384419E-02 -0.32802370250E-03  0.13979303557E+01  0.13979447758E+01  0.51109989000E-03 0.  1.
     -623    1    1    2    0    0 -0.83766826598E-02  0.22367507622E-02  0.92982925185E-04  0.17130000022E+03  0.17130000000E+03 0. -1.
      622    1    1    2    0    0  0.20562442179E-02 -0.19087270597E-02  0.26019766287E+01  0.26020550047E+01  0.20000000000E-01 0. -1.
</event>
<event>
 5   0  0.3603037E+08  0.9118800E+02  0.7818608E-02  0.1180000E+00
       11   -1    0    0    0    0  0.00000000000E+00  0.00000000000E+00  0.39999999673E+01  0.40000000000E+01  0.51109989000E-03 0. -1.
     -623   -1    0    0    0    0  0.00000000000E+00  0.00000000000E+00  0.12525980253E-10  0.17130000000E+03  0.17130000000E+03 0.  1.
       11    1    1    2    0    0  0.29100089415E-02  0.77113398460E-03  0.66495241336E-01  0.66565314855E-01  0.51109989000E-03 0. -1.
     -623    1    1    2    0    0 -0.11191088691E-03 -0.22583723224E-03  0.12192062615E-03  0.17130000000E+03  0.17130000000E+03 0.  1.
      622    1    1    2    0    0 -0.27980980546E-02 -0.54529675237E-03  0.39333828054E+01  0.39334346849E+01  0.20000000000E-01 0. -1.
</event>
<event>
 5   0  0.3603037E+08  0.9118800E+02  0.7818608E-02  0.1180000E+00
       11   -1    0    0    0    0  0.00000000000E+00  0.00000000000E+00  0.39999999673E+01  0.40000000000E+01  0.51109989000E-03 0. -1.
     -623   -1    0    0    0    0  0.00000000000E+00  0.00000000000E+00  0.12525980253E-10  0.17130000000E+03  0.17130000000E+03 0.  1.
       11    1    1    2    0    0 -0.16922783387E-01  0.13472168671E-01  0.78244462686E+00  0.78274372259E+00  0.51109989000E-03 0. -1.
     -623    1    1    2    0    0 -0.21569336380E-02  0.96597067660E-03  0.45022092900E-03  0.17130000002E+03  0.17130000000E+03 0.  1.
      622    1    1    2    0    0  0.19079717025E-01 -0.14438139348E-01  0.32171051196E+01  0.32172562605E+01  0.20000000000E-01 0.  0.
</event>
<event>
 5   0  0.3603037E+08  0.9118800E+02  0.7818608E-02  0.1180000E+00
       11   -1    0    0    0    0  0.00000000000E+00  0.00000000000E+00  0.39999999673E+01  0.40000000000E+01  0.51109989000E-03 0.  1.
     -623   -1    0    0    0    0  0.00000000000E+00  0.00000000000E+00  0.12525980253E-10  0.17130000000E+03  0.17130000000E+03 0.  1.
       11    1    1    2    0    0 -0.11337225891E-01  0.89678111407E-02  0.31082310619E+00  0.31115947501E+00  0.51109989000E-03 0.  1.
     -623    1    1    2    0    0  0.20993752978E-02  0.12235403348E-02  0.41621748984E-03  0.17130000002E+03  0.17130000000E+03 0.  1.
      622    1    1    2    0    0  0.92378505929E-02 -0.10191351476E-01  0.36887606437E+01  0.36888405072E+01  0.20000000000E-01 0. -1.
</event>
<event>
 5   0  0.3603037E+08  0.9118800E+02  0.7818608E-02  0.1180000E+00
       11   -1    0    0    0    0  0.00000000000E+00  0.00000000000E+00  0.39999999673E+01  0.40000000000E+01  0.51109989000E-03 0.  1.
     -623   -1    0    0    0    0  0.00000000000E+00  0.00000000000E+00  0.12525980253E-10  0.17130000000E+03  0.17130000000E+03 0. -1.
       11    1    1    2    0    0  0.24615945784E-02 -0.39047247681E-02  0.11781523323E+00  0.11790672892E+00  0.51109989000E-03 0.  1.
     -623    1    1    2    0    0  0.52521092881E-03  0.88650215138E-03  0.14530746792E-03  0.17130000000E+03  0.17130000000E+03 0. -1.
      622    1    1    2    0    0 -0.29868055072E-02  0.30182226167E-02  0.38820394267E+01  0.38820932679E+01  0.20000000000E-01 0.  1.
</event>
<event>
 5   0  0.3603037E+08  0.9118800E+02  0.7818608E-02  0.1180000E+00
       11   -1    0    0    0    0  0.00000000000E+00  0.00000000000E+00  0.39999999673E+01  0.40000000000E+01  0.51109989000E-03 0. -1.
     -623   -1    0    0    0    0  0.00000000000E+00  0.00000000000E+00  0.12525980253E-10  0.17130000000E+03  0.17130000000E+03 0.  1.
       11    1    1    2    0    0  0.83658170306E-04  0.32025412439E-03  0.67365757509E+00  0.67365785029E+00  0.51109989000E-03 0. -1.
     -623    1    1    2    0    0 -0.52813225996E-04 -0.20137017540E-02  0.60812285649E-04  0.17130000001E+03  0.17130000000E+03 0.  1.
      622    1    1    2    0    0 -0.30844944309E-04  0.16934476297E-02  0.33262815800E+01  0.33263421379E+01  0.20000000000E-01 0. -1.
</event>
<event>
 5   0  0.3603037E+08  0.9118800E+02  0.7818608E-02  0.1180000E+00
       11   -1    0    0    0    0  0.00000000000E+00  0.00000000000E+00  0.39999999673E+01  0.40000000000E+01  0.51109989000E-03 0.  1.
     -623   -1    0    0    0    0  0.00000000000E+00  0.00000000000E+00  0.12525980253E-10  0.17130000000E+03  0.17130000000E+03 0. -1.
       11    1    1    2    0    0  0.28194390107E-01 -0.24756440511E-01  0.12934638204E+01  0.12940080065E+01  0.51109989000E-03 0.  1.
     -623    1    1    2    0    0 -0.20905035795E-02  0.26243333845E-03  0.85486160131E-03  0.17130000002E+03  0.17130000000E+03 0. -1.
      622    1    1    2    0    0 -0.26103886527E-01  0.24494007172E-01  0.27056812853E+01  0.27059919784E+01  0.20000000000E-01 0.  1.
</event>
<event>
 5   0  0.3603037E+08  0.9118800E+02  0.7818608E-02  0.1180000E+00
       11   -1    0    0    0    0  0.00000000000E+00  0.00000000000E+00  0.39999999673E+01  0.40000000000E+01  0.51109989000E-03 0. -1.
     -623   -1    0    0    0    0  0.00000000000E+00  0.00000000000E+00  0.12525980253E-10  0.17130000000E+03  0.17130000000E+03 0.  1.
       11    1    1    2    0    0  0.12155287793E-01  0.17350227252E-01  0.12880156828E+00  0.13053308630E+00  0.51109989000E-03 0. -1.
     -623    1    1    2    0    0  0.19315508208E-02 -0.21650697200E-04  0.18476374904E-02  0.17130000002E+03  0.17130000000E+03 0.  1.
      622    1    1    2    0    0 -0.14086838614E-01 -0.17328576555E-01  0.38693507616E+01  0.38694668928E+01  0.20000000000E-01 0. -1.
</event>
<event>
 5   0  0.3603037E+08  0.9118800E+02  0.7818608E-02  0.1180000E+00
       11   -1    0    0    0    0  0.00000000000E+00  0.00000000000E+00  0.39999999673E+01  0.40000000000E+01  0.51109989000E-03 0. -1.
     -623   -1    0    0    0    0  0.00000000000E+00  0.00000000000E+00  0.12525980253E-10  0.17130000000E+03  0.17130000000E+03 0. -1.
       11    1    1    2    0    0 -0.77672315735E-03  0.22983477513E-02  0.45906948536E+00  0.45907618029E+00  0.51109989000E-03 0. -1.
     -623    1    1    2    0    0  0.22245019741E-02 -0.17259865137E-01  0.95934395597E-04  0.17130000088E+03  0.17130000000E+03 0. -1.
      622    1    1    2    0    0 -0.14477788168E-02  0.14961517385E-01  0.35408345476E+01  0.35409229357E+01  0.20000000000E-01 0. -1.
</event>
<event>
 5   0  0.3603037E+08  0.9118800E+02  0.7818608E-02  0.1180000E+00
       11   -1    0    0    0    0  0.00000000000E+00  0.00000000000E+00  0.39999999673E+01  0.40000000000E+01  0.51109989000E-03 0. -1.
     -623   -1    0    0    0    0  0.00000000000E+00  0.00000000000E+00  0.12525980253E-10  0.17130000000E+03  0.17130000000E+03 0.  1.
       11    1    1    2    0    0  0.43560768618E-02 -0.14430086852E-02  0.54271181318E-01  0.54467238064E-01  0.51109989000E-03 0. -1.
     -623    1    1    2    0    0 -0.21316295722E-02  0.53669961755E-02  0.24939056593E-03  0.17130000010E+03  0.17130000000E+03 0.  1.
      622    1    1    2    0    0 -0.22244472896E-02 -0.39239874903E-02  0.39454793955E+01  0.39455326644E+01  0.20000000000E-01 0. -1.
</event>
<event>
 5   0  0.3603037E+08  0.9118800E+02  0.7818608E-02  0.1180000E+00
       11   -1    0    0    0    0  0.00000000000E+00  0.00000000000E+00  0.39999999673E+01  0.40000000000E+01  0.51109989000E-03 0. -1.
     -623   -1    0    0    0    0  0.00000000000E+00  0.00000000000E+00  0.12525980253E-10  0.17130000000E+03  0.17130000000E+03 0.  1.
       11    1    1    2    0    0  0.18640991889E-02 -0.16890316080E-02  0.64815761727E-01  0.64866569845E-01  0.51109989000E-03 0. -1.
     -623    1    1    2    0    0 -0.15994846833E-02 -0.11058702554E-02  0.10261251232E-03  0.17130000001E+03  0.17130000000E+03 0.  1.
      622    1    1    2    0    0 -0.26461450554E-03  0.27949018634E-02  0.39350815931E+01  0.39351334191E+01  0.20000000000E-01 0. -1.
</event>
<event>
 5   0  0.3603037E+08  0.9118800E+02  0.7818608E-02  0.1180000E+00
       11   -1    0    0    0    0  0.00000000000E+00  0.00000000000E+00  0.39999999673E+01  0.40000000000E+01  0.51109989000E-03 0.  1.
     -623   -1    0    0    0    0  0.00000000000E+00  0.00000000000E+00  0.12525980253E-10  0.17130000000E+03  0.17130000000E+03 0. -1.
       11    1    1    2    0    0  0.70799414916E-03  0.15284773852E-02  0.23374308567E+00  0.23374971405E+00  0.51109989000E-03 0.  1.
     -623    1    1    2    0    0  0.18018631214E-03 -0.19597143340E-03  0.60040001151E-04  0.17130000000E+03  0.17130000000E+03 0. -1.
      622    1    1    2    0    0 -0.88818046130E-03 -0.13325059518E-02  0.37661968417E+01  0.37662502857E+01  0.20000000000E-01 0.  1.
</event>
<event>
 5   0  0.3603037E+08  0.9118800E+02  0.7818608E-02  0.1180000E+00
       11   -1    0    0    0    0  0.00000000000E+00  0.00000000000E+00  0.39999999673E+01  0.40000000000E+01  0.51109989000E-03 0.  1.
     -623   -1    0    0    0    0  0.00000000000E+00  0.00000000000E+00  0.12525980253E-10  0.17130000000E+03  0.17130000000E+03 0. -1.
       11    1    1    2    0    0  0.12141403929E-02  0.32429780713E-02  0.25104094252E+01  0.25104118655E+01  0.51109989000E-03 0.  1.
     -623    1    1    2    0    0  0.59200533107E-02  0.17900821040E-02  0.16238034794E-03  0.17130000011E+03  0.17130000000E+03 0. -1.
      622    1    1    2    0    0 -0.71341937037E-02 -0.50330601753E-02  0.14894281618E+01  0.14895880228E+01  0.20000000000E-01 0.  1.
</event>
<event>
 5   0  0.3603037E+08  0.9118800E+02  0.7818608E-02  0.1180000E+00
       11   -1    0    0    0    0  0.00000000000E+00  0.00000000000E+00  0.39999999673E+01  0.40000000000E+01  0.51109989000E-03 0. -1.
     -623   -1    0    0    0    0  0.00000000000E+00  0.00000000000E+00  0.12525980253E-10  0.17130000000E+03  0.17130000000E+03 0.  1.
       11    1    1    2    0    0 -0.10545471618E-01  0.55422230731E-02  0.22999620931E+00  0.23030510356E+00  0.51109989000E-03 0. -1.
     -623    1    1    2    0    0  0.68092429795E-02 -0.68279051252E-02  0.36425928453E-03  0.17130000027E+03  0.17130000000E+03 0.  1.
      622    1    1    2    0    0  0.37362286388E-02  0.12856820520E-02  0.37696394988E+01  0.37696946246E+01  0.20000000000E-01 0. -1.
</event>
<event>
 5   0  0.3603037E+08  0.9118800E+02  0.7818608E-02  0.1180000E+00
       11   -1    0    0    0    0  0.00000000000E+00  0.00000000000E+00  0.39999999673E+01  0.40000000000E+01  0.51109989000E-03 0. -1.
     -623   -1    0    0    0    0  0.00000000000E+00  0.00000000000E+00  0.12525980253E-10  0.17130000000E+03  0.17130000000E+03 0. -1.
       11    1    1    2    0    0  0.20084144132E-02  0.43884918360E-02  0.10205191337E+00  0.10216724932E+00  0.51109989000E-03 0. -1.
     -623    1    1    2    0    0  0.75720969475E-04 -0.46694579594E-02  0.16724527288E-03  0.17130000006E+03  0.17130000000E+03 0. -1.
      622    1    1    2    0    0 -0.20841353827E-02  0.28096612340E-03  0.38977808087E+01  0.38978326869E+01  0.20000000000E-01 0. -1.
</event>
<event>
 5   0  0.3603037E+08  0.9118800E+02  0.7818608E-02  0.1180000E+00
       11   -1    0    0    0    0  0.00000000000E+00  0.00000000000E+00  0.39999999673E+01  0.40000000000E+01  0.51109989000E-03 0.  1.
     -623   -1    0    0    0    0  0.00000000000E+00  0.00000000000E+00  0.12525980253E-10  0.17130000000E+03  0.17130000000E+03 0. -1.
       11    1    1    2    0    0  0.67529106446E-03 -0.22830755066E-02  0.59582937118E-01  0.59632676178E-01  0.51109989000E-03 0.  1.
     -623    1    1    2    0    0  0.28920360231E-03 -0.27452705283E-04  0.10125918076E-03  0.17130000000E+03  0.17130000000E+03 0. -1.
      622    1    1    2    0    0 -0.96449466677E-03  0.23105282118E-02  0.39403157711E+01  0.39403673235E+01  0.20000000000E-01 0.  1.
</event>
<event>
 5   0  0.3603037E+08  0.9118800E+02  0.7818608E-02  0.1180000E+00
       11   -1    0    0    0    0  0.00000000000E+00  0.00000000000E+00  0.39999999673E+01  0.40000000000E+01  0.51109989000E-03 0. -1.
     -623   -1    0    0    0    0  0.00000000000E+00  0.00000000000E+00  0.12525980253E-10  0.17130000000E+03  0.17130000000E+03 0. -1.
       11    1    1    2    0    0  0.14096781535E-02 -0.28380179714E-02  0.98723560902E-01  0.98775726967E-01  0.51109989000E-03 0. -1.
     -623    1    1    2    0    0 -0.43239274406E-02  0.20900392329E-02  0.10462728015E-03  0.17130000007E+03  0.17130000000E+03 0. -1.
      622    1    1    2    0    0  0.29142492871E-02  0.74797873847E-03  0.39011717792E+01  0.39012242057E+01  0.20000000000E-01 0. -1.
</event>
<event>
 5   0  0.3603037E+08  0.9118800E+02  0.7818608E-02  0.1180000E+00
       11   -1    0    0    0    0  0.00000000000E+00  0.00000000000E+00  0.39999999673E+01  0.40000000000E+01  0.51109989000E-03 0.  1.
     -623   -1    0    0    0    0  0.00000000000E+00  0.00000000000E+00  0.12525980253E-10  0.17130000000E+03  0.17130000000E+03 0. -1.
       11    1    1    2    0    0  0.87354363310E-03 -0.58731750504E-02  0.55553854604E-01  0.55872616242E-01  0.51109989000E-03 0.  1.
     -623    1    1    2    0    0  0.43751837220E-02  0.62288074997E-02  0.37311565856E-03  0.17130000017E+03  0.17130000000E+03 0. -1.
      622    1    1    2    0    0 -0.52487273551E-02 -0.35563244923E-03  0.39440729971E+01  0.39441272142E+01  0.20000000000E-01 0.  1.
</event>
<event>
 5   0  0.3603037E+08  0.9118800E+02  0.7818608E-02  0.1180000E+00
       11   -1    0    0    0    0  0.00000000000E+00  0.00000000000E+00  0.39999999673E+01  0.40000000000E+01  0.51109989000E-03 0.  1.
     -623   -1    0    0    0    0  0.00000000000E+00  0.00000000000E+00  0.12525980253E-10  0.17130000000E+03  0.17130000000E+03 0.  1.
       11    1    1    2    0    0 -0.18485770709E-03 -0.19885019326E-02  0.18755433644E+01  0.18755444973E+01  0.51109989000E-03 0.  1.
     -623    1    1    2    0    0 -0.44823528948E-04 -0.93956538149E-04  0.96277262450E-04  0.17130000000E+03  0.17130000000E+03 0.  1.
      622    1    1    2    0    0  0.22968123604E-03  0.20824584708E-02  0.21243603257E+01  0.21244555026E+01  0.20000000000E-01 0.  1.
</event>
<event>
 5   0  0.3603037E+08  0.9118800E+02  0.7818608E-02  0.1180000E+00
       11   -1    0    0    0    0  0.00000000000E+00  0.00000000000E+00  0.39999999673E+01  0.40000000000E+01  0.51109989000E-03 0.  1.
     -623   -1    0    0    0    0  0.00000000000E+00  0.00000000000E+00  0.12525980253E-10  0.17130000000E+03  0.17130000000E+03 0. -1.
       11    1    1    2    0    0 -0.19429138634E-03  0.13920712080E-02  0.32158945156E-01  0.32193704128E-01  0.51109989000E-03 0.  1.
     -623    1    1    2    0    0 -0.14563520534E-02 -0.90333636833E-03  0.85514379258E-04  0.17130000001E+03  0.17130000000E+03 0. -1.
      622    1    1    2    0    0  0.16506434397E-02 -0.48873483967E-03  0.39677555078E+01  0.39678062873E+01  0.20000000000E-01 0.  1.
</event>
<event>
 5   0  0.3603037E+08  0.9118800E+02  0.7818608E-02  0.1180000E+00
       11   -1    0    0    0    0  0.00000000000E+00  0.00000000000E+00  0.39999999673E+01  0.40000000000E+01  0.51109989000E-03 0.  1.
     -623   -1    0    0    0    0  0.00000000000E+00  0.00000000000E+00  0.12525980253E-10  0.17130000000E+03  0.17130000000E+03 0.  1.
       11    1    1    2    0    0  0.51794752219E-02  0.69033739224E-03  0.49819239977E-01  0.50095123744E-01  0.51109989000E-03 0.  1.
     -623    1    1    2    0    0 -0.60377209626E-02 -0.44849510551E-02  0.32856699538E-03  0.17130000017E+03  0.17130000000E+03 0.  1.
      622    1    1    2    0    0  0.85824574073E-03  0.37946136629E-02  0.39498521604E+01  0.39499047108E+01  0.20000000000E-01 0.  1.
</event>
<event>
 5   0  0.3603037E+08  0.9118800E+02  0.7818608E-02  0.1180000E+00
       11   -1    0    0    0    0  0.00000000000E+00  0.00000000000E+00  0.39999999673E+01  0.40000000000E+01  0.51109989000E-03 0. -1.
     -623   -1    0    0    0    0  0.00000000000E+00  0.00000000000E+00  0.12525980253E-10  0.17130000000E+03  0.17130000000E+03 0.  1.
       11    1    1    2    0    0 -0.10787502754E-02 -0.21011910978E-02  0.10779710300E-01  0.11047265804E-01  0.51109989000E-03 0. -1.
     -623    1    1    2    0    0 -0.14323464105E-02  0.33245072677E-02  0.31867817529E-03  0.17130000004E+03  0.17130000000E+03 0.  1.
      622    1    1    2    0    0  0.25110966859E-02 -0.12233161699E-02  0.39889015789E+01  0.39889526957E+01  0.20000000000E-01 0. -1.
</event>
<event>
 5   0  0.3603037E+08  0.9118800E+02  0.7818608E-02  0.1180000E+00
       11   -1    0    0    0    0  0.00000000000E+00  0.00000000000E+00  0.39999999673E+01  0.40000000000E+01  0.51109989000E-03 0. -1.
     -623   -1    0    0    0    0  0.00000000000E+00  0.00000000000E+00  0.12525980253E-10  0.17130000000E+03  0.17130000000E+03 0. -1.
       11    1    1    2    0    0  0.59161838686E-02  0.85918354661E-02  0.92810703342E+00  0.92816579746E+00  0.51109989000E-03 0. -1.
     -623    1    1    2    0    0 -0.24463224617E-02 -0.78269588739E-03  0.13574518511E-03  0.17130000002E+03  0.17130000000E+03 0. -1.
      622    1    1    2    0    0 -0.34698614069E-02 -0.78091395787E-02  0.30717571888E+01  0.30718341832E+01  0.20000000000E-01 0.  0.
</event>
<event>
 5   0  0.3603037E+08  0.9118800E+02  0.7818608E-02  0.1180000E+00
       11   -1    0    0    0    0  0.00000000000E+00  0.00000000000E+00  0.39999999673E+01  0.40000000000E+01  0.51109989000E-03 0.  1.
     -623   -1    0    0    0    0  0.00000000000E+00  0.00000000000E+00  0.12525980253E-10  0.17130000000E+03  0.17130000000E+03 0. -1.
       11    1    1    2    0    0 -0.36729708241E-02 -0.50769971127E-02  0.15328160810E+00  0.15341049253E+00  0.51109989000E-03 0.  1.
     -623    1    1    2    0    0  0.15238341613E-03 -0.32619516156E-03  0.18625276389E-03  0.17130000000E+03  0.17130000000E+03 0. -1.
      622    1    1    2    0    0  0.35205874079E-02  0.54031922743E-02  0.38465321065E+01  0.38465895070E+01  0.20000000000E-01 0.  1.
</event>
<event>
 5   0  0.3603037E+08  0.9118800E+02  0.7818608E-02  0.1180000E+00
       11   -1    0    0    0    0  0.00000000000E+00  0.00000000000E+00  0.39999999673E+01  0.40000000000E+01  0.51109989000E-03 0.  1.
     -623   -1    0    0    0    0  0.00000000000E+00  0.00000000000E+00  0.12525980253E-10  0.17130000000E+03  0.17130000000E+03 0. -1.
       11    1    1    2    0    0 -0.48086232929E-02  0.87286667760E-02  0.16018098158E+01  0.16018408971E+01  0.51109989000E-03 0.  1.
     -623    1    1    2    0    0  0.21771756159E-02 -0.29105802553E-02  0.12298759431E-03  0.17130000004E+03  0.17130000000E+03 0. -1.
      622    1    1    2    0    0  0.26314476770E-02 -0.58180865207E-02  0.23980671640E+01  0.23981590643E+01  0.20000000000E-01 0.  0.
</event>
<event>
 5   0  0.3603037E+08  0.9118800E+02  0.7818608E-02  0.1180000E+00
       11   -1    0    0    0    0  0.00000000000E+00  0.00000000000E+00  0.39999999673E+01  0.40000000000E+01  0.51109989000E-03 0. -1.
     -623   -1    0    0    0    0  0.00000000000E+00  0.00000000000E+00  0.12525980253E-10  0.17130000000E+03  0.17130000000E+03 0. -1.
       11    1    1    2    0    0  0.28064232379E-02  0.11339033664E-01  0.83100458604E+00  0.83108683838E+00  0.51109989000E-03 0. -1.
     -623    1    1    2    0    0  0.18715027353E-02  0.18862372402E-02  0.17640512639E-03  0.17130000002E+03  0.17130000000E+03 0. -1.
      622    1    1    2    0    0 -0.46779259732E-02 -0.13225270904E-01  0.31688189762E+01  0.31689131409E+01  0.20000000000E-01 0.  0.
</event>
<event>
 5   0  0.3603037E+08  0.9118800E+02  0.7818608E-02  0.1180000E+00
       11   -1    0    0    0    0  0.00000000000E+00  0.00000000000E+00  0.39999999673E+01  0.40000000000E+01  0.51109989000E-03 0. -1.
     -623   -1    0    0    0    0  0.00000000000E+00  0.00000000000E+00  0.12525980253E-10  0.17130000000E+03  0.17130000000E+03 0. -1.
       11    1    1    2    0    0  0.17256741995E-02 -0.72304028324E-02  0.12363462403E+01  0.12363686925E+01  0.51109989000E-03 0. -1.
     -623    1    1    2    0    0  0.66239652526E-02 -0.32205736054E-02  0.12732246102E-03  0.17130000016E+03  0.17130000000E+03 0. -1.
      622    1    1    2    0    0 -0.83496394521E-02  0.10450976438E-01  0.27635264046E+01  0.27636311491E+01  0.20000000000E-01 0.  0.
</event>
<event>
 5   0  0.3603037E+08  0.9118800E+02  0.7818608E-02  0.1180000E+00
       11   -1    0    0    0    0  0.00000000000E+00  0.00000000000E+00  0.39999999673E+01  0.40000000000E+01  0.51109989000E-03 0. -1.
     -623   -1    0    0    0    0  0.00000000000E+00  0.00000000000E+00  0.12525980253E-10  0.17130000000E+03  0.17130000000E+03 0. -1.
       11    1    1    2    0    0 -0.16480637051E-01 -0.90043932031E-02  0.95597644188E+00  0.95616102679E+00  0.51109989000E-03 0. -1.
     -623    1    1    2    0    0  0.21155745429E-02 -0.42923591541E-02  0.31326864632E-03  0.17130000007E+03  0.17130000000E+03 0. -1.
      622    1    1    2    0    0  0.14365062508E-01  0.13296752357E-01  0.30437102568E+01  0.30438389061E+01  0.20000000000E-01 0. -1.
</event>
<event>
 5   0  0.3603037E+08  0.9118800E+02  0.7818608E-02  0.1180000E+00
       11   -1    0    0    0    0  0.00000000000E+00  0.00000000000E+00  0.39999999673E+01  0.40000000000E+01  0.51109989000E-03 0.  1.
     -623   -1    0    0    0    0  0.00000000000E+00  0.00000000000E+00  0.12525980253E-10  0.17130000000E+03  0.17130000000E+03 0. -1.
       11    1    1    2    0    0  0.16672066669E-02 -0.13615046545E-02  0.11573981979E+00  0.11576096225E+00  0.51109989000E-03 0.  1.
     -623    1    1    2    0    0 -0.65708165709E-03 -0.98324973223E-04  0.73007275000E-04  0.17130000000E+03  0.17130000000E+03 0. -1.
      622    1    1    2    0    0 -0.10101250098E-02  0.14598296277E-02  0.38841871403E+01  0.38842390364E+01  0.20000000000E-01 0.  1.
</event>
<event>
 5   0  0.3603037E+08  0.9118800E+02  0.7818608E-02  0.1180000E+00
       11   -1    0    0    0    0  0.00000000000E+00  0.00000000000E+00  0.39999999673E+01  0.40000000000E+01  0.51109989000E-03 0.  1.
     -623   -1    0    0    0    0  0.00000000000E+00  0.00000000000E+00  0.12525980253E-10  0.17130000000E+03  0.17130000000E+03 0. -1.
       11    1    1    2    0    0 -0.40489131984E-02  0.25970957334E-02  0.30864417653E-01  0.31241192408E-01  0.51109989000E-03 0.  1.
     -623    1    1    2    0    0  0.81492418315E-04  0.37559505154E-03  0.43023338354E-03  0.17130000000E+03  0.17130000000E+03 0. -1.
      622    1    1    2    0    0  0.39674207800E-02 -0.29726907849E-02  0.39687053163E+01  0.39687588066E+01  0.20000000000E-01 0.  1.
</event>
<event>
 5   0  0.3603037E+08  0.9118800E+02  0.7818608E-02  0.1180000E+00
       11   -1    0    0    0    0  0.00000000000E+00  0.00000000000E+00  0.39999999673E+01  0.40000000000E+01  0.51109989000E-03 0.  1.
     -623   -1    0    0    0    0  0.00000000000E+00  0.00000000000E+00  0.12525980253E-10  0.17130000000E+03  0.17130000000E+03 0.  1.
       11    1    1    2    0    0 -0.45144308646E-03 -0.86258940065E-04  0.13588180073E+00  0.13588353922E+00  0.51109989000E-03 0.  1.
     -623    1    1    2    0    0 -0.22433909974E-04 -0.53331974919E-04  0.53496073884E-04  0.17130000000E+03  0.17130000000E+03 0.  1.
      622    1    1    2    0    0  0.47387699643E-03  0.13959091498E-03  0.38640646706E+01  0.38641164608E+01  0.20000000000E-01 0.  1.
</event>
<event>
 5   0  0.3603037E+08  0.9118800E+02  0.7818608E-02  0.1180000E+00
       11   -1    0    0    0    0  0.00000000000E+00  0.00000000000E+00  0.39999999673E+01  0.40000000000E+01  0.51109989000E-03 0.  1.
     -623   -1    0    0    0    0  0.00000000000E+00  0.00000000000E+00  0.12525980253E-10  0.17130000000E+03  0.17130000000E+03 0.  1.
       11    1    1    2    0    0  0.22763885472E-02 -0.11471767725E-01  0.95931303265E+00  0.95938445851E+00  0.51109989000E-03 0.  1.
     -623    1    1    2    0    0 -0.73690832065E-03 -0.71223213727E-04  0.15947219256E-03  0.17130000000E+03  0.17130000000E+03 0.  1.
      622    1    1    2    0    0 -0.15394802266E-02  0.11542990939E-01  0.30405274625E+01  0.30406155398E+01  0.20000000000E-01 0.  1.
</event>
<event>
 5   0  0.3603037E+08  0.9118800E+02  0.7818608E-02  0.1180000E+00
       11   -1    0    0    0    0  0.00000000000E+00  0.00000000000E+00  0.39999999673E+01  0.40000000000E+01  0.51109989000E-03 0. -1.
     -623   -1    0    0    0    0  0.00000000000E+00  0.00000000000E+00  0.12525980253E-10  0.17130000000E+03  0.17130000000E+03 0. -1.
       11    1    1    2    0    0  0.50426318759E-02  0.39777424384E-02  0.13447276497E+01  0.13447430846E+01  0.51109989000E-03 0. -1.
     -623    1    1    2    0    0  0.28629771403E-03 -0.13739247039E-02  0.97355706633E-04  0.17130000001E+03  0.17130000000E+03 0. -1.
      622    1    1    2    0    0 -0.53289295899E-02 -0.26038177345E-02  0.26551749620E+01  0.26552569096E+01  0.20000000000E-01 0. -1.
</event>
<event>
 5   0  0.3603037E+08  0.9118800E+02  0.7818608E-02  0.1180000E+00
       11   -1    0    0    0    0  0.00000000000E+00  0.00000000000E+00  0.39999999673E+01  0.40000000000E+01  0.51109989000E-03 0.  1.
     -623   -1    0    0    0    0  0.00000000000E+00  0.00000000000E+00  0.12525980253E-10  0.17130000000E+03  0.17130000000E+03 0. -1.
       11    1    1    2    0    0  0.16319254693E-02  0.31477508808E-02  0.70957933661E+00  0.70958837905E+00  0.51109989000E-03 0.  1.
     -623    1    1    2    0    0 -0.55160612587E-03  0.88197066387E-03  0.72441172922E-04  0.17130000000E+03  0.17130000000E+03 0. -1.
      622    1    1    2    0    0 -0.10803193434E-02 -0.40297215446E-02  0.32903481896E+01  0.32904116178E+01  0.20000000000E-01 0.  1.
</event>
<event>
 5   0  0.3603037E+08  0.9118800E+02  0.7818608E-02  0.1180000E+00
       11   -1    0    0    0    0  0.00000000000E+00  0.00000000000E+00  0.39999999673E+01  0.40000000000E+01  0.51109989000E-03 0.  1.
     -623   -1    0    0    0    0  0.00000000000E+00  0.00000000000E+00  0.12525980253E-10  0.17130000000E+03  0.17130000000E+03 0. -1.
       11    1    1    2    0    0 -0.37086490161E-02  0.22320692246E-02  0.82784817129E-01  0.82899477556E-01  0.51109989000E-03 0.  1.
     -623    1    1    2    0    0  0.34518367064E-04  0.24211147604E-03  0.16819109031E-03  0.17130000000E+03  0.17130000000E+03 0. -1.
      622    1    1    2    0    0  0.36741306491E-02 -0.24741807006E-02  0.39170469591E+01  0.39171005222E+01  0.20000000000E-01 0.  1.
</event>
<event>
 5   0  0.3603037E+08  0.9118800E+02  0.7818608E-02  0.1180000E+00
       11   -1    0    0    0    0  0.00000000000E+00  0.00000000000E+00  0.39999999673E+01  0.40000000000E+01  0.51109989000E-03 0.  1.
     -623   -1    0    0    0    0  0.00000000000E+00  0.00000000000E+00  0.12525980253E-10  0.17130000000E+03  0.17130000000E+03 0. -1.
       11    1    1    2    0    0 -0.26752608127E-02  0.74292068190E-02  0.24104351464E+00  0.24117335530E+00  0.51109989000E-03 0.  1.
     -623    1    1    2    0    0  0.21141645407E-03 -0.68219278399E-04  0.19103194880E-03  0.17130000000E+03  0.17130000000E+03 0. -1.
      622    1    1    2    0    0  0.24638443586E-02 -0.73609875406E-02  0.37587654208E+01  0.37588266445E+01  0.20000000000E-01 0.  1.
</event>
<event>
 5   0  0.3603037E+08  0.9118800E+02  0.7818608E-02  0.1180000E+00
       11   -1    0    0    0    0  0.00000000000E+00  0.00000000000E+00  0.39999999673E+01  0.40000000000E+01  0.51109989000E-03 0. -1.
     -623   -1    0    0    0    0  0.00000000000E+00  0.00000000000E+00  0.12525980253E-10  0.17130000000E+03  0.17130000000E+03 0. -1.
       11    1    1    2    0    0  0.17022885071E-01  0.10930601391E-02  0.13640081158E+01  0.13641148686E+01  0.51109989000E-03 0. -1.
     -623    1    1    2    0    0  0.26084709320E-03 -0.28552300662E-03  0.23938906895E-03  0.17130000000E+03  0.17130000000E+03 0. -1.
      622    1    1    2    0    0 -0.17283732165E-01 -0.80753713253E-03  0.26357524625E+01  0.26358851308E+01  0.20000000000E-01 0. -1.
</event>
<event>
 5   0  0.3603037E+08  0.9118800E+02  0.7818608E-02  0.1180000E+00
       11   -1    0    0    0    0  0.00000000000E+00  0.00000000000E+00  0.39999999673E+01  0.40000000000E+01  0.51109989000E-03 0.  1.
     -623   -1    0    0    0    0  0.00000000000E+00  0.00000000000E+00  0.12525980253E-10  0.17130000000E+03  0.17130000000E+03 0.  1.
       11    1    1    2    0    0  0.64822624341E-03 -0.79028041802E-02  0.57213946623E+00  0.57219463870E+00  0.51109989000E-03 0.  1.
     -623    1    1    2    0    0  0.32135374758E-02  0.40694168621E-02  0.11788409834E-03  0.17130000008E+03  0.17130000000E+03 0.  1.
      622    1    1    2    0    0 -0.38617637192E-02  0.38333873181E-02  0.34277426170E+01  0.34278052828E+01  0.20000000000E-01 0.  1.
</event>
<event>
 5   0  0.3603037E+08  0.9118800E+02  0.7818608E-02  0.1180000E+00
       11   -1    0    0    0    0  0.00000000000E+00  0.00000000000E+00  0.39999999673E+01  0.40000000000E+01  0.51109989000E-03 0.  1.
     -623   -1    0    0    0    0  0.00000000000E+00  0.00000000000E+00  0.12525980253E-10  0.17130000000E+03  0.17130000000E+03 0. -1.
       11    1    1    2    0    0 -0.18134709702E-02 -0.88071807598E-03  0.27052543587E+00  0.27053343049E+00  0.51109989000E-03 0.  1.
     -623    1    1    2    0    0 -0.29128858271E-02  0.37433526243E-02  0.65748580370E-04  0.17130000007E+03  0.17130000000E+03 0. -1.
      622    1    1    2    0    0  0.47263567973E-02 -0.28626345483E-02  0.37294087829E+01  0.37294665038E+01  0.20000000000E-01 0.  1.
</event>
<event>
 5   0  0.3603037E+08  0.9118800E+02  0.7818608E-02  0.1180000E+00
       11   -1    0    0    0    0  0.00000000000E+00  0.00000000000E+00  0.39999999673E+01  0.40000000000E+01  0.51109989000E-03 0. -1.
     -623   -1    0    0    0    0  0.00000000000E+00  0.00000000000E+00  0.12525980253E-10  0.17130000000E+03  0.17130000000E+03 0. -1.
       11    1    1    2    0    0 -0.59889187178E-04 -0.10292986597E-02  0.47623881424E+00  0.47624020457E+00  0.51109989000E-03 0. -1.
     -623    1    1    2    0    0  0.96433701054E-03  0.90495257532E-03  0.58239092801E-04  0.17130000001E+03  0.17130000000E+03 0. -1.
      622    1    1    2    0    0 -0.90444782336E-03  0.12434608437E-03  0.35237029140E+01  0.35237597903E+01  0.20000000000E-01 0. -1.
</event>
<event>
 5   0  0.3603037E+08  0.9118800E+02  0.7818608E-02  0.1180000E+00
       11   -1    0    0    0    0  0.00000000000E+00  0.00000000000E+00  0.39999999673E+01  0.40000000000E+01  0.51109989000E-03 0.  1.
     -623   -1    0    0    0    0  0.00000000000E+00  0.00000000000E+00  0.12525980253E-10  0.17130000000E+03  0.17130000000E+03 0. -1.
       11    1    1    2    0    0  0.85506504608E-02  0.20349746150E-02  0.17693350669E-01  0.19762859694E-01  0.51109989000E-03 0.  1.
     -623    1    1    2    0    0 -0.30401374713E-02 -0.70988798304E-02  0.21269482106E-02  0.17130000019E+03  0.17130000000E+03 0. -1.
      622    1    1    2    0    0 -0.55105129896E-02  0.50639052155E-02  0.39801796685E+01  0.39802369530E+01  0.20000000000E-01 0.  1.
</event>
<event>
 5   0  0.3603037E+08  0.9118800E+02  0.7818608E-02  0.1180000E+00
       11   -1    0    0    0    0  0.00000000000E+00  0.00000000000E+00  0.39999999673E+01  0.40000000000E+01  0.51109989000E-03 0.  1.
     -623   -1    0    0    0    0  0.00000000000E+00  0.00000000000E+00  0.12525980253E-10  0.17130000000E+03  0.17130000000E+03 0.  1.
       11    1    1    2    0    0  0.88304903079E-03  0.48893260743E-03  0.88764665911E-02  0.89482798384E-02  0.51109989000E-03 0.  1.
     -623    1    1    2    0    0  0.18388374066E-03 -0.27553701600E-03  0.12204170899E-03  0.17130000000E+03  0.17130000000E+03 0.  1.
      622    1    1    2    0    0 -0.10669327714E-02 -0.21339559144E-03  0.39910014591E+01  0.39910517198E+01  0.20000000000E-01 0.  1.
</event>
<event>
 5   0  0.3603037E+08  0.9118800E+02  0.7818608E-02  0.1180000E+00
       11   -1    0    0    0    0  0.00000000000E+00  0.00000000000E+00  0.39999999673E+01  0.40000000000E+01  0.51109989000E-03 0. -1.
     -623   -1    0    0    0    0  0.00000000000E+00  0.00000000000E+00  0.12525980253E-10  0.17130000000E+03  0.17130000000E+03 0.  1.
       11    1    1    2    0    0  0.24539016297E-02  0.10032633202E-01  0.11411583789E+01  0.11412052323E+01  0.51109989000E-03 0. -1.
     -623    1    1    2    0    0 -0.12512747048E-03  0.11851519773E-03  0.13575298157E-03  0.17130000000E+03  0.17130000000E+03 0.  1.
      622    1    1    2    0    0 -0.23287741592E-02 -0.10151148400E-01  0.28587058355E+01  0.28587947676E+01  0.20000000000E-01 0. -1.
</event>
<event>
 5   0  0.3603037E+08  0.9118800E+02  0.7818608E-02  0.1180000E+00
       11   -1    0    0    0    0  0.00000000000E+00  0.00000000000E+00  0.39999999673E+01  0.40000000000E+01  0.51109989000E-03 0. -1.
     -623   -1    0    0    0    0  0.00000000000E+00  0.00000000000E+00  0.12525980253E-10  0.17130000000E+03  0.17130000000E+03 0. -1.
       11    1    1    2    0    0  0.26521882706E-01 -0.40517574681E-02  0.19229470134E+01  0.19231342398E+01  0.51109989000E-03 0. -1.
     -623    1    1    2    0    0  0.13093692203E-03 -0.61084057939E-03  0.45976662532E-03  0.17130000000E+03  0.17130000000E+03 0. -1.
      622    1    1    2    0    0 -0.26652819628E-01  0.46625980475E-02  0.20765931874E+01  0.20768657584E+01  0.20000000000E-01 0. -1.
</event>
<event>
 5   0  0.3603037E+08  0.9118800E+02  0.7818608E-02  0.1180000E+00
       11   -1    0    0    0    0  0.00000000000E+00  0.00000000000E+00  0.39999999673E+01  0.40000000000E+01  0.51109989000E-03 0.  1.
     -623   -1    0    0    0    0  0.00000000000E+00  0.00000000000E+00  0.12525980253E-10  0.17130000000E+03  0.17130000000E+03 0.  1.
       11    1    1    2    0    0 -0.87061511457E-03  0.38993736322E-02  0.42483369234E-01  0.42673890941E-01  0.51109989000E-03 0.  1.
     -623    1    1    2    0    0 -0.19669285797E-02 -0.59001159365E-02  0.24266473728E-03  0.17130000011E+03  0.17130000000E+03 0.  1.
      622    1    1    2    0    0  0.28375436943E-02  0.20007423043E-02  0.39572739334E+01  0.39573259960E+01  0.20000000000E-01 0.  1.
</event>
<event>
 5   0  0.3603037E+08  0.9118800E+02  0.7818608E-02  0.1180000E+00
       11   -1    0    0    0    0  0.00000000000E+00  0.00000000000E+00  0.39999999673E+01  0.40000000000E+01  0.51109989000E-03 0.  1.
     -623   -1    0    0    0    0  0.00000000000E+00  0.00000000000E+00  0.12525980253E-10  0.17130000000E+03  0.17130000000E+03 0.  1.
       11    1    1    2    0    0 -0.43362870430E-03  0.69969230663E-04  0.11464632900E-01  0.11484422472E-01  0.51109989000E-03 0.  1.
     -623    1    1    2    0    0 -0.94251053244E-04  0.25418270689E-04  0.69937331101E-04  0.17130000000E+03  0.17130000000E+03 0.  1.
      622    1    1    2    0    0  0.52787975755E-03 -0.95387501352E-04  0.39884653971E+01  0.39885155775E+01  0.20000000000E-01 0.  1.
</event>
<event>
 5   0  0.3603037E+08  0.9118800E+02  0.7818608E-02  0.1180000E+00
       11   -1    0    0    0    0  0.00000000000E+00  0.00000000000E+00  0.39999999673E+01  0.40000000000E+01  0.51109989000E-03 0.  1.
     -623   -1    0    0    0    0  0.00000000000E+00  0.00000000000E+00  0.12525980253E-10  0.17130000000E+03  0.17130000000E+03 0.  1.
       11    1    1    2    0    0 -0.16702707414E-02  0.55209789431E-02  0.52778527996E+00  0.52781704593E+00  0.51109989000E-03 0.  1.
     -623    1    1    2    0    0  0.79768125114E-02 -0.59365920476E-02  0.95375362133E-04  0.17130000029E+03  0.17130000000E+03 0.  1.
      622    1    1    2    0    0 -0.63065417700E-02  0.41561310451E-03  0.34721193120E+01  0.34721826654E+01  0.20000000000E-01 0.  1.
</event>
<event>
 5   0  0.3603037E+08  0.9118800E+02  0.7818608E-02  0.1180000E+00
       11   -1    0    0    0    0  0.00000000000E+00  0.00000000000E+00  0.39999999673E+01  0.40000000000E+01  0.51109989000E-03 0. -1.
     -623   -1    0    0    0    0  0.00000000000E+00  0.00000000000E+00  0.12525980253E-10  0.17130000000E+03  0.17130000000E+03 0. -1.
       11    1    1    2    0    0  0.12697091149E-01 -0.40073081661E-02  0.54335548750E+00  0.54351883285E+00  0.51109989000E-03 0. -1.
     -623    1    1    2    0    0 -0.14731213780E-02  0.58332841532E-02  0.23998737759E-03  0.17130000011E+03  0.17130000000E+03 0. -1.
      622    1    1    2    0    0 -0.11223969771E-01 -0.18259759871E-02  0.34564044925E+01  0.34564810613E+01  0.20000000000E-01 0. -1.
</event>
<event>
 5   0  0.3603037E+08  0.9118800E+02  0.7818608E-02  0.1180000E+00
       11   -1    0    0    0    0  0.00000000000E+00  0.00000000000E+00  0.39999999673E+01  0.40000000000E+01  0.51109989000E-03 0. -1.
     -623   -1    0    0    0    0  0.00000000000E+00  0.00000000000E+00  0.12525980253E-10  0.17130000000E+03  0.17130000000E+03 0.  1.
       11    1    1    2    0    0 -0.29550595454E-03  0.10397901594E-02  0.49732640131E-01  0.49747012002E-01  0.51109989000E-03 0. -1.
     -623    1    1    2    0    0 -0.11749675283E-02  0.87275497450E-03  0.65712176646E-04  0.17130000001E+03  0.17130000000E+03 0.  1.
      622    1    1    2    0    0  0.14704734828E-02 -0.19125451339E-02  0.39502016151E+01  0.39502529817E+01  0.20000000000E-01 0. -1.
</event>
<event>
 5   0  0.3603037E+08  0.9118800E+02  0.7818608E-02  0.1180000E+00
       11   -1    0    0    0    0  0.00000000000E+00  0.00000000000E+00  0.39999999673E+01  0.40000000000E+01  0.51109989000E-03 0. -1.
     -623   -1    0    0    0    0  0.00000000000E+00  0.00000000000E+00  0.12525980253E-10  0.17130000000E+03  0.17130000000E+03 0.  1.
       11    1    1    2    0    0  0.21809699896E-02  0.41293948185E-02  0.18126786760E+00  0.18132873346E+00  0.51109989000E-03 0. -1.
     -623    1    1    2    0    0 -0.41098608673E-03 -0.58557235044E-02  0.11410886107E-03  0.17130000010E+03  0.17130000000E+03 0.  1.
      622    1    1    2    0    0 -0.17699839029E-02  0.17263286860E-02  0.38186179909E+01  0.38186711659E+01  0.20000000000E-01 0. -1.
</event>
<event>
 5   0  0.3603037E+08  0.9118800E+02  0.7818608E-02  0.1180000E+00
       11   -1    0    0    0    0  0.00000000000E+00  0.00000000000E+00  0.39999999673E+01  0.40000000000E+01  0.51109989000E-03 0.  1.
     -623   -1    0    0    0    0  0.00000000000E+00  0.00000000000E+00  0.12525980253E-10  0.17130000000E+03  0.17130000000E+03 0. -1.
       11    1    1    2    0    0 -0.25891829341E-02  0.80989935444E-02  0.15889860139E+00  0.15912675548E+00  0.51109989000E-03 0.  1.
     -623    1    1    2    0    0 -0.12252971274E-02 -0.12880288310E-01  0.28555235890E-03  0.17130000049E+03  0.17130000000E+03 0. -1.
      622    1    1    2    0    0  0.38144800614E-02  0.47812947651E-02  0.38408158136E+01  0.38408727557E+01  0.20000000000E-01 0.  1.
</event>
<event>
 5   0  0.3603037E+08  0.9118800E+02  0.7818608E-02  0.1180000E+00
       11   -1    0    0    0    0  0.00000000000E+00  0.00000000000E+00  0.39999999673E+01  0.40000000000E+01  0.51109989000E-03 0.  1.
     -623   -1    0    0    0    0  0.00000000000E+00  0.00000000000E+00  0.12525980253E-10  0.17130000000E+03  0.17130000000E+03 0.  1.
       11    1    1    2    0    0  0.81118864997E-02 -0.21080784912E-02  0.80731454923E+00  0.80735821623E+00  0.51109989000E-03 0.  1.
     -623    1    1    2    0    0 -0.10326943774E-02  0.46878771071E-04  0.11479623431E-03  0.17130000000E+03  0.17130000000E+03 0.  1.
      622    1    1    2    0    0 -0.70791921222E-02  0.20611997201E-02  0.31925706219E+01  0.31926417806E+01  0.20000000000E-01 0.  0.
</event>
<event>
 5   0  0.3603037E+08  0.9118800E+02  0.7818608E-02  0.1180000E+00
       11   -1    0    0    0    0  0.00000000000E+00  0.00000000000E+00  0.39999999673E+01  0.40000000000E+01  0.51109989000E-03 0. -1.
     -623   -1    0    0    0    0  0.00000000000E+00  0.00000000000E+00  0.12525980253E-10  0.17130000000E+03  0.17130000000E+03 0.  1.
       11    1    1    2    0    0 -0.17686023877E-02  0.14891976862E-02  0.73552210309E-01  0.73590315440E-01  0.51109989000E-03 0. -1.
     -623    1    1    2    0    0  0.78276884086E-03  0.77697757029E-03  0.89791260477E-04  0.17130000000E+03  0.17130000000E+03 0.  1.
      622    1    1    2    0    0  0.98583354681E-03 -0.22661752565E-02  0.39263579658E+01  0.39264096810E+01  0.20000000000E-01 0. -1.
</event>
<event>
 5   0  0.3603037E+08  0.9118800E+02  0.7818608E-02  0.1180000E+00
       11   -1    0    0    0    0  0.00000000000E+00  0.00000000000E+00  0.39999999673E+01  0.40000000000E+01  0.51109989000E-03 0.  1.
     -623   -1    0    0    0    0  0.00000000000E+00  0.00000000000E+00  0.12525980253E-10  0.17130000000E+03  0.17130000000E+03 0.  1.
       11    1    1    2    0    0 -0.10416612901E-01 -0.30436121269E-02  0.37152692682E-01  0.38708567455E-01  0.51109989000E-03 0.  1.
     -623    1    1    2    0    0  0.11755580491E-05 -0.32277387234E-02  0.16250263824E-02  0.17130000004E+03  0.17130000000E+03 0.  1.
      622    1    1    2    0    0  0.10415437343E-01  0.62713508502E-02  0.39612222483E+01  0.39612913944E+01  0.20000000000E-01 0.  1.
</event>
<event>
 5   0  0.3603037E+08  0.9118800E+02  0.7818608E-02  0.1180000E+00
       11   -1    0    0    0    0  0.00000000000E+00  0.00000000000E+00  0.39999999673E+01  0.40000000000E+01  0.51109989000E-03 0.  1.
     -623   -1    0    0    0    0  0.00000000000E+00  0.00000000000E+00  0.12525980253E-10  0.17130000000E+03  0.17130000000E+03 0.  1.
       11    1    1    2    0    0 -0.89277671058E-03 -0.39660580346E-03  0.13970666332E-01  0.14014103111E-01  0.51109989000E-03 0.  1.
     -623    1    1    2    0    0 -0.62587343200E-04  0.37096333494E-03  0.93695260348E-04  0.17130000000E+03  0.17130000000E+03 0.  1.
      622    1    1    2    0    0  0.95536405378E-03  0.25642468515E-04  0.39859356058E+01  0.39859858965E+01  0.20000000000E-01 0.  1.
</event>
<event>
 5   0  0.3603037E+08  0.9118800E+02  0.7818608E-02  0.1180000E+00
       11   -1    0    0    0    0  0.00000000000E+00  0.00000000000E+00  0.39999999673E+01  0.40000000000E+01  0.51109989000E-03 0. -1.
     -623   -1    0    0    0    0  0.00000000000E+00  0.00000000000E+00  0.12525980253E-10  0.17130000000E+03  0.17130000000E+03 0.  1.
       11    1    1    2    0    0  0.15775732541E-02  0.35318425540E-02  0.25792615666E+00  0.25795566705E+00  0.51109989000E-03 0. -1.
     -623    1    1    2    0    0  0.26677477129E-02 -0.21247064153E-02  0.85631566156E-04  0.17130000003E+03  0.17130000000E+03 0.  1.
      622    1    1    2    0    0 -0.42453209669E-02 -0.14071361388E-02  0.37419881791E+01  0.37420442990E+01  0.20000000000E-01 0. -1.
</event>
<event>
 5   0  0.3603037E+08  0.9118800E+02  0.7818608E-02  0.1180000E+00
       11   -1    0    0    0    0  0.00000000000E+00  0.00000000000E+00  0.39999999673E+01  0.40000000000E+01  0.51109989000E-03 0.  1.
     -623   -1    0    0    0    0  0.00000000000E+00  0.00000000000E+00  0.12525980253E-10  0.17130000000E+03  0.17130000000E+03 0.  1.
       11    1    1    2    0    0 -0.35154271016E-02  0.82973036018E-05  0.57581437148E-02  0.67657768929E-02  0.51109989000E-03 0.  1.
     -623    1    1    2    0    0  0.11677147282E-03  0.26397245114E-02  0.10600335478E-02  0.17130000002E+03  0.17130000000E+03 0.  1.
      622    1    1    2    0    0  0.33986556287E-02 -0.26480218150E-02  0.39931817901E+01  0.39932341994E+01  0.20000000000E-01 0.  1.
</event>
<event>
 5   0  0.3603037E+08  0.9118800E+02  0.7818608E-02  0.1180000E+00
       11   -1    0    0    0    0  0.00000000000E+00  0.00000000000E+00  0.39999999673E+01  0.40000000000E+01  0.51109989000E-03 0. -1.
     -623   -1    0    0    0    0  0.00000000000E+00  0.00000000000E+00  0.12525980253E-10  0.17130000000E+03  0.17130000000E+03 0. -1.
       11    1    1    2    0    0  0.35594009352E-02 -0.12907890404E-01  0.16490241089E+01  0.16490785475E+01  0.51109989000E-03 0. -1.
     -623    1    1    2    0    0 -0.21213158264E-02  0.52412495162E-02  0.15251521927E-03  0.17130000009E+03  0.17130000000E+03 0. -1.
      622    1    1    2    0    0 -0.14380851088E-02  0.76666408879E-02  0.23508233433E+01  0.23509213591E+01  0.20000000000E-01 0.  0.
</event>
<event>
 5   0  0.3603037E+08  0.9118800E+02  0.7818608E-02  0.1180000E+00
       11   -1    0    0    0    0  0.00000000000E+00  0.00000000000E+00  0.39999999673E+01  0.40000000000E+01  0.51109989000E-03 0.  1.
     -623   -1    0    0    0    0  0.00000000000E+00  0.00000000000E+00  0.12525980253E-10  0.17130000000E+03  0.17130000000E+03 0.  1.
       11    1    1    2    0    0 -0.23448749278E-02 -0.44564012932E-02  0.26591514039E+00  0.26596330774E+00  0.51109989000E-03 0.  1.
     -623    1    1    2    0    0  0.22950442980E-03  0.10479656318E-03  0.10483153679E-03  0.17130000000E+03  0.17130000000E+03 0.  1.
      622    1    1    2    0    0  0.21153704980E-02  0.43516047300E-02  0.37339799954E+01  0.37340366920E+01  0.20000000000E-01 0.  1.
</event>
<event>
 5   0  0.3603037E+08  0.9118800E+02  0.7818608E-02  0.1180000E+00
       11   -1    0    0    0    0  0.00000000000E+00  0.00000000000E+00  0.39999999673E+01  0.40000000000E+01  0.51109989000E-03 0.  1.
     -623   -1    0    0    0    0  0.00000000000E+00  0.00000000000E+00  0.12525980253E-10  0.17130000000E+03  0.17130000000E+03 0. -1.
       11    1    1    2    0    0  0.75734982749E-02  0.98336990452E-03  0.19537178186E+00  0.19552165932E+00  0.51109989000E-03 0.  1.
     -623    1    1    2    0    0 -0.11837465799E-02 -0.26638423244E-02  0.20817685827E-03  0.17130000002E+03  0.17130000000E+03 0. -1.
      622    1    1    2    0    0 -0.63897516949E-02  0.16804724199E-02  0.38044200086E+01  0.38044783158E+01  0.20000000000E-01 0.  1.
</event>
<event>
 5   0  0.3603037E+08  0.9118800E+02  0.7818608E-02  0.1180000E+00
       11   -1    0    0    0    0  0.00000000000E+00  0.00000000000E+00  0.39999999673E+01  0.40000000000E+01  0.51109989000E-03 0. -1.
     -623   -1    0    0    0    0  0.00000000000E+00  0.00000000000E+00  0.12525980253E-10  0.17130000000E+03  0.17130000000E+03 0.  1.
       11    1    1    2    0    0 -0.80429293320E-03  0.17641152183E-02  0.63539826587E+00  0.63540142940E+00  0.51109989000E-03 0. -1.
     -623    1    1    2    0    0 -0.40294616901E-05 -0.29250695956E-03  0.62993060321E-04  0.17130000000E+03  0.17130000000E+03 0.  1.
      622    1    1    2    0    0  0.80832239489E-03 -0.14716082587E-02  0.33645387084E+01  0.33645985703E+01  0.20000000000E-01 0. -1.
</event>
<event>
 5   0  0.3603037E+08  0.9118800E+02  0.7818608E-02  0.1180000E+00
       11   -1    0    0    0    0  0.00000000000E+00  0.00000000000E+00  0.39999999673E+01  0.40000000000E+01  0.51109989000E-03 0. -1.
     -623   -1    0    0    0    0  0.00000000000E+00  0.00000000000E+00  0.12525980253E-10  0.17130000000E+03  0.17130000000E+03 0.  1.
       11    1    1    2    0    0 -0.24689729054E-02  0.22617557213E-02  0.11772916071E+00  0.11777787513E+00  0.51109989000E-03 0. -1.
     -623    1    1    2    0    0  0.41799255355E-03  0.75316890762E-03  0.10191368694E-03  0.17130000000E+03  0.17130000000E+03 0.  1.
      622    1    1    2    0    0  0.20509803518E-02 -0.30149246289E-02  0.38821688930E+01  0.38822221227E+01  0.20000000000E-01 0. -1.
</event>
<event>
 5   0  0.3603037E+08  0.9118800E+02  0.7818608E-02  0.1180000E+00
       11   -1    0    0    0    0  0.00000000000E+00  0.00000000000E+00  0.39999999673E+01  0.40000000000E+01  0.51109989000E-03 0.  1.
     -623   -1    0    0    0    0  0.00000000000E+00  0.00000000000E+00  0.12525980253E-10  0.17130000000E+03  0.17130000000E+03 0. -1.
       11    1    1    2    0    0 -0.17903279196E-02 -0.13932802441E-02  0.22751849558E+00  0.22753037942E+00  0.51109989000E-03 0.  1.
     -623    1    1    2    0    0 -0.10923313879E-02  0.24225123355E-02  0.66129644249E-04  0.17130000002E+03  0.17130000000E+03 0. -1.
      622    1    1    2    0    0  0.28826593075E-02 -0.10292320913E-02  0.37724153421E+01  0.37724696000E+01  0.20000000000E-01 0.  1.
</event>
<event>
 5   0  0.3603037E+08  0.9118800E+02  0.7818608E-02  0.1180000E+00
       11   -1    0    0    0    0  0.00000000000E+00  0.00000000000E+00  0.39999999673E+01  0.40000000000E+01  0.51109989000E-03 0.  1.
     -623   -1    0    0    0    0  0.00000000000E+00  0.00000000000E+00  0.12525980253E-10  0.17130000000E+03  0.17130000000E+03 0. -1.
       11    1    1    2    0    0  0.89115840212E-02 -0.24703488121E-01  0.25795288012E+00  0.25928676835E+00  0.51109989000E-03 0.  1.
     -623    1    1    2    0    0  0.11906728412E-01  0.13919902413E-01  0.14617827942E-02  0.17130000099E+03  0.17130000000E+03 0. -1.
      622    1    1    2    0    0 -0.20818312433E-01  0.10783585708E-01  0.37405853044E+01  0.37407122460E+01  0.20000000000E-01 0.  1.
</event>
<event>
 5   0  0.3603037E+08  0.9118800E+02  0.7818608E-02  0.1180000E+00
       11   -1    0    0    0    0  0.00000000000E+00  0.00000000000E+00  0.39999999673E+01  0.40000000000E+01  0.51109989000E-03 0.  1.
     -623   -1    0    0    0    0  0.00000000000E+00  0.00000000000E+00  0.12525980253E-10  0.17130000000E+03  0.17130000000E+03 0.  1.
       11    1    1    2    0    0  0.25865384697E-01  0.10073482777E-01  0.86317584494E+00  0.86362219383E+00  0.51109989000E-03 0.  1.
     -623    1    1    2    0    0  0.96531040649E-03 -0.10173901368E-02  0.63793526495E-03  0.17130000001E+03  0.17130000000E+03 0.  1.
      622    1    1    2    0    0 -0.26830695103E-01 -0.90560926405E-02  0.31361861872E+01  0.31363777992E+01  0.20000000000E-01 0.  1.
</event>
<event>
 5   0  0.3603037E+08  0.9118800E+02  0.7818608E-02  0.1180000E+00
       11   -1    0    0    0    0  0.00000000000E+00  0.00000000000E+00  0.39999999673E+01  0.40000000000E+01  0.51109989000E-03 0. -1.
     -623   -1    0    0    0    0  0.00000000000E+00  0.00000000000E+00  0.12525980253E-10  0.17130000000E+03  0.17130000000E+03 0. -1.
       11    1    1    2    0    0  0.10961873096E-01 -0.96375140572E-02  0.20636384014E+01  0.20636900827E+01  0.51109989000E-03 0. -1.
     -623    1    1    2    0    0  0.32282959572E-03 -0.42095042124E-03  0.21395406504E-03  0.17130000000E+03  0.17130000000E+03 0. -1.
      622    1    1    2    0    0 -0.11284702692E-01  0.10058464478E-01  0.19361476119E+01  0.19363099164E+01  0.20000000000E-01 0.  0.
</event>
<event>
 5   0  0.3603037E+08  0.9118800E+02  0.7818608E-02  0.1180000E+00
       11   -1    0    0    0    0  0.00000000000E+00  0.00000000000E+00  0.39999999673E+01  0.40000000000E+01  0.51109989000E-03 0.  1.
     -623   -1    0    0    0    0  0.00000000000E+00  0.00000000000E+00  0.12525980253E-10  0.17130000000E+03  0.17130000000E+03 0. -1.
       11    1    1    2    0    0 -0.75032284294E-02  0.44455045537E-03  0.13417726782E+00  0.13438860250E+00  0.51109989000E-03 0.  1.
     -623    1    1    2    0    0 -0.81456601948E-03 -0.48321597412E-02  0.27455005003E-03  0.17130000007E+03  0.17130000000E+03 0. -1.
      622    1    1    2    0    0  0.83177944489E-02  0.43876092858E-02  0.38655481495E+01  0.38656113272E+01  0.20000000000E-01 0.  1.
</event>
<event>
 5   0  0.3603037E+08  0.9118800E+02  0.7818608E-02  0.1180000E+00
       11   -1    0    0    0    0  0.00000000000E+00  0.00000000000E+00  0.39999999673E+01  0.40000000000E+01  0.51109989000E-03 0.  1.
     -623   -1    0    0    0    0  0.00000000000E+00  0.00000000000E+00  0.12525980253E-10  0.17130000000E+03  0.17130000000E+03 0.  1.
       11    1    1    2    0    0 -0.13587590329E-02  0.56156310964E-02  0.25464123317E+00  0.25470728375E+00  0.51109989000E-03 0.  1.
     -623    1    1    2    0    0 -0.51761236860E-03 -0.58337762670E-03  0.12327130018E-03  0.17130000000E+03  0.17130000000E+03 0.  1.
      622    1    1    2    0    0  0.18763714015E-02 -0.50322534697E-02  0.37452354629E+01  0.37452927144E+01  0.20000000000E-01 0.  1.
</event>
<event>
 5   0  0.3603037E+08  0.9118800E+02  0.7818608E-02  0.1180000E+00
       11   -1    0    0    0    0  0.00000000000E+00  0.00000000000E+00  0.39999999673E+01  0.40000000000E+01  0.51109989000E-03 0. -1.
     -623   -1    0    0    0    0  0.00000000000E+00  0.00000000000E+00  0.12525980253E-10  0.17130000000E+03  0.17130000000E+03 0.  1.
       11    1    1    2    0    0  0.31461069506E-02  0.14344736128E-01  0.93218965758E+00  0.93230546945E+00  0.51109989000E-03 0. -1.
     -623    1    1    2    0    0 -0.64381885185E-03  0.51269984064E-02  0.24387306535E-03  0.17130000008E+03  0.17130000000E+03 0.  1.
      622    1    1    2    0    0 -0.25022880987E-02 -0.19471734535E-01  0.30675664367E+01  0.30676944524E+01  0.20000000000E-01 0.  0.
</event>
<event>
 5   0  0.3603037E+08  0.9118800E+02  0.7818608E-02  0.1180000E+00
       11   -1    0    0    0    0  0.00000000000E+00  0.00000000000E+00  0.39999999673E+01  0.40000000000E+01  0.51109989000E-03 0.  1.
     -623   -1    0    0    0    0  0.00000000000E+00  0.00000000000E+00  0.12525980253E-10  0.17130000000E+03  0.17130000000E+03 0.  1.
       11    1    1    2    0    0  0.18231255805E-02 -0.24331132341E-02  0.61023061457E-01  0.61100892612E-01  0.51109989000E-03 0.  1.
     -623    1    1    2    0    0 -0.58094090693E-02  0.22613123085E-02  0.13070882856E-03  0.17130000011E+03  0.17130000000E+03 0.  1.
      622    1    1    2    0    0  0.39862834888E-02  0.17180092562E-03  0.39388461971E+01  0.39388989939E+01  0.20000000000E-01 0.  1.
</event>
<event>
 5   0  0.3603037E+08  0.9118800E+02  0.7818608E-02  0.1180000E+00
       11   -1    0    0    0    0  0.00000000000E+00  0.00000000000E+00  0.39999999673E+01  0.40000000000E+01  0.51109989000E-03 0.  1.
     -623   -1    0    0    0    0  0.00000000000E+00  0.00000000000E+00  0.12525980253E-10  0.17130000000E+03  0.17130000000E+03 0. -1.
       11    1    1    2    0    0  0.81505703505E-02 -0.14842417106E-01  0.94108855564E+00  0.94124102116E+00  0.51109989000E-03 0.  1.
     -623    1    1    2    0    0 -0.47972878678E-03 -0.66766422674E-03  0.26676533872E-03  0.17130000000E+03  0.17130000000E+03 0. -1.
      622    1    1    2    0    0 -0.76708415637E-02  0.15510081333E-01  0.30586446464E+01  0.30587589767E+01  0.20000000000E-01 0.  1.
</event>
<event>
 5   0  0.3603037E+08  0.9118800E+02  0.7818608E-02  0.1180000E+00
       11   -1    0    0    0    0  0.00000000000E+00  0.00000000000E+00  0.39999999673E+01  0.40000000000E+01  0.51109989000E-03 0. -1.
     -623   -1    0    0    0    0  0.00000000000E+00  0.00000000000E+00  0.12525980253E-10  0.17130000000E+03  0.17130000000E+03 0. -1.
       11    1    1    2    0    0 -0.18211445729E-02 -0.26811688552E-02  0.57948766534E-01  0.58041588526E-01  0.51109989000E-03 0. -1.
     -623    1    1    2    0    0  0.41886055299E-03 -0.34208088085E-04  0.14471112150E-03  0.17130000000E+03  0.17130000000E+03 0. -1.
      622    1    1    2    0    0  0.14022840199E-02  0.27153769433E-02  0.39419064897E+01  0.39419584109E+01  0.20000000000E-01 0. -1.
</event>
<event>
 5   0  0.3603037E+08  0.9118800E+02  0.7818608E-02  0.1180000E+00
       11   -1    0    0    0    0  0.00000000000E+00  0.00000000000E+00  0.39999999673E+01  0.40000000000E+01  0.51109989000E-03 0. -1.
     -623   -1    0    0    0    0  0.00000000000E+00  0.00000000000E+00  0.12525980253E-10  0.17130000000E+03  0.17130000000E+03 0. -1.
       11    1    1    2    0    0 -0.30309135772E-02  0.18337266809E-01  0.43430708598E+00  0.43470489754E+00  0.51109989000E-03 0. -1.
     -623    1    1    2    0    0  0.21622194190E-03  0.79081200063E-03  0.50630247385E-03  0.17130000000E+03  0.17130000000E+03 0. -1.
      622    1    1    2    0    0  0.28146916353E-02 -0.19128078810E-01  0.35651865789E+01  0.35652950998E+01  0.20000000000E-01 0. -1.
</event>
<event>
 5   0  0.3603037E+08  0.9118800E+02  0.7818608E-02  0.1180000E+00
       11   -1    0    0    0    0  0.00000000000E+00  0.00000000000E+00  0.39999999673E+01  0.40000000000E+01  0.51109989000E-03 0. -1.
     -623   -1    0    0    0    0  0.00000000000E+00  0.00000000000E+00  0.12525980253E-10  0.17130000000E+03  0.17130000000E+03 0. -1.
       11    1    1    2    0    0  0.21876522220E-01 -0.15277103184E-01  0.59836707905E+00  0.59896193086E+00  0.51109989000E-03 0. -1.
     -623    1    1    2    0    0  0.38386580413E-02  0.64068925582E-02  0.76257653457E-03  0.17130000016E+03  0.17130000000E+03 0. -1.
      622    1    1    2    0    0 -0.25715180262E-01  0.88702106253E-02  0.34008703118E+01  0.34010379046E+01  0.20000000000E-01 0. -1.
</event>
<event>
 5   0  0.3603037E+08  0.9118800E+02  0.7818608E-02  0.1180000E+00
       11   -1    0    0    0    0  0.00000000000E+00  0.00000000000E+00  0.39999999673E+01  0.40000000000E+01  0.51109989000E-03 0.  1.
     -623   -1    0    0    0    0  0.00000000000E+00  0.00000000000E+00  0.12525980253E-10  0.17130000000E+03  0.17130000000E+03 0.  1.
       11    1    1    2    0    0  0.65292956059E-02 -0.21708731330E-03  0.13667479019E+00  0.13683178842E+00  0.51109989000E-03 0.  1.
     -623    1    1    2    0    0  0.20458485008E-03  0.81345018098E-03  0.21465412776E-03  0.17130000000E+03  0.17130000000E+03 0.  1.
      622    1    1    2    0    0 -0.67338804560E-02 -0.59636286767E-03  0.38631105230E+01  0.38631682094E+01  0.20000000000E-01 0.  1.
</event>
<event>
 5   0  0.3603037E+08  0.9118800E+02  0.7818608E-02  0.1180000E+00
       11   -1    0    0    0    0  0.00000000000E+00  0.00000000000E+00  0.39999999673E+01  0.40000000000E+01  0.51109989000E-03 0.  1.
     -623   -1    0    0    0    0  0.00000000000E+00  0.00000000000E+00  0.12525980253E-10  0.17130000000E+03  0.17130000000E+03 0.  1.
       11    1    1    2    0    0  0.29084862591E-03  0.39778509003E-02  0.20391231579E-01  0.20783922558E-01  0.51109989000E-03 0.  1.
     -623    1    1    2    0    0 -0.30126570533E-03  0.20247762165E-03  0.44511662011E-03  0.17130000000E+03  0.17130000000E+03 0.  1.
      622    1    1    2    0    0  0.10417079421E-04 -0.41803285220E-02  0.39791636192E+01  0.39792160765E+01  0.20000000000E-01 0.  1.
</event>
<event>
 5   0  0.3603037E+08  0.9118800E+02  0.7818608E-02  0.1180000E+00
       11   -1    0    0    0    0  0.00000000000E+00  0.00000000000E+00  0.39999999673E+01  0.40000000000E+01  0.51109989000E-03 0. -1.
     -623   -1    0    0    0    0  0.00000000000E+00  0.00000000000E+00  0.12525980253E-10  0.17130000000E+03  0.17130000000E+03 0.  1.
       11    1    1    2    0    0 -0.37539431100E-01 -0.24522463805E-01  0.14245259727E+00  0.14934377727E+00  0.51109989000E-03 0. -1.
     -623    1    1    2    0    0  0.40740583358E-01  0.40876753007E-01  0.69890123182E-02  0.17130000986E+03  0.17130000000E+03 0.  1.
      622    1    1    2    0    0 -0.32011522580E-02 -0.16354289202E-01  0.38505583578E+01  0.38506463583E+01  0.20000000000E-01 0. -1.
</event>
<event>
 5   0  0.3603037E+08  0.9118800E+02  0.7818608E-02  0.1180000E+00
       11   -1    0    0    0    0  0.00000000000E+00  0.00000000000E+00  0.39999999673E+01  0.40000000000E+01  0.51109989000E-03 0.  1.
     -623   -1    0    0    0    0  0.00000000000E+00  0.00000000000E+00  0.12525980253E-10  0.17130000000E+03  0.17130000000E+03 0. -1.
       11    1    1    2    0    0  0.18189116833E-02 -0.99087113484E-03  0.17807015695E-01  0.17934360703E-01  0.51109989000E-03 0. -1.
     -623    1    1    2    0    0  0.23652620976E-03 -0.88860372758E-03  0.17851447049E-03  0.17130000000E+03  0.17130000000E+03 0. -1.
      622    1    1    2    0    0 -0.20554378931E-02  0.18794748624E-02  0.39820144372E+01  0.39820656367E+01  0.20000000000E-01 0.  1.
</event>
<event>
 5   0  0.3603037E+08  0.9118800E+02  0.7818608E-02  0.1180000E+00
       11   -1    0    0    0    0  0.00000000000E+00  0.00000000000E+00  0.39999999673E+01  0.40000000000E+01  0.51109989000E-03 0. -1.
     -623   -1    0    0    0    0  0.00000000000E+00  0.00000000000E+00  0.12525980253E-10  0.17130000000E+03  0.17130000000E+03 0.  1.
       11    1    1    2    0    0  0.12526393614E-02  0.24429011810E-02  0.20646713329E+00  0.20648601701E+00  0.51109989000E-03 0. -1.
     -623    1    1    2    0    0 -0.64936696508E-02 -0.31975124297E-02  0.75421506822E-04  0.17130000015E+03  0.17130000000E+03 0.  1.
      622    1    1    2    0    0  0.52410302893E-02  0.75461124871E-03  0.37934574126E+01  0.37935138300E+01  0.20000000000E-01 0. -1.
</event>
<event>
 5   0  0.3603037E+08  0.9118800E+02  0.7818608E-02  0.1180000E+00
       11   -1    0    0    0    0  0.00000000000E+00  0.00000000000E+00  0.39999999673E+01  0.40000000000E+01  0.51109989000E-03 0. -1.
     -623   -1    0    0    0    0  0.00000000000E+00  0.00000000000E+00  0.12525980253E-10  0.17130000000E+03  0.17130000000E+03 0.  1.
       11    1    1    2    0    0  0.27362094605E-03  0.16987244972E-04  0.36948680234E-01  0.36953231925E-01  0.51109989000E-03 0. -1.
     -623    1    1    2    0    0  0.17649507051E-03  0.15785303926E-03  0.55015186334E-04  0.17130000000E+03  0.17130000000E+03 0.  1.
      622    1    1    2    0    0 -0.45011601656E-03 -0.17484028423E-03  0.39629962719E+01  0.39630467679E+01  0.20000000000E-01 0. -1.
</event>
<event>
 5   0  0.3603037E+08  0.9118800E+02  0.7818608E-02  0.1180000E+00
       11   -1    0    0    0    0  0.00000000000E+00  0.00000000000E+00  0.39999999673E+01  0.40000000000E+01  0.51109989000E-03 0. -1.
     -623   -1    0    0    0    0  0.00000000000E+00  0.00000000000E+00  0.12525980253E-10  0.17130000000E+03  0.17130000000E+03 0. -1.
       11    1    1    2    0    0 -0.56249300803E-02 -0.59073591585E-02  0.60767335802E-01  0.61314492998E-01  0.51109989000E-03 0. -1.
     -623    1    1    2    0    0  0.12708748426E-02  0.57760404630E-02  0.60041523031E-03  0.17130000010E+03  0.17130000000E+03 0. -1.
      622    1    1    2    0    0  0.43540552377E-02  0.13131869551E-03  0.39386322163E+01  0.39386854039E+01  0.20000000000E-01 0. -1.
</event>
<event>
 5   0  0.3603037E+08  0.9118800E+02  0.7818608E-02  0.1180000E+00
       11   -1    0    0    0    0  0.00000000000E+00  0.00000000000E+00  0.39999999673E+01  0.40000000000E+01  0.51109989000E-03 0.  1.
     -623   -1    0    0    0    0  0.00000000000E+00  0.00000000000E+00  0.12525980253E-10  0.17130000000E+03  0.17130000000E+03 0.  1.
       11    1    1    2    0    0  0.61071255928E-02 -0.13957812189E-01  0.84840846619E+00  0.84854540493E+00  0.51109989000E-03 0.  1.
     -623    1    1    2    0    0  0.10412270245E-02  0.96049721513E-03  0.23528555245E-03  0.17130000001E+03  0.17130000000E+03 0.  1.
      622    1    1    2    0    0 -0.71483526173E-02  0.12997314974E-01  0.31513562156E+01  0.31514545891E+01  0.20000000000E-01 0.  1.
</event>
<event>
 5   0  0.3603037E+08  0.9118800E+02  0.7818608E-02  0.1180000E+00
       11   -1    0    0    0    0  0.00000000000E+00  0.00000000000E+00  0.39999999673E+01  0.40000000000E+01  0.51109989000E-03 0.  1.
     -623   -1    0    0    0    0  0.00000000000E+00  0.00000000000E+00  0.12525980253E-10  0.17130000000E+03  0.17130000000E+03 0.  1.
       11    1    1    2    0    0  0.11960851004E-02  0.70408474596E-03  0.32098265153E-01  0.32132323314E-01  0.51109989000E-03 0.  1.
     -623    1    1    2    0    0 -0.20498265789E-02 -0.29746760054E-02  0.85210385049E-04  0.17130000004E+03  0.17130000000E+03 0.  1.
      622    1    1    2    0    0  0.85374147849E-03  0.22705912594E-02  0.39678164918E+01  0.39678676386E+01  0.20000000000E-01 0.  1.
</event>
<event>
 5   0  0.3603037E+08  0.9118800E+02  0.7818608E-02  0.1180000E+00
       11   -1    0    0    0    0  0.00000000000E+00  0.00000000000E+00  0.39999999673E+01  0.40000000000E+01  0.51109989000E-03 0.  1.
     -623   -1    0    0    0    0  0.00000000000E+00  0.00000000000E+00  0.12525980253E-10  0.17130000000E+03  0.17130000000E+03 0. -1.
       11    1    1    2    0    0  0.13685425600E-02  0.71170482025E-03  0.13717353719E-01  0.13813270653E-01  0.51109989000E-03 0.  1.
     -623    1    1    2    0    0  0.25259810670E-03 -0.45260724859E-03  0.14639679628E-03  0.17130000000E+03  0.17130000000E+03 0. -1.
      622    1    1    2    0    0 -0.16211406667E-02 -0.25909757165E-03  0.39861362168E+01  0.39861867285E+01  0.20000000000E-01 0.  1.
</event>
<event>
 5   0  0.3603037E+08  0.9118800E+02  0.7818608E-02  0.1180000E+00
       11   -1    0    0    0    0  0.00000000000E+00  0.00000000000E+00  0.39999999673E+01  0.40000000000E+01  0.51109989000E-03 0. -1.
     -623   -1    0    0    0    0  0.00000000000E+00  0.00000000000E+00  0.12525980253E-10  0.17130000000E+03  0.17130000000E+03 0.  1.
       11    1    1    2    0    0  0.23278500523E-03  0.12584476468E-03  0.11277458751E+00  0.11277605613E+00  0.51109989000E-03 0. -1.
     -623    1    1    2    0    0  0.31736725842E-04 -0.14082289906E-03  0.52896018900E-04  0.17130000000E+03  0.17130000000E+03 0.  1.
      622    1    1    2    0    0 -0.26452173107E-03  0.14978134374E-04  0.38871724838E+01  0.38872239438E+01  0.20000000000E-01 0. -1.
</event>
<event>
 5   0  0.3603037E+08  0.9118800E+02  0.7818608E-02  0.1180000E+00
       11   -1    0    0    0    0  0.00000000000E+00  0.00000000000E+00  0.39999999673E+01  0.40000000000E+01  0.51109989000E-03 0.  1.
     -623   -1    0    0    0    0  0.00000000000E+00  0.00000000000E+00  0.12525980253E-10  0.17130000000E+03  0.17130000000E+03 0. -1.
       11    1    1    2    0    0  0.65393323272E-02  0.21179934026E-02  0.25093453031E+01  0.25093547697E+01  0.51109989000E-03 0.  1.
     -623    1    1    2    0    0  0.50253896481E-03  0.12638661659E-02  0.16408683832E-03  0.17130000001E+03  0.17130000000E+03 0. -1.
      622    1    1    2    0    0 -0.70418712920E-02 -0.33818595684E-02  0.14904905774E+01  0.14906452248E+01  0.20000000000E-01 0.  0.
</event>
<event>
 5   0  0.3603037E+08  0.9118800E+02  0.7818608E-02  0.1180000E+00
       11   -1    0    0    0    0  0.00000000000E+00  0.00000000000E+00  0.39999999673E+01  0.40000000000E+01  0.51109989000E-03 0.  1.
     -623   -1    0    0    0    0  0.00000000000E+00  0.00000000000E+00  0.12525980253E-10  0.17130000000E+03  0.17130000000E+03 0.  1.
       11    1    1    2    0    0 -0.12295666337E-01  0.23722369669E-01  0.11058140228E+01  0.11061369031E+01  0.51109989000E-03 0.  1.
     -623    1    1    2    0    0 -0.14490886066E-02  0.26642544349E-02  0.54493524793E-03  0.17130000003E+03  0.17130000000E+03 0.  1.
      622    1    1    2    0    0  0.13744754944E-01 -0.26386624104E-01  0.28936410093E+01  0.28938630692E+01  0.20000000000E-01 0.  0.
</event>
<event>
 5   0  0.3603037E+08  0.9118800E+02  0.7818608E-02  0.1180000E+00
       11   -1    0    0    0    0  0.00000000000E+00  0.00000000000E+00  0.39999999673E+01  0.40000000000E+01  0.51109989000E-03 0. -1.
     -623   -1    0    0    0    0  0.00000000000E+00  0.00000000000E+00  0.12525980253E-10  0.17130000000E+03  0.17130000000E+03 0.  1.
       11    1    1    2    0    0  0.56836559718E-03 -0.13011319901E-03  0.26714488741E+00  0.26714601262E+00  0.51109989000E-03 0. -1.
     -623    1    1    2    0    0  0.17696441804E-03 -0.64961745864E-03  0.54828443085E-04  0.17130000000E+03  0.17130000000E+03 0.  1.
      622    1    1    2    0    0 -0.74533001523E-03  0.77973065765E-03  0.37328002515E+01  0.37328539861E+01  0.20000000000E-01 0. -1.
</event>
<event>
 5   0  0.3603037E+08  0.9118800E+02  0.7818608E-02  0.1180000E+00
       11   -1    0    0    0    0  0.00000000000E+00  0.00000000000E+00  0.39999999673E+01  0.40000000000E+01  0.51109989000E-03 0. -1.
     -623   -1    0    0    0    0  0.00000000000E+00  0.00000000000E+00  0.12525980253E-10  0.17130000000E+03  0.17130000000E+03 0. -1.
       11    1    1    2    0    0 -0.52082596657E-02 -0.41783886257E-02  0.63251958247E+00  0.63255503186E+00  0.51109989000E-03 0. -1.
     -623    1    1    2    0    0  0.80717154054E-03 -0.80848836173E-03  0.10138200250E-03  0.17130000000E+03  0.17130000000E+03 0. -1.
      622    1    1    2    0    0  0.44010881252E-02  0.49868769875E-02  0.33673790029E+01  0.33674449643E+01  0.20000000000E-01 0. -1.
</event>
<event>
 5   0  0.3603037E+08  0.9118800E+02  0.7818608E-02  0.1180000E+00
       11   -1    0    0    0    0  0.00000000000E+00  0.00000000000E+00  0.39999999673E+01  0.40000000000E+01  0.51109989000E-03 0.  1.
     -623   -1    0    0    0    0  0.00000000000E+00  0.00000000000E+00  0.12525980253E-10  0.17130000000E+03  0.17130000000E+03 0.  1.
       11    1    1    2    0    0 -0.75090602142E-03 -0.11191546245E-02  0.19356321207E-02  0.24133502389E-02  0.51109989000E-03 0.  1.
     -623    1    1    2    0    0  0.12336138767E-03 -0.53422883881E-03  0.52810884480E-03  0.17130000000E+03  0.17130000000E+03 0.  1.
      622    1    1    2    0    0  0.62754463375E-03  0.16533834633E-02  0.39975362264E+01  0.39975866481E+01  0.20000000000E-01 0.  1.
</event>
<event>
 5   0  0.3603037E+08  0.9118800E+02  0.7818608E-02  0.1180000E+00
       11   -1    0    0    0    0  0.00000000000E+00  0.00000000000E+00  0.39999999673E+01  0.40000000000E+01  0.51109989000E-03 0. -1.
     -623   -1    0    0    0    0  0.00000000000E+00  0.00000000000E+00  0.12525980253E-10  0.17130000000E+03  0.17130000000E+03 0. -1.
       11    1    1    2    0    0 -0.78351128660E-02 -0.23307212670E-01  0.29515404051E+01  0.29516428713E+01  0.51109989000E-03 0. -1.
     -623    1    1    2    0    0 -0.53791728897E-02  0.16395006885E-01  0.40018875246E-03  0.17130000087E+03  0.17130000000E+03 0. -1.
      622    1    1    2    0    0  0.13214285756E-01  0.69122057846E-02  0.10480593735E+01  0.10483562592E+01  0.20000000000E-01 0. -1.
</event>
<event>
 5   0  0.3603037E+08  0.9118800E+02  0.7818608E-02  0.1180000E+00
       11   -1    0    0    0    0  0.00000000000E+00  0.00000000000E+00  0.39999999673E+01  0.40000000000E+01  0.51109989000E-03 0. -1.
     -623   -1    0    0    0    0  0.00000000000E+00  0.00000000000E+00  0.12525980253E-10  0.17130000000E+03  0.17130000000E+03 0. -1.
       11    1    1    2    0    0  0.12929921698E-02 -0.22452231839E-02  0.35687312155E-02  0.44395855845E-02  0.51109989000E-03 0.  1.
     -623    1    1    2    0    0 -0.75080747859E-03  0.15109441589E-02  0.92099264245E-03  0.17130000001E+03  0.17130000000E+03 0. -1.
      622    1    1    2    0    0 -0.54218469124E-03  0.73427902498E-03  0.39955102435E+01  0.39955604036E+01  0.20000000000E-01 0. -1.
</event>
<event>
 5   0  0.3603037E+08  0.9118800E+02  0.7818608E-02  0.1180000E+00
       11   -1    0    0    0    0  0.00000000000E+00  0.00000000000E+00  0.39999999673E+01  0.40000000000E+01  0.51109989000E-03 0.  1.
     -623   -1    0    0    0    0  0.00000000000E+00  0.00000000000E+00  0.12525980253E-10  0.17130000000E+03  0.17130000000E+03 0.  1.
       11    1    1    2    0    0  0.80078401128E-03 -0.53493009388E-03  0.76795312682E-01  0.76803051222E-01  0.51109989000E-03 0.  1.
     -623    1    1    2    0    0  0.20878622957E-03 -0.28024435553E-04  0.58855493725E-04  0.17130000000E+03  0.17130000000E+03 0.  1.
      622    1    1    2    0    0 -0.10095702408E-02  0.56295452943E-03  0.39231457992E+01  0.39231969486E+01  0.20000000000E-01 0.  1.
</event>
<event>
 5   0  0.3603037E+08  0.9118800E+02  0.7818608E-02  0.1180000E+00
       11   -1    0    0    0    0  0.00000000000E+00  0.00000000000E+00  0.39999999673E+01  0.40000000000E+01  0.51109989000E-03 0.  1.
     -623   -1    0    0    0    0  0.00000000000E+00  0.00000000000E+00  0.12525980253E-10  0.17130000000E+03  0.17130000000E+03 0. -1.
       11    1    1    2    0    0 -0.20095526896E-02  0.22645804436E-02  0.19085903394E+00  0.19088373080E+00  0.51109989000E-03 0.  1.
     -623    1    1    2    0    0 -0.94412693744E-04 -0.36271833746E-03  0.78226497000E-04  0.17130000000E+03  0.17130000000E+03 0. -1.
      622    1    1    2    0    0  0.21039653833E-02 -0.19018621061E-02  0.38090627069E+01  0.38091162688E+01  0.20000000000E-01 0.  1.
</event>
<event>
 5   0  0.3603037E+08  0.9118800E+02  0.7818608E-02  0.1180000E+00
       11   -1    0    0    0    0  0.00000000000E+00  0.00000000000E+00  0.39999999673E+01  0.40000000000E+01  0.51109989000E-03 0.  1.
     -623   -1    0    0    0    0  0.00000000000E+00  0.00000000000E+00  0.12525980253E-10  0.17130000000E+03  0.17130000000E+03 0. -1.
       11    1    1    2    0    0 -0.42051620472E-03 -0.13294766545E-02  0.10983897873E+00  0.10984901825E+00  0.51109989000E-03 0.  1.
     -623    1    1    2    0    0 -0.92401577959E-03  0.34738805855E-03  0.61778285156E-04  0.17130000000E+03  0.17130000000E+03 0. -1.
      622    1    1    2    0    0  0.13445319843E-02  0.98208859590E-03  0.38900992103E+01  0.38901509789E+01  0.20000000000E-01 0.  1.
</event>
<event>
 5   0  0.3603037E+08  0.9118800E+02  0.7818608E-02  0.1180000E+00
       11   -1    0    0    0    0  0.00000000000E+00  0.00000000000E+00  0.39999999673E+01  0.40000000000E+01  0.51109989000E-03 0.  1.
     -623   -1    0    0    0    0  0.00000000000E+00  0.00000000000E+00  0.12525980253E-10  0.17130000000E+03  0.17130000000E+03 0.  1.
       11    1    1    2    0    0 -0.36017842625E-02 -0.25719548931E-03  0.12437873878E+01  0.12437927344E+01  0.51109989000E-03 0.  1.
     -623    1    1    2    0    0 -0.79842722061E-04 -0.13381228956E-03  0.80365222371E-04  0.17130000000E+03  0.17130000000E+03 0.  1.
      622    1    1    2    0    0  0.36816269846E-02  0.39100777886E-03  0.27561322144E+01  0.27562072655E+01  0.20000000000E-01 0.  1.
</event>
<event>
 5   0  0.3603037E+08  0.9118800E+02  0.7818608E-02  0.1180000E+00
       11   -1    0    0    0    0  0.00000000000E+00  0.00000000000E+00  0.39999999673E+01  0.40000000000E+01  0.51109989000E-03 0. -1.
     -623   -1    0    0    0    0  0.00000000000E+00  0.00000000000E+00  0.12525980253E-10  0.17130000000E+03  0.17130000000E+03 0.  1.
       11    1    1    2    0    0  0.39548475908E-04 -0.11258824537E-02  0.38717824077E-01  0.38737582502E-01  0.51109989000E-03 0. -1.
     -623    1    1    2    0    0 -0.20786927814E-03 -0.24782083692E-03  0.70457149515E-04  0.17130000000E+03  0.17130000000E+03 0.  1.
      622    1    1    2    0    0  0.16832080223E-03  0.13737032906E-02  0.39612116861E+01  0.39612624172E+01  0.20000000000E-01 0. -1.
</event>
<event>
 5   0  0.3603037E+08  0.9118800E+02  0.7818608E-02  0.1180000E+00
       11   -1    0    0    0    0  0.00000000000E+00  0.00000000000E+00  0.39999999673E+01  0.40000000000E+01  0.51109989000E-03 0. -1.
     -623   -1    0    0    0    0  0.00000000000E+00  0.00000000000E+00  0.12525980253E-10  0.17130000000E+03  0.17130000000E+03 0.  1.
       11    1    1    2    0    0  0.27798069230E-02 -0.13059692354E-02  0.21472008882E+00  0.21474266145E+00  0.51109989000E-03 0. -1.
     -623    1    1    2    0    0  0.25146106114E-04  0.43243773915E-03  0.76517563726E-04  0.17130000000E+03  0.17130000000E+03 0.  1.
      622    1    1    2    0    0 -0.28049530292E-02  0.87353149629E-03  0.37852033610E+01  0.37852573380E+01  0.20000000000E-01 0. -1.
</event>
<event>
 5   0  0.3603037E+08  0.9118800E+02  0.7818608E-02  0.1180000E+00
       11   -1    0    0    0    0  0.00000000000E+00  0.00000000000E+00  0.39999999673E+01  0.40000000000E+01  0.51109989000E-03 0. -1.
     -623   -1    0    0    0    0  0.00000000000E+00  0.00000000000E+00  0.12525980253E-10  0.17130000000E+03  0.17130000000E+03 0.  1.
       11    1    1    2    0    0  0.53328198140E-03 -0.32742911194E-03  0.11012227412E+00  0.11012523815E+00  0.51109989000E-03 0. -1.
     -623    1    1    2    0    0  0.31913851553E-03  0.34290797283E-04  0.54452023301E-04  0.17130000000E+03  0.17130000000E+03 0.  1.
      622    1    1    2    0    0 -0.85242049693E-03  0.29313831466E-03  0.38898232412E+01  0.38898747615E+01  0.20000000000E-01 0. -1.
</event>
<event>
 5   0  0.3603037E+08  0.9118800E+02  0.7818608E-02  0.1180000E+00
       11   -1    0    0    0    0  0.00000000000E+00  0.00000000000E+00  0.39999999673E+01  0.40000000000E+01  0.51109989000E-03 0. -1.
     -623   -1    0    0    0    0  0.00000000000E+00  0.00000000000E+00  0.12525980253E-10  0.17130000000E+03  0.17130000000E+03 0.  1.
       11    1    1    2    0    0  0.20362035021E-03  0.54593882583E-03  0.10101780848E-01  0.10131471149E-01  0.51109989000E-03 0. -1.
     -623    1    1    2    0    0 -0.52638358389E-03 -0.14695690368E-03  0.79818835087E-04  0.17130000000E+03  0.17130000000E+03 0.  1.
      622    1    1    2    0    0  0.32276323368E-03 -0.39898192215E-03  0.39898183677E+01  0.39898685280E+01  0.20000000000E-01 0. -1.
</event>
<event>
 5   0  0.3603037E+08  0.9118800E+02  0.7818608E-02  0.1180000E+00
       11   -1    0    0    0    0  0.00000000000E+00  0.00000000000E+00  0.39999999673E+01  0.40000000000E+01  0.51109989000E-03 0.  1.
     -623   -1    0    0    0    0  0.00000000000E+00  0.00000000000E+00  0.12525980253E-10  0.17130000000E+03  0.17130000000E+03 0. -1.
       11    1    1    2    0    0 -0.19973749021E-02  0.18253767332E-02  0.66045366773E-01  0.66102747298E-01  0.51109989000E-03 0.  1.
     -623    1    1    2    0    0 -0.66944594906E-03 -0.20527231178E-02  0.10911253521E-03  0.17130000001E+03  0.17130000000E+03 0. -1.
      622    1    1    2    0    0  0.26668208511E-02  0.22734638457E-03  0.39338454881E+01  0.39338972391E+01  0.20000000000E-01 0.  1.
</event>
<event>
 5   0  0.3603037E+08  0.9118800E+02  0.7818608E-02  0.1180000E+00
       11   -1    0    0    0    0  0.00000000000E+00  0.00000000000E+00  0.39999999673E+01  0.40000000000E+01  0.51109989000E-03 0. -1.
     -623   -1    0    0    0    0  0.00000000000E+00  0.00000000000E+00  0.12525980253E-10  0.17130000000E+03  0.17130000000E+03 0.  1.
       11    1    1    2    0    0 -0.14094099023E-01 -0.50286848546E-02  0.15089644665E+01  0.15090387515E+01  0.51109989000E-03 0. -1.
     -623    1    1    2    0    0  0.10131699692E-01  0.55591769376E-03  0.16201201227E-03  0.17130000030E+03  0.17130000000E+03 0.  1.
      622    1    1    2    0    0  0.39623993311E-02  0.44727671608E-02  0.24908734888E+01  0.24909609478E+01  0.20000000000E-01 0. -1.
</event>
<event>
 5   0  0.3603037E+08  0.9118800E+02  0.7818608E-02  0.1180000E+00
       11   -1    0    0    0    0  0.00000000000E+00  0.00000000000E+00  0.39999999673E+01  0.40000000000E+01  0.51109989000E-03 0. -1.
     -623   -1    0    0    0    0  0.00000000000E+00  0.00000000000E+00  0.12525980253E-10  0.17130000000E+03  0.17130000000E+03 0.  1.
       11    1    1    2    0    0 -0.10060048673E-01  0.39800211280E-02  0.18569703095E+00  0.18601261697E+00  0.51109989000E-03 0. -1.
     -623    1    1    2    0    0 -0.45598804580E-03 -0.65928206126E-04  0.38449958659E-03  0.17130000000E+03  0.17130000000E+03 0.  1.
      622    1    1    2    0    0  0.10516036718E-01 -0.39140929219E-02  0.38139184368E+01  0.38139873820E+01  0.20000000000E-01 0. -1.
</event>
<event>
 5   0  0.3603037E+08  0.9118800E+02  0.7818608E-02  0.1180000E+00
       11   -1    0    0    0    0  0.00000000000E+00  0.00000000000E+00  0.39999999673E+01  0.40000000000E+01  0.51109989000E-03 0.  1.
     -623   -1    0    0    0    0  0.00000000000E+00  0.00000000000E+00  0.12525980253E-10  0.17130000000E+03  0.17130000000E+03 0.  1.
       11    1    1    2    0    0 -0.69711425444E-02 -0.24372972207E-01  0.48810601885E+00  0.48876414093E+00  0.51109989000E-03 0.  1.
     -623    1    1    2    0    0 -0.14459573745E-02  0.84785301740E-02  0.76133225469E-03  0.17130000022E+03  0.17130000000E+03 0.  1.
      622    1    1    2    0    0  0.84170999188E-02  0.15894442033E-01  0.35111326163E+01  0.35112356415E+01  0.20000000000E-01 0.  1.
</event>
<event>
 5   0  0.3603037E+08  0.9118800E+02  0.7818608E-02  0.1180000E+00
       11   -1    0    0    0    0  0.00000000000E+00  0.00000000000E+00  0.39999999673E+01  0.40000000000E+01  0.51109989000E-03 0.  1.
     -623   -1    0    0    0    0  0.00000000000E+00  0.00000000000E+00  0.12525980253E-10  0.17130000000E+03  0.17130000000E+03 0.  1.
       11    1    1    2    0    0 -0.14756584515E-01 -0.90882242738E-02  0.10381844676E+01  0.10383292361E+01  0.51109989000E-03 0.  1.
     -623    1    1    2    0    0  0.36505153658E-02 -0.74661949785E-02  0.27955966351E-03  0.17130000020E+03  0.17130000000E+03 0.  1.
      622    1    1    2    0    0  0.11106069149E-01  0.16554419252E-01  0.29615359401E+01  0.29616705621E+01  0.20000000000E-01 0.  1.
</event>
<event>
 5   0  0.3603037E+08  0.9118800E+02  0.7818608E-02  0.1180000E+00
       11   -1    0    0    0    0  0.00000000000E+00  0.00000000000E+00  0.39999999673E+01  0.40000000000E+01  0.51109989000E-03 0. -1.
     -623   -1    0    0    0    0  0.00000000000E+00  0.00000000000E+00  0.12525980253E-10  0.17130000000E+03  0.17130000000E+03 0.  1.
       11    1    1    2    0    0 -0.47457682687E-04  0.17942064573E-03  0.24060235697E+00  0.24060297140E+00  0.51109989000E-03 0. -1.
     -623    1    1    2    0    0  0.48138812243E-03  0.28479064409E-03  0.53836812065E-04  0.17130000000E+03  0.17130000000E+03 0.  1.
      622    1    1    2    0    0 -0.43393043974E-03 -0.46421128982E-03  0.37593437736E+01  0.37593970277E+01  0.20000000000E-01 0. -1.
</event>
<event>
 5   0  0.3603037E+08  0.9118800E+02  0.7818608E-02  0.1180000E+00
       11   -1    0    0    0    0  0.00000000000E+00  0.00000000000E+00  0.39999999673E+01  0.40000000000E+01  0.51109989000E-03 0. -1.
     -623   -1    0    0    0    0  0.00000000000E+00  0.00000000000E+00  0.12525980253E-10  0.17130000000E+03  0.17130000000E+03 0. -1.
       11    1    1    2    0    0  0.10974104070E-01  0.50706169383E-02  0.11895501457E+01  0.11896116814E+01  0.51109989000E-03 0. -1.
     -623    1    1    2    0    0 -0.23392475965E-02 -0.27760515713E-02  0.14690932094E-03  0.17130000004E+03  0.17130000000E+03 0. -1.
      622    1    1    2    0    0 -0.86348564738E-02 -0.22945653670E-02  0.28103029123E+01  0.28103882801E+01  0.20000000000E-01 0. -1.
</event>
<event>
 5   0  0.3603037E+08  0.9118800E+02  0.7818608E-02  0.1180000E+00
       11   -1    0    0    0    0  0.00000000000E+00  0.00000000000E+00  0.39999999673E+01  0.40000000000E+01  0.51109989000E-03 0.  1.
     -623   -1    0    0    0    0  0.00000000000E+00  0.00000000000E+00  0.12525980253E-10  0.17130000000E+03  0.17130000000E+03 0.  1.
       11    1    1    2    0    0 -0.38287354118E-02  0.21213685478E-02  0.29020520426E+00  0.29023866252E+00  0.51109989000E-03 0.  1.
     -623    1    1    2    0    0 -0.19003735570E-02 -0.16060807027E-02  0.91815608797E-04  0.17130000002E+03  0.17130000000E+03 0.  1.
      622    1    1    2    0    0  0.57291089688E-02 -0.51528784508E-03  0.37097029475E+01  0.37097613194E+01  0.20000000000E-01 0.  1.
</event>
<event>
 5   0  0.3603037E+08  0.9118800E+02  0.7818608E-02  0.1180000E+00
       11   -1    0    0    0    0  0.00000000000E+00  0.00000000000E+00  0.39999999673E+01  0.40000000000E+01  0.51109989000E-03 0. -1.
     -623   -1    0    0    0    0  0.00000000000E+00  0.00000000000E+00  0.12525980253E-10  0.17130000000E+03  0.17130000000E+03 0.  1.
       11    1    1    2    0    0  0.21210405370E-02  0.63698259146E-03  0.12383466577E+00  0.12385552159E+00  0.51109989000E-03 0. -1.
     -623    1    1    2    0    0 -0.18432815277E-03  0.52228728468E-03  0.73079299691E-04  0.17130000000E+03  0.17130000000E+03 0.  1.
      622    1    1    2    0    0 -0.19367123843E-02 -0.11592698761E-02  0.38760922223E+01  0.38761444775E+01  0.20000000000E-01 0. -1.
</event>
<event>
 5   0  0.3603037E+08  0.9118800E+02  0.7818608E-02  0.1180000E+00
       11   -1    0    0    0    0  0.00000000000E+00  0.00000000000E+00  0.39999999673E+01  0.40000000000E+01  0.51109989000E-03 0. -1.
     -623   -1    0    0    0    0  0.00000000000E+00  0.00000000000E+00  0.12525980253E-10  0.17130000000E+03  0.17130000000E+03 0.  1.
       11    1    1    2    0    0 -0.13466862073E-01 -0.97472441622E-03  0.14516756047E+01  0.14517384850E+01  0.51109989000E-03 0. -1.
     -623    1    1    2    0    0 -0.21372057451E-03 -0.38824608770E-03  0.17842312520E-03  0.17130000000E+03  0.17130000000E+03 0.  1.
      622    1    1    2    0    0  0.13680582648E-01  0.13629705039E-02  0.25481459395E+01  0.25482615143E+01  0.20000000000E-01 0.  0.
</event>
<event>
 5   0  0.3603037E+08  0.9118800E+02  0.7818608E-02  0.1180000E+00
       11   -1    0    0    0    0  0.00000000000E+00  0.00000000000E+00  0.39999999673E+01  0.40000000000E+01  0.51109989000E-03 0. -1.
     -623   -1    0    0    0    0  0.00000000000E+00  0.00000000000E+00  0.12525980253E-10  0.17130000000E+03  0.17130000000E+03 0. -1.
       11    1    1    2    0    0 -0.10125007563E-02  0.10239909081E-02  0.21133137654E+00  0.21133690082E+00  0.51109989000E-03 0. -1.
     -623    1    1    2    0    0 -0.28744126915E-03 -0.19850169346E-03  0.58594390715E-04  0.17130000000E+03  0.17130000000E+03 0. -1.
      622    1    1    2    0    0  0.12999420255E-02 -0.82548921468E-03  0.37886099964E+01  0.37886630988E+01  0.20000000000E-01 0. -1.
</event>
<event>
 5   0  0.3603037E+08  0.9118800E+02  0.7818608E-02  0.1180000E+00
       11   -1    0    0    0    0  0.00000000000E+00  0.00000000000E+00  0.39999999673E+01  0.40000000000E+01  0.51109989000E-03 0. -1.
     -623   -1    0    0    0    0  0.00000000000E+00  0.00000000000E+00  0.12525980253E-10  0.17130000000E+03  0.17130000000E+03 0.  1.
       11    1    1    2    0    0  0.10801940544E-02  0.11851632298E-01  0.26533102030E+00  0.26559826724E+00  0.51109989000E-03 0. -1.
     -623    1    1    2    0    0 -0.14323303807E-01 -0.23770646817E-01  0.36552269853E-03  0.17130000225E+03  0.17130000000E+03 0.  1.
      622    1    1    2    0    0  0.13243109752E-01  0.11919014519E-01  0.37343034244E+01  0.37343994843E+01  0.20000000000E-01 0. -1.
</event>
<event>
 5   0  0.3603037E+08  0.9118800E+02  0.7818608E-02  0.1180000E+00
       11   -1    0    0    0    0  0.00000000000E+00  0.00000000000E+00  0.39999999673E+01  0.40000000000E+01  0.51109989000E-03 0.  1.
     -623   -1    0    0    0    0  0.00000000000E+00  0.00000000000E+00  0.12525980253E-10  0.17130000000E+03  0.17130000000E+03 0. -1.
       11    1    1    2    0    0 -0.81574207914E-02 -0.36542727755E-01  0.55511382327E+00  0.55637535214E+00  0.51109989000E-03 0.  1.
     -623    1    1    2    0    0 -0.22250578647E-02  0.35901232714E-02  0.14929568565E-02  0.17130000006E+03  0.17130000000E+03 0. -1.
      622    1    1    2    0    0  0.10382478656E-01  0.32952604484E-01  0.34433931872E+01  0.34436245893E+01  0.20000000000E-01 0.  1.
</event>
<event>
 5   0  0.3603037E+08  0.9118800E+02  0.7818608E-02  0.1180000E+00
       11   -1    0    0    0    0  0.00000000000E+00  0.00000000000E+00  0.39999999673E+01  0.40000000000E+01  0.51109989000E-03 0. -1.
     -623   -1    0    0    0    0  0.00000000000E+00  0.00000000000E+00  0.12525980253E-10  0.17130000000E+03  0.17130000000E+03 0. -1.
       11    1    1    2    0    0  0.94523910009E-03  0.13776471059E-02  0.47105717441E+00  0.47106041457E+00  0.51109989000E-03 0. -1.
     -623    1    1    2    0    0 -0.25442322404E-02 -0.91148535665E-03  0.60296607031E-04  0.17130000002E+03  0.17130000000E+03 0. -1.
      622    1    1    2    0    0  0.15989931403E-02 -0.46616174926E-03  0.35288824963E+01  0.35289395641E+01  0.20000000000E-01 0. -1.
</event>
<event>
 5   0  0.3603037E+08  0.9118800E+02  0.7818608E-02  0.1180000E+00
       11   -1    0    0    0    0  0.00000000000E+00  0.00000000000E+00  0.39999999673E+01  0.40000000000E+01  0.51109989000E-03 0. -1.
     -623   -1    0    0    0    0  0.00000000000E+00  0.00000000000E+00  0.12525980253E-10  0.17130000000E+03  0.17130000000E+03 0. -1.
       11    1    1    2    0    0 -0.79034209839E-02 -0.25019626713E-02  0.72340705869E-01  0.72815951742E-01  0.51109989000E-03 0. -1.
     -623    1    1    2    0    0  0.96715450067E-03  0.13132287393E-02  0.53245471147E-03  0.17130000001E+03  0.17130000000E+03 0. -1.
      622    1    1    2    0    0  0.69362664832E-02  0.11887339320E-02  0.39271268068E+01  0.39271840397E+01  0.20000000000E-01 0. -1.
</event>
<event>
 5   0  0.3603037E+08  0.9118800E+02  0.7818608E-02  0.1180000E+00
       11   -1    0    0    0    0  0.00000000000E+00  0.00000000000E+00  0.39999999673E+01  0.40000000000E+01  0.51109989000E-03 0. -1.
     -623   -1    0    0    0    0  0.00000000000E+00  0.00000000000E+00  0.12525980253E-10  0.17130000000E+03  0.17130000000E+03 0.  1.
       11    1    1    2    0    0  0.84184747938E-02 -0.35276437297E-02  0.12630898215E+01  0.12631229051E+01  0.51109989000E-03 0. -1.
     -623    1    1    2    0    0 -0.10452835611E-01 -0.56290699033E-03  0.11026088159E-03  0.17130000032E+03  0.17130000000E+03 0.  1.
      622    1    1    2    0    0  0.20343608175E-02  0.40905507200E-02  0.27367998850E+01  0.27368767750E+01  0.20000000000E-01 0. -1.
</event>
<event>
 5   0  0.3603037E+08  0.9118800E+02  0.7818608E-02  0.1180000E+00
       11   -1    0    0    0    0  0.00000000000E+00  0.00000000000E+00  0.39999999673E+01  0.40000000000E+01  0.51109989000E-03 0. -1.
     -623   -1    0    0    0    0  0.00000000000E+00  0.00000000000E+00  0.12525980253E-10  0.17130000000E+03  0.17130000000E+03 0. -1.
       11    1    1    2    0    0 -0.39080731551E-02  0.14848135151E-03  0.58233760952E-01  0.58367175860E-01  0.51109989000E-03 0. -1.
     -623    1    1    2    0    0  0.43036166667E-02 -0.25927391692E-02  0.18497448569E-03  0.17130000007E+03  0.17130000000E+03 0. -1.
      622    1    1    2    0    0 -0.39554351159E-03  0.24442578176E-02  0.39415812319E+01  0.39416327504E+01  0.20000000000E-01 0. -1.
</event>
<event>
 5   0  0.3603037E+08  0.9118800E+02  0.7818608E-02  0.1180000E+00
       11   -1    0    0    0    0  0.00000000000E+00  0.00000000000E+00  0.39999999673E+01  0.40000000000E+01  0.51109989000E-03 0.  1.
     -623   -1    0    0    0    0  0.00000000000E+00  0.00000000000E+00  0.12525980253E-10  0.17130000000E+03  0.17130000000E+03 0. -1.
       11    1    1    2    0    0 -0.32090248878E-01 -0.18125443892E-01  0.24824748397E+01  0.24827484582E+01  0.51109989000E-03 0.  1.
     -623    1    1    2    0    0  0.42929368698E-01  0.41992140469E-01  0.64240640131E-03  0.17130001053E+03  0.17130000000E+03 0. -1.
      622    1    1    2    0    0 -0.10839119820E-01 -0.23866696577E-01  0.15168827212E+01  0.15172410144E+01  0.20000000000E-01 0.  0.
</event>
<event>
 5   0  0.3603037E+08  0.9118800E+02  0.7818608E-02  0.1180000E+00
       11   -1    0    0    0    0  0.00000000000E+00  0.00000000000E+00  0.39999999673E+01  0.40000000000E+01  0.51109989000E-03 0. -1.
     -623   -1    0    0    0    0  0.00000000000E+00  0.00000000000E+00  0.12525980253E-10  0.17130000000E+03  0.17130000000E+03 0.  1.
       11    1    1    2    0    0 -0.55591850098E-02 -0.48016945869E-02  0.91356333958E-01  0.91652614720E-01  0.51109989000E-03 0. -1.
     -623    1    1    2    0    0 -0.12430929776E-03 -0.44858340975E-03  0.35508102043E-03  0.17130000000E+03  0.17130000000E+03 0.  1.
      622    1    1    2    0    0  0.56834943075E-02  0.52502779967E-02  0.39082885524E+01  0.39083473843E+01  0.20000000000E-01 0. -1.
</event>
<event>
 5   0  0.3603037E+08  0.9118800E+02  0.7818608E-02  0.1180000E+00
       11   -1    0    0    0    0  0.00000000000E+00  0.00000000000E+00  0.39999999673E+01  0.40000000000E+01  0.51109989000E-03 0. -1.
     -623   -1    0    0    0    0  0.00000000000E+00  0.00000000000E+00  0.12525980253E-10  0.17130000000E+03  0.17130000000E+03 0.  1.
       11    1    1    2    0    0  0.92177611864E-02  0.43532014067E-02  0.97123938434E+00  0.97129301470E+00  0.51109989000E-03 0. -1.
     -623    1    1    2    0    0 -0.14090865002E-02 -0.49716048824E-04  0.13276303555E-03  0.17130000001E+03  0.17130000000E+03 0.  1.
      622    1    1    2    0    0 -0.78086746861E-02 -0.43034853579E-02  0.30286278200E+01  0.30287069794E+01  0.20000000000E-01 0.  0.
</event>
<event>
 5   0  0.3603037E+08  0.9118800E+02  0.7818608E-02  0.1180000E+00
       11   -1    0    0    0    0  0.00000000000E+00  0.00000000000E+00  0.39999999673E+01  0.40000000000E+01  0.51109989000E-03 0. -1.
     -623   -1    0    0    0    0  0.00000000000E+00  0.00000000000E+00  0.12525980253E-10  0.17130000000E+03  0.17130000000E+03 0. -1.
       11    1    1    2    0    0  0.17116799451E-02 -0.33211965337E-02  0.14718638853E+01  0.14718687164E+01  0.51109989000E-03 0. -1.
     -623    1    1    2    0    0  0.48896271785E-03  0.14674562761E-03  0.86861163203E-04  0.17130000000E+03  0.17130000000E+03 0. -1.
      622    1    1    2    0    0 -0.22006426629E-02  0.31744509061E-02  0.25280492209E+01  0.25281312828E+01  0.20000000000E-01 0.  1.
</event>
<event>
 5   0  0.3603037E+08  0.9118800E+02  0.7818608E-02  0.1180000E+00
       11   -1    0    0    0    0  0.00000000000E+00  0.00000000000E+00  0.39999999673E+01  0.40000000000E+01  0.51109989000E-03 0. -1.
     -623   -1    0    0    0    0  0.00000000000E+00  0.00000000000E+00  0.12525980253E-10  0.17130000000E+03  0.17130000000E+03 0. -1.
       11    1    1    2    0    0 -0.14276199462E-02  0.44458746463E-02  0.55404496174E-01  0.55603267153E-01  0.51109989000E-03 0. -1.
     -623    1    1    2    0    0  0.76933812154E-02 -0.11965919739E-02  0.25593570742E-03  0.17130000018E+03  0.17130000000E+03 0. -1.
      622    1    1    2    0    0 -0.62657612692E-02 -0.32492826724E-02  0.39443395355E+01  0.39443965557E+01  0.20000000000E-01 0. -1.
</event>
<event>
 5   0  0.3603037E+08  0.9118800E+02  0.7818608E-02  0.1180000E+00
       11   -1    0    0    0    0  0.00000000000E+00  0.00000000000E+00  0.39999999673E+01  0.40000000000E+01  0.51109989000E-03 0.  1.
     -623   -1    0    0    0    0  0.00000000000E+00  0.00000000000E+00  0.12525980253E-10  0.17130000000E+03  0.17130000000E+03 0. -1.
       11    1    1    2    0    0 -0.50121831458E-01  0.10561743419E-01  0.52969404539E+00  0.53216519179E+00  0.51109989000E-03 0.  1.
     -623    1    1    2    0    0  0.22862474056E-01 -0.13397002617E-01  0.26391574409E-02  0.17130000207E+03  0.17130000000E+03 0. -1.
      622    1    1    2    0    0  0.27259357402E-01  0.28352591986E-02  0.34676667645E+01  0.34678327383E+01  0.20000000000E-01 0.  1.
</event>
<event>
 5   0  0.3603037E+08  0.9118800E+02  0.7818608E-02  0.1180000E+00
       11   -1    0    0    0    0  0.00000000000E+00  0.00000000000E+00  0.39999999673E+01  0.40000000000E+01  0.51109989000E-03 0.  1.
     -623   -1    0    0    0    0  0.00000000000E+00  0.00000000000E+00  0.12525980253E-10  0.17130000000E+03  0.17130000000E+03 0.  1.
       11    1    1    2    0    0  0.11240767578E-02  0.11147762210E-02  0.51804128936E-01  0.51830833201E-01  0.51109989000E-03 0.  1.
     -623    1    1    2    0    0 -0.71198840431E-03  0.44666329133E-03  0.77660693402E-04  0.17130000000E+03  0.17130000000E+03 0.  1.
      622    1    1    2    0    0 -0.41208835347E-03 -0.15614395123E-02  0.39481181777E+01  0.39481691647E+01  0.20000000000E-01 0.  1.
</event>
<event>
 5   0  0.3603037E+08  0.9118800E+02  0.7818608E-02  0.1180000E+00
       11   -1    0    0    0    0  0.00000000000E+00  0.00000000000E+00  0.39999999673E+01  0.40000000000E+01  0.51109989000E-03 0. -1.
     -623   -1    0    0    0    0  0.00000000000E+00  0.00000000000E+00  0.12525980253E-10  0.17130000000E+03  0.17130000000E+03 0.  1.
       11    1    1    2    0    0  0.24668060555E-02  0.53035017308E-02  0.58979796937E+00  0.58982719348E+00  0.51109989000E-03 0. -1.
     -623    1    1    2    0    0 -0.86893134242E-02  0.51012869886E-02  0.10968695818E-03  0.17130000030E+03  0.17130000000E+03 0.  1.
      622    1    1    2    0    0  0.62225073687E-02 -0.10404788719E-01  0.34100923110E+01  0.34101725101E+01  0.20000000000E-01 0. -1.
</event>
<event>
 5   0  0.3603037E+08  0.9118800E+02  0.7818608E-02  0.1180000E+00
       11   -1    0    0    0    0  0.00000000000E+00  0.00000000000E+00  0.39999999673E+01  0.40000000000E+01  0.51109989000E-03 0. -1.
     -623   -1    0    0    0    0  0.00000000000E+00  0.00000000000E+00  0.12525980253E-10  0.17130000000E+03  0.17130000000E+03 0. -1.
       11    1    1    2    0    0 -0.11086285260E-01 -0.35383313473E-02  0.19400196346E+00  0.19435135337E+00  0.51109989000E-03 0.  1.
     -623    1    1    2    0    0  0.14288936609E-02  0.18469031898E-02  0.41455710891E-03  0.17130000002E+03  0.17130000000E+03 0. -1.
      622    1    1    2    0    0  0.96573915995E-02  0.16914281576E-02  0.38055834468E+01  0.38056486302E+01  0.20000000000E-01 0. -1.
</event>
<event>
 5   0  0.3603037E+08  0.9118800E+02  0.7818608E-02  0.1180000E+00
       11   -1    0    0    0    0  0.00000000000E+00  0.00000000000E+00  0.39999999673E+01  0.40000000000E+01  0.51109989000E-03 0. -1.
     -623   -1    0    0    0    0  0.00000000000E+00  0.00000000000E+00  0.12525980253E-10  0.17130000000E+03  0.17130000000E+03 0.  1.
       11    1    1    2    0    0 -0.15561144837E-03 -0.75552086621E-03  0.59306927157E-01  0.59314145515E-01  0.51109989000E-03 0. -1.
     -623    1    1    2    0    0  0.24625239766E-04 -0.36610066811E-04  0.58020439900E-04  0.17130000000E+03  0.17130000000E+03 0.  1.
      622    1    1    2    0    0  0.13098620861E-03  0.79213093302E-03  0.39406350198E+01  0.39406858545E+01  0.20000000000E-01 0. -1.
</event>
<event>
 5   0  0.3603037E+08  0.9118800E+02  0.7818608E-02  0.1180000E+00
       11   -1    0    0    0    0  0.00000000000E+00  0.00000000000E+00  0.39999999673E+01  0.40000000000E+01  0.51109989000E-03 0. -1.
     -623   -1    0    0    0    0  0.00000000000E+00  0.00000000000E+00  0.12525980253E-10  0.17130000000E+03  0.17130000000E+03 0.  1.
       11    1    1    2    0    0 -0.27474960935E-03 -0.22873202282E-03  0.96800220962E-01  0.96802230379E-01  0.51109989000E-03 0. -1.
     -623    1    1    2    0    0 -0.12906654478E-03 -0.12543203089E-03  0.53254211070E-04  0.17130000000E+03  0.17130000000E+03 0.  1.
      622    1    1    2    0    0  0.40381615413E-03  0.35416405370E-03  0.39031464922E+01  0.39031977695E+01  0.20000000000E-01 0. -1.
</event>
<event>
 5   0  0.3603037E+08  0.9118800E+02  0.7818608E-02  0.1180000E+00
       11   -1    0    0    0    0  0.00000000000E+00  0.00000000000E+00  0.39999999673E+01  0.40000000000E+01  0.51109989000E-03 0.  1.
     -623   -1    0    0    0    0  0.00000000000E+00  0.00000000000E+00  0.12525980253E-10  0.17130000000E+03  0.17130000000E+03 0.  1.
       11    1    1    2    0    0  0.17012318430E-01 -0.43482746076E-02  0.27550091026E+00  0.27606039058E+00  0.51109989000E-03 0.  1.
     -623    1    1    2    0    0  0.86421398553E-03 -0.10985757062E-02  0.66005358661E-03  0.17130000001E+03  0.17130000000E+03 0.  1.
      622    1    1    2    0    0 -0.17876532416E-01  0.54468503137E-02  0.37238390035E+01  0.37239396024E+01  0.20000000000E-01 0.  1.
</event>
<event>
 5   0  0.3603037E+08  0.9118800E+02  0.7818608E-02  0.1180000E+00
       11   -1    0    0    0    0  0.00000000000E+00  0.00000000000E+00  0.39999999673E+01  0.40000000000E+01  0.51109989000E-03 0. -1.
     -623   -1    0    0    0    0  0.00000000000E+00  0.00000000000E+00  0.12525980253E-10  0.17130000000E+03  0.17130000000E+03 0. -1.
       11    1    1    2    0    0  0.41822455933E-04 -0.60796634119E-02  0.16702205580E+01  0.16702317017E+01  0.51109989000E-03 0. -1.
     -623    1    1    2    0    0  0.48940312198E-03 -0.19490609157E-03  0.10546929390E-03  0.17130000000E+03  0.17130000000E+03 0. -1.
      622    1    1    2    0    0 -0.53122557792E-03  0.62745695035E-02  0.23296739401E+01  0.23297682974E+01  0.20000000000E-01 0. -1.
</event>
<event>
 5   0  0.3603037E+08  0.9118800E+02  0.7818608E-02  0.1180000E+00
       11   -1    0    0    0    0  0.00000000000E+00  0.00000000000E+00  0.39999999673E+01  0.40000000000E+01  0.51109989000E-03 0.  1.
     -623   -1    0    0    0    0  0.00000000000E+00  0.00000000000E+00  0.12525980253E-10  0.17130000000E+03  0.17130000000E+03 0.  1.
       11    1    1    2    0    0  0.19637960780E-02 -0.10348058983E-02  0.27758031241E-01  0.27851334597E-01  0.51109989000E-03 0.  1.
     -623    1    1    2    0    0 -0.71431699712E-05 -0.19098254516E-03  0.14429284681E-03  0.17130000000E+03  0.17130000000E+03 0.  1.
      622    1    1    2    0    0 -0.19566529080E-02  0.12257884435E-02  0.39720976433E+01  0.39721486652E+01  0.20000000000E-01 0.  1.
</event>
<event>
 5   0  0.3603037E+08  0.9118800E+02  0.7818608E-02  0.1180000E+00
       11   -1    0    0    0    0  0.00000000000E+00  0.00000000000E+00  0.39999999673E+01  0.40000000000E+01  0.51109989000E-03 0. -1.
     -623   -1    0    0    0    0  0.00000000000E+00  0.00000000000E+00  0.12525980253E-10  0.17130000000E+03  0.17130000000E+03 0.  1.
       11    1    1    2    0    0  0.82136594833E-02  0.33486501753E-02  0.73789163028E+00  0.73794511782E+00  0.51109989000E-03 0. -1.
     -623    1    1    2    0    0  0.93906045778E-03 -0.83157024976E-03  0.12858299128E-03  0.17130000000E+03  0.17130000000E+03 0.  1.
      622    1    1    2    0    0 -0.91527199411E-02 -0.25170799256E-02  0.32619797541E+01  0.32620548775E+01  0.20000000000E-01 0.  0.
</event>
<event>
 5   0  0.3603037E+08  0.9118800E+02  0.7818608E-02  0.1180000E+00
       11   -1    0    0    0    0  0.00000000000E+00  0.00000000000E+00  0.39999999673E+01  0.40000000000E+01  0.51109989000E-03 0.  1.
     -623   -1    0    0    0    0  0.00000000000E+00  0.00000000000E+00  0.12525980253E-10  0.17130000000E+03  0.17130000000E+03 0.  1.
       11    1    1    2    0    0 -0.11822097355E-01 -0.18841905007E-02  0.17018005446E+00  0.17060136083E+00  0.51109989000E-03 0.  1.
     -623    1    1    2    0    0  0.99236477420E-02  0.11765893143E-01  0.48741441291E-03  0.17130000069E+03  0.17130000000E+03 0.  1.
      622    1    1    2    0    0  0.18984496132E-02 -0.98817026427E-02  0.38293324985E+01  0.38293979470E+01  0.20000000000E-01 0.  1.
</event>
<event>
 5   0  0.3603037E+08  0.9118800E+02  0.7818608E-02  0.1180000E+00
       11   -1    0    0    0    0  0.00000000000E+00  0.00000000000E+00  0.39999999673E+01  0.40000000000E+01  0.51109989000E-03 0.  1.
     -623   -1    0    0    0    0  0.00000000000E+00  0.00000000000E+00  0.12525980253E-10  0.17130000000E+03  0.17130000000E+03 0.  1.
       11    1    1    2    0    0 -0.19177437210E-02  0.45808562204E-03  0.58610007194E-01  0.58645389836E-01  0.51109989000E-03 0.  1.
     -623    1    1    2    0    0 -0.24260199579E-04 -0.11857186340E-03  0.86587434515E-04  0.17130000000E+03  0.17130000000E+03 0.  1.
      622    1    1    2    0    0  0.19420039205E-02 -0.33951375863E-03  0.39413033727E+01  0.39413546101E+01  0.20000000000E-01 0.  1.
</event>
<event>
 5   0  0.3603037E+08  0.9118800E+02  0.7818608E-02  0.1180000E+00
       11   -1    0    0    0    0  0.00000000000E+00  0.00000000000E+00  0.39999999673E+01  0.40000000000E+01  0.51109989000E-03 0.  1.
     -623   -1    0    0    0    0  0.00000000000E+00  0.00000000000E+00  0.12525980253E-10  0.17130000000E+03  0.17130000000E+03 0.  1.
       11    1    1    2    0    0 -0.43056662671E-02 -0.58677413582E-02  0.12257480191E+00  0.12279174417E+00  0.51109989000E-03 0.  1.
     -623    1    1    2    0    0  0.11750714586E-02 -0.38041301966E-04  0.27425953758E-03  0.17130000000E+03  0.17130000000E+03 0.  1.
      622    1    1    2    0    0  0.31305948084E-02  0.59057826601E-02  0.38771509059E+01  0.38772082516E+01  0.20000000000E-01 0.  1.
</event>
<event>
 5   0  0.3603037E+08  0.9118800E+02  0.7818608E-02  0.1180000E+00
       11   -1    0    0    0    0  0.00000000000E+00  0.00000000000E+00  0.39999999673E+01  0.40000000000E+01  0.51109989000E-03 0.  1.
     -623   -1    0    0    0    0  0.00000000000E+00  0.00000000000E+00  0.12525980253E-10  0.17130000000E+03  0.17130000000E+03 0.  1.
       11    1    1    2    0    0 -0.15771131413E-02 -0.35344361143E-02  0.49125971589E+00  0.49127522755E+00  0.51109989000E-03 0.  1.
     -623    1    1    2    0    0  0.18624415779E-02  0.19764660674E-02  0.72859288550E-04  0.17130000002E+03  0.17130000000E+03 0.  1.
      622    1    1    2    0    0 -0.28532843660E-03  0.15579700470E-02  0.35086673922E+01  0.35087247509E+01  0.20000000000E-01 0.  1.
</event>
<event>
 5   0  0.3603037E+08  0.9118800E+02  0.7818608E-02  0.1180000E+00
       11   -1    0    0    0    0  0.00000000000E+00  0.00000000000E+00  0.39999999673E+01  0.40000000000E+01  0.51109989000E-03 0.  1.
     -623   -1    0    0    0    0  0.00000000000E+00  0.00000000000E+00  0.12525980253E-10  0.17130000000E+03  0.17130000000E+03 0.  1.
       11    1    1    2    0    0 -0.32129090963E-02  0.52382590680E-02  0.80274325630E+00  0.80276693934E+00  0.51109989000E-03 0.  1.
     -623    1    1    2    0    0  0.26120289818E-02 -0.80969752559E-03  0.89350532460E-04  0.17130000002E+03  0.17130000000E+03 0.  1.
      622    1    1    2    0    0  0.60088011448E-03 -0.44285615424E-02  0.31971673605E+01  0.31972330388E+01  0.20000000000E-01 0.  1.
</event>
<event>
 5   0  0.3603037E+08  0.9118800E+02  0.7818608E-02  0.1180000E+00
       11   -1    0    0    0    0  0.00000000000E+00  0.00000000000E+00  0.39999999673E+01  0.40000000000E+01  0.51109989000E-03 0.  1.
     -623   -1    0    0    0    0  0.00000000000E+00  0.00000000000E+00  0.12525980253E-10  0.17130000000E+03  0.17130000000E+03 0. -1.
       11    1    1    2    0    0  0.67278444014E-03 -0.12388065937E-01  0.42059790113E+00  0.42078114558E+00  0.51109989000E-03 0.  1.
     -623    1    1    2    0    0  0.45143428552E-02  0.94053373112E-03  0.26121822429E-03  0.17130000006E+03  0.17130000000E+03 0. -1.
      622    1    1    2    0    0 -0.51871272953E-02  0.11447532206E-01  0.35791408480E+01  0.35792187922E+01  0.20000000000E-01 0.  1.
</event>
<event>
 5   0  0.3603037E+08  0.9118800E+02  0.7818608E-02  0.1180000E+00
       11   -1    0    0    0    0  0.00000000000E+00  0.00000000000E+00  0.39999999673E+01  0.40000000000E+01  0.51109989000E-03 0.  1.
     -623   -1    0    0    0    0  0.00000000000E+00  0.00000000000E+00  0.12525980253E-10  0.17130000000E+03  0.17130000000E+03 0.  1.
       11    1    1    2    0    0  0.71255883982E-03 -0.53472010507E-04  0.21487147241E+00  0.21487326841E+00  0.51109989000E-03 0.  1.
     -623    1    1    2    0    0 -0.52603185306E-03 -0.73023761729E-03  0.54690220558E-04  0.17130000000E+03  0.17130000000E+03 0.  1.
      622    1    1    2    0    0 -0.18652698676E-03  0.78370962779E-03  0.37850738047E+01  0.37851267292E+01  0.20000000000E-01 0.  1.
</event>
<event>
 5   0  0.3603037E+08  0.9118800E+02  0.7818608E-02  0.1180000E+00
       11   -1    0    0    0    0  0.00000000000E+00  0.00000000000E+00  0.39999999673E+01  0.40000000000E+01  0.51109989000E-03 0. -1.
     -623   -1    0    0    0    0  0.00000000000E+00  0.00000000000E+00  0.12525980253E-10  0.17130000000E+03  0.17130000000E+03 0.  1.
       11    1    1    2    0    0  0.13361167011E-01  0.11805648680E-02  0.19915314333E+01  0.19915766683E+01  0.51109989000E-03 0. -1.
     -623    1    1    2    0    0 -0.63933793750E-02  0.44302119535E-02  0.16488697056E-03  0.17130000018E+03  0.17130000000E+03 0.  1.
      622    1    1    2    0    0 -0.69677876365E-02 -0.56107768215E-02  0.20083036471E+01  0.20084231551E+01  0.20000000000E-01 0. -1.
</event>
<event>
 5   0  0.3603037E+08  0.9118800E+02  0.7818608E-02  0.1180000E+00
       11   -1    0    0    0    0  0.00000000000E+00  0.00000000000E+00  0.39999999673E+01  0.40000000000E+01  0.51109989000E-03 0.  1.
     -623   -1    0    0    0    0  0.00000000000E+00  0.00000000000E+00  0.12525980253E-10  0.17130000000E+03  0.17130000000E+03 0.  1.
       11    1    1    2    0    0  0.17578382127E-01 -0.11053409201E-01  0.79419563194E+00  0.79446720535E+00  0.51109989000E-03 0.  1.
     -623    1    1    2    0    0 -0.19572635741E-01  0.12590445927E-01  0.33650360439E-03  0.17130000158E+03  0.17130000000E+03 0.  1.
      622    1    1    2    0    0  0.19942536138E-02 -0.15370367264E-02  0.32054678318E+01  0.32055312134E+01  0.20000000000E-01 0.  0.
</event>
<event>
 5   0  0.3603037E+08  0.9118800E+02  0.7818608E-02  0.1180000E+00
       11   -1    0    0    0    0  0.00000000000E+00  0.00000000000E+00  0.39999999673E+01  0.40000000000E+01  0.51109989000E-03 0.  1.
     -623   -1    0    0    0    0  0.00000000000E+00  0.00000000000E+00  0.12525980253E-10  0.17130000000E+03  0.17130000000E+03 0. -1.
       11    1    1    2    0    0  0.20537823200E-01  0.15873465280E-01  0.12712018816E+01  0.12714669693E+01  0.51109989000E-03 0.  1.
     -623    1    1    2    0    0  0.18366990012E-02 -0.12354392506E-02  0.46937996343E-03  0.17130000001E+03  0.17130000000E+03 0. -1.
      622    1    1    2    0    0 -0.22374522201E-01 -0.14638026030E-01  0.27283287058E+01  0.27285330157E+01  0.20000000000E-01 0.  1.
</event>
<event>
 5   0  0.3603037E+08  0.9118800E+02  0.7818608E-02  0.1180000E+00
       11   -1    0    0    0    0  0.00000000000E+00  0.00000000000E+00  0.39999999673E+01  0.40000000000E+01  0.51109989000E-03 0. -1.
     -623   -1    0    0    0    0  0.00000000000E+00  0.00000000000E+00  0.12525980253E-10  0.17130000000E+03  0.17130000000E+03 0.  1.
       11    1    1    2    0    0  0.27996155547E-02  0.66852064385E-02  0.19173812897E+00  0.19187574406E+00  0.51109989000E-03 0. -1.
     -623    1    1    2    0    0 -0.17830202774E-02  0.15487862645E-02  0.19915616489E-03  0.17130000002E+03  0.17130000000E+03 0.  1.
      622    1    1    2    0    0 -0.10165952773E-02 -0.82339927030E-02  0.38080626822E+01  0.38081242395E+01  0.20000000000E-01 0. -1.
</event>
<event>
 5   0  0.3603037E+08  0.9118800E+02  0.7818608E-02  0.1180000E+00
       11   -1    0    0    0    0  0.00000000000E+00  0.00000000000E+00  0.39999999673E+01  0.40000000000E+01  0.51109989000E-03 0.  1.
     -623   -1    0    0    0    0  0.00000000000E+00  0.00000000000E+00  0.12525980253E-10  0.17130000000E+03  0.17130000000E+03 0.  1.
       11    1    1    2    0    0  0.84997485306E-03 -0.45606318839E-03  0.67195088998E-01  0.67203955667E-01  0.51109989000E-03 0.  1.
     -623    1    1    2    0    0  0.50620536314E-04  0.25057189773E-03  0.59797449553E-04  0.17130000000E+03  0.17130000000E+03 0.  1.
      622    1    1    2    0    0 -0.90059538938E-03  0.20549129066E-03  0.39327450809E+01  0.39327960441E+01  0.20000000000E-01 0.  1.
</event>
<event>
 5   0  0.3603037E+08  0.9118800E+02  0.7818608E-02  0.1180000E+00
       11   -1    0    0    0    0  0.00000000000E+00  0.00000000000E+00  0.39999999673E+01  0.40000000000E+01  0.51109989000E-03 0.  1.
     -623   -1    0    0    0    0  0.00000000000E+00  0.00000000000E+00  0.12525980253E-10  0.17130000000E+03  0.17130000000E+03 0.  1.
       11    1    1    2    0    0 -0.85116715063E-03  0.83863034267E-03  0.70790928265E-01  0.70802856805E-01  0.51109989000E-03 0.  1.
     -623    1    1    2    0    0  0.36182021122E-02  0.13952920765E-02  0.64450490507E-04  0.17130000004E+03  0.17130000000E+03 0.  1.
      622    1    1    2    0    0 -0.27670349616E-02 -0.22339224192E-02  0.39291445886E+01  0.39291970993E+01  0.20000000000E-01 0.  1.
</event>
<event>
 5   0  0.3603037E+08  0.9118800E+02  0.7818608E-02  0.1180000E+00
       11   -1    0    0    0    0  0.00000000000E+00  0.00000000000E+00  0.39999999673E+01  0.40000000000E+01  0.51109989000E-03 0. -1.
     -623   -1    0    0    0    0  0.00000000000E+00  0.00000000000E+00  0.12525980253E-10  0.17130000000E+03  0.17130000000E+03 0.  1.
       11    1    1    2    0    0  0.11143285958E-02 -0.19622125748E-02  0.13813177809E+00  0.13815115398E+00  0.51109989000E-03 0. -1.
     -623    1    1    2    0    0  0.46512146915E-03  0.70010509155E-03  0.71663578409E-04  0.17130000000E+03  0.17130000000E+03 0.  1.
      622    1    1    2    0    0 -0.15794500650E-02  0.12621074832E-02  0.38617965257E+01  0.38618488439E+01  0.20000000000E-01 0. -1.
</event>
<event>
 5   0  0.3603037E+08  0.9118800E+02  0.7818608E-02  0.1180000E+00
       11   -1    0    0    0    0  0.00000000000E+00  0.00000000000E+00  0.39999999673E+01  0.40000000000E+01  0.51109989000E-03 0.  1.
     -623   -1    0    0    0    0  0.00000000000E+00  0.00000000000E+00  0.12525980253E-10  0.17130000000E+03  0.17130000000E+03 0.  1.
       11    1    1    2    0    0 -0.66351937076E-03  0.25199058762E-02  0.80560637868E-02  0.84824269926E-02  0.51109989000E-03 0.  1.
     -623    1    1    2    0    0  0.10360294288E-02  0.12748781221E-03  0.47733632363E-03  0.17130000000E+03  0.17130000000E+03 0.  1.
      622    1    1    2    0    0 -0.37251005804E-03 -0.26473936884E-02  0.39914665672E+01  0.39915175692E+01  0.20000000000E-01 0.  1.
</event>
<event>
 5   0  0.3603037E+08  0.9118800E+02  0.7818608E-02  0.1180000E+00
       11   -1    0    0    0    0  0.00000000000E+00  0.00000000000E+00  0.39999999673E+01  0.40000000000E+01  0.51109989000E-03 0.  1.
     -623   -1    0    0    0    0  0.00000000000E+00  0.00000000000E+00  0.12525980253E-10  0.17130000000E+03  0.17130000000E+03 0.  1.
       11    1    1    2    0    0 -0.20385792600E-02 -0.92449759703E-03  0.39085178225E-01  0.39152559033E-01  0.51109989000E-03 0.  1.
     -623    1    1    2    0    0 -0.20009263765E-03  0.82469159237E-03  0.11847879182E-03  0.17130000000E+03  0.17130000000E+03 0.  1.
      622    1    1    2    0    0  0.22386718977E-02  0.99806004661E-04  0.39607963103E+01  0.39608474388E+01  0.20000000000E-01 0.  1.
</event>
<event>
 5   0  0.3603037E+08  0.9118800E+02  0.7818608E-02  0.1180000E+00
       11   -1    0    0    0    0  0.00000000000E+00  0.00000000000E+00  0.39999999673E+01  0.40000000000E+01  0.51109989000E-03 0.  1.
     -623   -1    0    0    0    0  0.00000000000E+00  0.00000000000E+00  0.12525980253E-10  0.17130000000E+03  0.17130000000E+03 0.  1.
       11    1    1    2    0    0 -0.39138872266E-02  0.55289615439E-02  0.73356792174E+00  0.73359937633E+00  0.51109989000E-03 0.  1.
     -623    1    1    2    0    0  0.43330589760E-03 -0.40496908531E-02  0.94889854382E-04  0.17130000005E+03  0.17130000000E+03 0.  1.
      622    1    1    2    0    0  0.34805813290E-02 -0.14792706907E-02  0.32663371558E+01  0.32664005752E+01  0.20000000000E-01 0.  1.
</event>
<event>
 5   0  0.3603037E+08  0.9118800E+02  0.7818608E-02  0.1180000E+00
       11   -1    0    0    0    0  0.00000000000E+00  0.00000000000E+00  0.39999999673E+01  0.40000000000E+01  0.51109989000E-03 0.  1.
     -623   -1    0    0    0    0  0.00000000000E+00  0.00000000000E+00  0.12525980253E-10  0.17130000000E+03  0.17130000000E+03 0. -1.
       11    1    1    2    0    0 -0.30809157029E-02 -0.74158054689E-02  0.35263742396E+00  0.35272921656E+00  0.51109989000E-03 0.  1.
     -623    1    1    2    0    0  0.26785728758E-02  0.31333131484E-02  0.14918195704E-03  0.17130000005E+03  0.17130000000E+03 0. -1.
      622    1    1    2    0    0  0.40234282704E-03  0.42824923205E-02  0.36472133614E+01  0.36472707338E+01  0.20000000000E-01 0.  1.
</event>
<event>
 5   0  0.3603037E+08  0.9118800E+02  0.7818608E-02  0.1180000E+00
       11   -1    0    0    0    0  0.00000000000E+00  0.00000000000E+00  0.39999999673E+01  0.40000000000E+01  0.51109989000E-03 0.  1.
     -623   -1    0    0    0    0  0.00000000000E+00  0.00000000000E+00  0.12525980253E-10  0.17130000000E+03  0.17130000000E+03 0.  1.
       11    1    1    2    0    0  0.17140154977E-01  0.20068967970E-02  0.83270807445E+00  0.83288703377E+00  0.51109989000E-03 0.  1.
     -623    1    1    2    0    0  0.23650680756E-01 -0.20663735433E-01  0.56261352925E-03  0.17130000288E+03  0.17130000000E+03 0.  1.
      622    1    1    2    0    0 -0.40790835733E-01  0.18656838636E-01  0.31667292794E+01  0.31671100863E+01  0.20000000000E-01 0.  1.
</event>
<event>
 5   0  0.3603037E+08  0.9118800E+02  0.7818608E-02  0.1180000E+00
       11   -1    0    0    0    0  0.00000000000E+00  0.00000000000E+00  0.39999999673E+01  0.40000000000E+01  0.51109989000E-03 0.  1.
     -623   -1    0    0    0    0  0.00000000000E+00  0.00000000000E+00  0.12525980253E-10  0.17130000000E+03  0.17130000000E+03 0.  1.
       11    1    1    2    0    0  0.19586100610E-03  0.52164152967E-03  0.48248086089E-01  0.48254010220E-01  0.51109989000E-03 0.  1.
     -623    1    1    2    0    0  0.63336279395E-02 -0.55933379687E-02  0.65359775930E-04  0.17130000021E+03  0.17130000000E+03 0.  1.
      622    1    1    2    0    0 -0.65294889456E-02  0.50716964390E-02  0.39516865215E+01  0.39517457814E+01  0.20000000000E-01 0.  1.
</event>
<event>
 5   0  0.3603037E+08  0.9118800E+02  0.7818608E-02  0.1180000E+00
       11   -1    0    0    0    0  0.00000000000E+00  0.00000000000E+00  0.39999999673E+01  0.40000000000E+01  0.51109989000E-03 0. -1.
     -623   -1    0    0    0    0  0.00000000000E+00  0.00000000000E+00  0.12525980253E-10  0.17130000000E+03  0.17130000000E+03 0. -1.
       11    1    1    2    0    0  0.54316698164E-02 -0.96884612391E-02  0.10116044794E+01  0.10116655837E+01  0.51109989000E-03 0. -1.
     -623    1    1    2    0    0 -0.28411877077E-03 -0.41283888408E-03  0.14950658346E-03  0.17130000000E+03  0.17130000000E+03 0. -1.
      622    1    1    2    0    0 -0.51475510457E-02  0.10101300123E-01  0.29882459814E+01  0.29883344155E+01  0.20000000000E-01 0. -1.
</event>
<event>
 5   0  0.3603037E+08  0.9118800E+02  0.7818608E-02  0.1180000E+00
       11   -1    0    0    0    0  0.00000000000E+00  0.00000000000E+00  0.39999999673E+01  0.40000000000E+01  0.51109989000E-03 0. -1.
     -623   -1    0    0    0    0  0.00000000000E+00  0.00000000000E+00  0.12525980253E-10  0.17130000000E+03  0.17130000000E+03 0. -1.
       11    1    1    2    0    0  0.27586583837E-03 -0.47257346649E-02  0.72317938500E-02  0.86584486998E-02  0.51109989000E-03 0. -1.
     -623    1    1    2    0    0  0.20796754180E-02 -0.77187791726E-03  0.14812330561E-02  0.17130000002E+03  0.17130000000E+03 0. -1.
      622    1    1    2    0    0 -0.23555412564E-02  0.54976125822E-02  0.39912869405E+01  0.39913415305E+01  0.20000000000E-01 0. -1.
</event>
<event>
 5   0  0.3603037E+08  0.9118800E+02  0.7818608E-02  0.1180000E+00
       11   -1    0    0    0    0  0.00000000000E+00  0.00000000000E+00  0.39999999673E+01  0.40000000000E+01  0.51109989000E-03 0.  1.
     -623   -1    0    0    0    0  0.00000000000E+00  0.00000000000E+00  0.12525980253E-10  0.17130000000E+03  0.17130000000E+03 0.  1.
       11    1    1    2    0    0 -0.22527020843E-03 -0.71130521654E-02  0.36265363165E+01  0.36265433352E+01  0.51109989000E-03 0.  1.
     -623    1    1    2    0    0 -0.25594921349E-02  0.43781736350E-02  0.56341054526E-03  0.17130000008E+03  0.17130000000E+03 0.  1.
      622    1    1    2    0    0  0.27847623434E-02  0.27348785304E-02  0.37290024036E+00  0.37345658881E+00  0.20000000000E-01 0.  1.
</event>
<event>
 5   0  0.3603037E+08  0.9118800E+02  0.7818608E-02  0.1180000E+00
       11   -1    0    0    0    0  0.00000000000E+00  0.00000000000E+00  0.39999999673E+01  0.40000000000E+01  0.51109989000E-03 0.  1.
     -623   -1    0    0    0    0  0.00000000000E+00  0.00000000000E+00  0.12525980253E-10  0.17130000000E+03  0.17130000000E+03 0. -1.
       11    1    1    2    0    0  0.27298183982E-03 -0.35487762271E-02  0.40660109777E-01  0.40818795671E-01  0.51109989000E-03 0.  1.
     -623    1    1    2    0    0 -0.22434354708E-02  0.31441913026E-02  0.20972376514E-03  0.17130000004E+03  0.17130000000E+03 0. -1.
      622    1    1    2    0    0  0.19704536310E-02  0.40458492442E-03  0.39591301338E+01  0.39591811607E+01  0.20000000000E-01 0.  1.
</event>
<event>
 5   0  0.3603037E+08  0.9118800E+02  0.7818608E-02  0.1180000E+00
       11   -1    0    0    0    0  0.00000000000E+00  0.00000000000E+00  0.39999999673E+01  0.40000000000E+01  0.51109989000E-03 0. -1.
     -623   -1    0    0    0    0  0.00000000000E+00  0.00000000000E+00  0.12525980253E-10  0.17130000000E+03  0.17130000000E+03 0.  1.
       11    1    1    2    0    0 -0.10424095422E-01  0.87347394055E-02  0.67900735817E+00  0.67914373376E+00  0.51109989000E-03 0. -1.
     -623    1    1    2    0    0  0.89774882328E-03  0.70747806280E-03  0.22366089510E-03  0.17130000000E+03  0.17130000000E+03 0.  1.
      622    1    1    2    0    0  0.95263465989E-02 -0.94422174683E-02  0.33207689483E+01  0.33208562623E+01  0.20000000000E-01 0.  0.
</event>
<event>
 5   0  0.3603037E+08  0.9118800E+02  0.7818608E-02  0.1180000E+00
       11   -1    0    0    0    0  0.00000000000E+00  0.00000000000E+00  0.39999999673E+01  0.40000000000E+01  0.51109989000E-03 0.  1.
     -623   -1    0    0    0    0  0.00000000000E+00  0.00000000000E+00  0.12525980253E-10  0.17130000000E+03  0.17130000000E+03 0.  1.
       11    1    1    2    0    0  0.14470155725E-02  0.43515546846E-02  0.59913122654E+00  0.59914899459E+00  0.51109989000E-03 0.  1.
     -623    1    1    2    0    0  0.21022344405E-02 -0.46668590022E-02  0.78487930380E-04  0.17130000008E+03  0.17130000000E+03 0.  1.
      622    1    1    2    0    0 -0.35492500129E-02  0.31530431767E-03  0.34007902529E+01  0.34008509289E+01  0.20000000000E-01 0.  1.
</event>
<event>
 5   0  0.3603037E+08  0.9118800E+02  0.7818608E-02  0.1180000E+00
       11   -1    0    0    0    0  0.00000000000E+00  0.00000000000E+00  0.39999999673E+01  0.40000000000E+01  0.51109989000E-03 0. -1.
     -623   -1    0    0    0    0  0.00000000000E+00  0.00000000000E+00  0.12525980253E-10  0.17130000000E+03  0.17130000000E+03 0. -1.
       11    1    1    2    0    0 -0.15582142350E-01 -0.10986517647E-01  0.17949479953E+01  0.17950493235E+01  0.51109989000E-03 0. -1.
     -623    1    1    2    0    0  0.10583129036E-01  0.35147594149E-02  0.21069268351E-03  0.17130000036E+03  0.17130000000E+03 0. -1.
      622    1    1    2    0    0  0.49990133143E-02  0.74717582316E-02  0.22048412794E+01  0.22049503134E+01  0.20000000000E-01 0.  0.
</event>
<event>
 5   0  0.3603037E+08  0.9118800E+02  0.7818608E-02  0.1180000E+00
       11   -1    0    0    0    0  0.00000000000E+00  0.00000000000E+00  0.39999999673E+01  0.40000000000E+01  0.51109989000E-03 0.  1.
     -623   -1    0    0    0    0  0.00000000000E+00  0.00000000000E+00  0.12525980253E-10  0.17130000000E+03  0.17130000000E+03 0.  1.
       11    1    1    2    0    0  0.13885566048E-02 -0.67299463721E-03  0.23156098492E-01  0.23213081038E-01  0.51109989000E-03 0.  1.
     -623    1    1    2    0    0 -0.49619686128E-03  0.35840533357E-02  0.10844592848E-03  0.17130000004E+03  0.17130000000E+03 0.  1.
      622    1    1    2    0    0 -0.89235974349E-03 -0.29110586984E-02  0.39767354229E+01  0.39767868807E+01  0.20000000000E-01 0.  1.
</event>
<event>
 5   0  0.3603037E+08  0.9118800E+02  0.7818608E-02  0.1180000E+00
       11   -1    0    0    0    0  0.00000000000E+00  0.00000000000E+00  0.39999999673E+01  0.40000000000E+01  0.51109989000E-03 0. -1.
     -623   -1    0    0    0    0  0.00000000000E+00  0.00000000000E+00  0.12525980253E-10  0.17130000000E+03  0.17130000000E+03 0. -1.
       11    1    1    2    0    0  0.22510540308E-02  0.36907609303E-02  0.60232264053E-01  0.60389368397E-01  0.51109989000E-03 0. -1.
     -623    1    1    2    0    0 -0.41059300417E-02 -0.50956029444E-02  0.20865074591E-03  0.17130000013E+03  0.17130000000E+03 0. -1.
      622    1    1    2    0    0  0.18548760109E-02  0.14048420141E-02  0.39395590526E+01  0.39396105065E+01  0.20000000000E-01 0. -1.
</event>
<event>
 5   0  0.3603037E+08  0.9118800E+02  0.7818608E-02  0.1180000E+00
       11   -1    0    0    0    0  0.00000000000E+00  0.00000000000E+00  0.39999999673E+01  0.40000000000E+01  0.51109989000E-03 0.  1.
     -623   -1    0    0    0    0  0.00000000000E+00  0.00000000000E+00  0.12525980253E-10  0.17130000000E+03  0.17130000000E+03 0.  1.
       11    1    1    2    0    0  0.18167266322E-02 -0.29327485201E-02  0.75415750813E-01  0.75496345622E-01  0.51109989000E-03 0.  1.
     -623    1    1    2    0    0  0.63486719627E-03 -0.54243661880E-03  0.13383087313E-03  0.17130000000E+03  0.17130000000E+03 0.  1.
      622    1    1    2    0    0 -0.24515938284E-02  0.34751851389E-02  0.39244503857E+01  0.39245036523E+01  0.20000000000E-01 0.  0.
</event>
<event>
 5   0  0.3603037E+08  0.9118800E+02  0.7818608E-02  0.1180000E+00
       11   -1    0    0    0    0  0.00000000000E+00  0.00000000000E+00  0.39999999673E+01  0.40000000000E+01  0.51109989000E-03 0. -1.
     -623   -1    0    0    0    0  0.00000000000E+00  0.00000000000E+00  0.12525980253E-10  0.17130000000E+03  0.17130000000E+03 0.  1.
       11    1    1    2    0    0  0.60329213769E-02 -0.68300423041E-02  0.11122602986E+01  0.11122977473E+01  0.51109989000E-03 0. -1.
     -623    1    1    2    0    0  0.12390540402E-02  0.26488121835E-02  0.11888488732E-03  0.17130000003E+03  0.17130000000E+03 0.  1.
      622    1    1    2    0    0 -0.72719754171E-02  0.41812301206E-02  0.28876207839E+01  0.28877022277E+01  0.20000000000E-01 0. -1.
</event>
<event>
 5   0  0.3603037E+08  0.9118800E+02  0.7818608E-02  0.1180000E+00
       11   -1    0    0    0    0  0.00000000000E+00  0.00000000000E+00  0.39999999673E+01  0.40000000000E+01  0.51109989000E-03 0.  1.
     -623   -1    0    0    0    0  0.00000000000E+00  0.00000000000E+00  0.12525980253E-10  0.17130000000E+03  0.17130000000E+03 0. -1.
       11    1    1    2    0    0 -0.78950657887E-02  0.12727753604E-02  0.25716298123E+00  0.25728780025E+00  0.51109989000E-03 0.  1.
     -623    1    1    2    0    0  0.89954555613E-02  0.29903587046E-02  0.18107609710E-03  0.17130000026E+03  0.17130000000E+03 0. -1.
      622    1    1    2    0    0 -0.11003897726E-02 -0.42631340650E-02  0.37426559100E+01  0.37427119374E+01  0.20000000000E-01 0.  1.
</event>
<event>
 5   0  0.3603037E+08  0.9118800E+02  0.7818608E-02  0.1180000E+00
       11   -1    0    0    0    0  0.00000000000E+00  0.00000000000E+00  0.39999999673E+01  0.40000000000E+01  0.51109989000E-03 0.  1.
     -623   -1    0    0    0    0  0.00000000000E+00  0.00000000000E+00  0.12525980253E-10  0.17130000000E+03  0.17130000000E+03 0. -1.
       11    1    1    2    0    0  0.19262447513E-02 -0.51694634398E-03  0.13125068910E+00  0.13126683611E+00  0.51109989000E-03 0.  1.
     -623    1    1    2    0    0  0.24496752225E-04 -0.12560540995E-03  0.68356473017E-04  0.17130000000E+03  0.17130000000E+03 0. -1.
      622    1    1    2    0    0 -0.19507415035E-02  0.64255175394E-03  0.38686809218E+01  0.38687331638E+01  0.20000000000E-01 0.  1.
</event>
<event>
 5   0  0.3603037E+08  0.9118800E+02  0.7818608E-02  0.1180000E+00
       11   -1    0    0    0    0  0.00000000000E+00  0.00000000000E+00  0.39999999673E+01  0.40000000000E+01  0.51109989000E-03 0.  1.
     -623   -1    0    0    0    0  0.00000000000E+00  0.00000000000E+00  0.12525980253E-10  0.17130000000E+03  0.17130000000E+03 0. -1.
       11    1    1    2    0    0 -0.22509163875E-02  0.36399681588E-04  0.96974219800E-01  0.97001693162E-01  0.51109989000E-03 0.  1.
     -623    1    1    2    0    0  0.51325236219E-03  0.41830473669E-03  0.79098318776E-04  0.17130000000E+03  0.17130000000E+03 0. -1.
      622    1    1    2    0    0  0.17376640253E-02 -0.45470441828E-03  0.39029466492E+01  0.39029983055E+01  0.20000000000E-01 0.  1.
</event>
<event>
 5   0  0.3603037E+08  0.9118800E+02  0.7818608E-02  0.1180000E+00
       11   -1    0    0    0    0  0.00000000000E+00  0.00000000000E+00  0.39999999673E+01  0.40000000000E+01  0.51109989000E-03 0. -1.
     -623   -1    0    0    0    0  0.00000000000E+00  0.00000000000E+00  0.12525980253E-10  0.17130000000E+03  0.17130000000E+03 0.  1.
       11    1    1    2    0    0  0.22277287525E-02 -0.31375609897E-02  0.46002254705E-01  0.46165741881E-01  0.51109989000E-03 0. -1.
     -623    1    1    2    0    0  0.53791675568E-03  0.64516012232E-03  0.21579372569E-03  0.17130000000E+03  0.17130000000E+03 0.  1.
      622    1    1    2    0    0 -0.27656455082E-02  0.24924008674E-02  0.39537819189E+01  0.39538342559E+01  0.20000000000E-01 0. -1.
</event>
<event>
 5   0  0.3603037E+08  0.9118800E+02  0.7818608E-02  0.1180000E+00
       11   -1    0    0    0    0  0.00000000000E+00  0.00000000000E+00  0.39999999673E+01  0.40000000000E+01  0.51109989000E-03 0. -1.
     -623   -1    0    0    0    0  0.00000000000E+00  0.00000000000E+00  0.12525980253E-10  0.17130000000E+03  0.17130000000E+03 0.  1.
       11    1    1    2    0    0 -0.69622138550E-02  0.11013790201E-01  0.30246157897E+01  0.30246438984E+01  0.51109989000E-03 0. -1.
     -623    1    1    2    0    0  0.11661711568E-02  0.55315507196E-03  0.31898681279E-03  0.17130000001E+03  0.17130000000E+03 0.  1.
      622    1    1    2    0    0  0.57960426982E-02 -0.11566945273E-01  0.97506519088E+00  0.97535609641E+00  0.20000000000E-01 0.  1.
</event>
<event>
 5   0  0.3603037E+08  0.9118800E+02  0.7818608E-02  0.1180000E+00
       11   -1    0    0    0    0  0.00000000000E+00  0.00000000000E+00  0.39999999673E+01  0.40000000000E+01  0.51109989000E-03 0. -1.
     -623   -1    0    0    0    0  0.00000000000E+00  0.00000000000E+00  0.12525980253E-10  0.17130000000E+03  0.17130000000E+03 0.  1.
       11    1    1    2    0    0  0.35423719712E-02 -0.53963880797E-02  0.14160523733E+01  0.14160671787E+01  0.51109989000E-03 0. -1.
     -623    1    1    2    0    0 -0.53346487526E-03 -0.10393615271E-02  0.10194620905E-03  0.17130000000E+03  0.17130000000E+03 0.  1.
      622    1    1    2    0    0 -0.30089070959E-02  0.64357496067E-02  0.25838456478E+01  0.25839328173E+01  0.20000000000E-01 0. -1.
</event>
<event>
 5   0  0.3603037E+08  0.9118800E+02  0.7818608E-02  0.1180000E+00
       11   -1    0    0    0    0  0.00000000000E+00  0.00000000000E+00  0.39999999673E+01  0.40000000000E+01  0.51109989000E-03 0.  1.
     -623   -1    0    0    0    0  0.00000000000E+00  0.00000000000E+00  0.12525980253E-10  0.17130000000E+03  0.17130000000E+03 0.  1.
       11    1    1    2    0    0 -0.30327349041E-01  0.21279712419E-02  0.13121279526E+01  0.13124802100E+01  0.51109989000E-03 0.  1.
     -623    1    1    2    0    0 -0.14980259129E-02  0.18031843177E-02  0.61798488353E-03  0.17130000002E+03  0.17130000000E+03 0.  1.
      622    1    1    2    0    0  0.31825374954E-01 -0.39311555596E-02  0.26872540298E+01  0.26875197728E+01  0.20000000000E-01 0.  1.
</event>
<event>
 5   0  0.3603037E+08  0.9118800E+02  0.7818608E-02  0.1180000E+00
       11   -1    0    0    0    0  0.00000000000E+00  0.00000000000E+00  0.39999999673E+01  0.40000000000E+01  0.51109989000E-03 0. -1.
     -623   -1    0    0    0    0  0.00000000000E+00  0.00000000000E+00  0.12525980253E-10  0.17130000000E+03  0.17130000000E+03 0. -1.
       11    1    1    2    0    0  0.83557460044E-03  0.14458155070E-04  0.74646820593E-01  0.74653248014E-01  0.51109989000E-03 0. -1.
     -623    1    1    2    0    0 -0.21535701208E-04 -0.62334096794E-03  0.57478802666E-04  0.17130000000E+03  0.17130000000E+03 0. -1.
      622    1    1    2    0    0 -0.81403889923E-03  0.60888281287E-03  0.39252956680E+01  0.39253467508E+01  0.20000000000E-01 0. -1.
</event>
<event>
 5   0  0.3603037E+08  0.9118800E+02  0.7818608E-02  0.1180000E+00
       11   -1    0    0    0    0  0.00000000000E+00  0.00000000000E+00  0.39999999673E+01  0.40000000000E+01  0.51109989000E-03 0. -1.
     -623   -1    0    0    0    0  0.00000000000E+00  0.00000000000E+00  0.12525980253E-10  0.17130000000E+03  0.17130000000E+03 0. -1.
       11    1    1    2    0    0  0.94989903163E-04  0.23058208954E-03  0.31433010759E-01  0.31438154809E-01  0.51109989000E-03 0. -1.
     -623    1    1    2    0    0 -0.20613593386E-03 -0.41994391868E-03  0.55514541976E-04  0.17130000000E+03  0.17130000000E+03 0. -1.
      622    1    1    2    0    0  0.11114603070E-03  0.18936182914E-03  0.39685114421E+01  0.39685618445E+01  0.20000000000E-01 0. -1.
</event>
<event>
 5   0  0.3603037E+08  0.9118800E+02  0.7818608E-02  0.1180000E+00
       11   -1    0    0    0    0  0.00000000000E+00  0.00000000000E+00  0.39999999673E+01  0.40000000000E+01  0.51109989000E-03 0.  1.
     -623   -1    0    0    0    0  0.00000000000E+00  0.00000000000E+00  0.12525980253E-10  0.17130000000E+03  0.17130000000E+03 0. -1.
       11    1    1    2    0    0 -0.18436793212E-01  0.26004701725E-02  0.19149073678E+00  0.19239449390E+00  0.51109989000E-03 0.  1.
     -623    1    1    2    0    0  0.30989970020E-01 -0.85217114611E-02  0.98456696362E-03  0.17130000302E+03  0.17130000000E+03 0. -1.
      622    1    1    2    0    0 -0.12553176808E-01  0.59212412886E-02  0.38075246636E+01  0.38076024881E+01  0.20000000000E-01 0.  1.
</event>
<event>
 5   0  0.3603037E+08  0.9118800E+02  0.7818608E-02  0.1180000E+00
       11   -1    0    0    0    0  0.00000000000E+00  0.00000000000E+00  0.39999999673E+01  0.40000000000E+01  0.51109989000E-03 0.  1.
     -623   -1    0    0    0    0  0.00000000000E+00  0.00000000000E+00  0.12525980253E-10  0.17130000000E+03  0.17130000000E+03 0. -1.
       11    1    1    2    0    0 -0.18805295641E-01  0.95780218062E-03  0.68241038663E+00  0.68267031101E+00  0.51109989000E-03 0.  1.
     -623    1    1    2    0    0 -0.10277361872E-02 -0.17219113841E-02  0.37957052641E-03  0.17130000001E+03  0.17130000000E+03 0. -1.
      622    1    1    2    0    0  0.19833031828E-01  0.76410920345E-03  0.33172100102E+01  0.33173296768E+01  0.20000000000E-01 0.  1.
</event>
<event>
 5   0  0.3603037E+08  0.9118800E+02  0.7818608E-02  0.1180000E+00
       11   -1    0    0    0    0  0.00000000000E+00  0.00000000000E+00  0.39999999673E+01  0.40000000000E+01  0.51109989000E-03 0.  1.
     -623   -1    0    0    0    0  0.00000000000E+00  0.00000000000E+00  0.12525980253E-10  0.17130000000E+03  0.17130000000E+03 0.  1.
       11    1    1    2    0    0 -0.30647154918E-02 -0.26700231141E-02  0.88382511645E-01  0.88477404403E-01  0.51109989000E-03 0.  1.
     -623    1    1    2    0    0  0.12939283204E-03  0.56231579944E-03  0.14766173447E-03  0.17130000000E+03  0.17130000000E+03 0.  1.
      622    1    1    2    0    0  0.29353226598E-02  0.21077073146E-02  0.39114697940E+01  0.39115225946E+01  0.20000000000E-01 0.  1.
</event>
<event>
 5   0  0.3603037E+08  0.9118800E+02  0.7818608E-02  0.1180000E+00
       11   -1    0    0    0    0  0.00000000000E+00  0.00000000000E+00  0.39999999673E+01  0.40000000000E+01  0.51109989000E-03 0. -1.
     -623   -1    0    0    0    0  0.00000000000E+00  0.00000000000E+00  0.12525980253E-10  0.17130000000E+03  0.17130000000E+03 0.  1.
       11    1    1    2    0    0 -0.20313940195E-02  0.13379137219E-02  0.13298235497E+00  0.13300558082E+00  0.51109989000E-03 0. -1.
     -623    1    1    2    0    0 -0.21023199881E-03 -0.48627274935E-03  0.75657654046E-04  0.17130000000E+03  0.17130000000E+03 0.  1.
      622    1    1    2    0    0  0.22416260183E-02 -0.85164097253E-03  0.38669419547E+01  0.38669944183E+01  0.20000000000E-01 0. -1.
</event>
<event>
 5   0  0.3603037E+08  0.9118800E+02  0.7818608E-02  0.1180000E+00
       11   -1    0    0    0    0  0.00000000000E+00  0.00000000000E+00  0.39999999673E+01  0.40000000000E+01  0.51109989000E-03 0. -1.
     -623   -1    0    0    0    0  0.00000000000E+00  0.00000000000E+00  0.12525980253E-10  0.17130000000E+03  0.17130000000E+03 0.  1.
       11    1    1    2    0    0 -0.10194954928E-01 -0.10799758881E-01  0.35469510072E+00  0.35500626416E+00  0.51109989000E-03 0. -1.
     -623    1    1    2    0    0  0.18396305938E-01  0.14405915226E-01  0.37860570209E-03  0.17130000159E+03  0.17130000000E+03 0.  1.
      622    1    1    2    0    0 -0.82013510107E-02 -0.36061563447E-02  0.36449262609E+01  0.36449921419E+01  0.20000000000E-01 0. -1.
</event>
<event>
 5   0  0.3603037E+08  0.9118800E+02  0.7818608E-02  0.1180000E+00
       11   -1    0    0    0    0  0.00000000000E+00  0.00000000000E+00  0.39999999673E+01  0.40000000000E+01  0.51109989000E-03 0.  1.
     -623   -1    0    0    0    0  0.00000000000E+00  0.00000000000E+00  0.12525980253E-10  0.17130000000E+03  0.17130000000E+03 0. -1.
       11    1    1    2    0    0  0.11904092143E-02  0.42038082263E-03  0.16027211935E-01  0.16084978625E-01  0.51109989000E-03 0.  1.
     -623    1    1    2    0    0  0.18488825829E-03  0.11217330069E-03  0.10820939389E-03  0.17130000000E+03  0.17130000000E+03 0. -1.
      622    1    1    2    0    0 -0.13752974725E-02 -0.53255412333E-03  0.39838645460E+01  0.39839150212E+01  0.20000000000E-01 0.  1.
</event>
<event>
 5   0  0.3603037E+08  0.9118800E+02  0.7818608E-02  0.1180000E+00
       11   -1    0    0    0    0  0.00000000000E+00  0.00000000000E+00  0.39999999673E+01  0.40000000000E+01  0.51109989000E-03 0. -1.
     -623   -1    0    0    0    0  0.00000000000E+00  0.00000000000E+00  0.12525980253E-10  0.17130000000E+03  0.17130000000E+03 0.  1.
       11    1    1    2    0    0 -0.22862004656E-02  0.16146143151E-02  0.38266238988E+00  0.38267296683E+00  0.51109989000E-03 0. -1.
     -623    1    1    2    0    0  0.17831199251E-02  0.11936812011E-02  0.66972734655E-04  0.17130000001E+03  0.17130000000E+03 0.  1.
      622    1    1    2    0    0  0.50308054057E-03 -0.28082955162E-02  0.36172706047E+01  0.36173270197E+01  0.20000000000E-01 0. -1.
</event>
<event>
 5   0  0.3603037E+08  0.9118800E+02  0.7818608E-02  0.1180000E+00
       11   -1    0    0    0    0  0.00000000000E+00  0.00000000000E+00  0.39999999673E+01  0.40000000000E+01  0.51109989000E-03 0. -1.
     -623   -1    0    0    0    0  0.00000000000E+00  0.00000000000E+00  0.12525980253E-10  0.17130000000E+03  0.17130000000E+03 0.  1.
       11    1    1    2    0    0  0.32014483696E-02 -0.36574834182E-02  0.62804838475E-01  0.62994725290E-01  0.51109989000E-03 0. -1.
     -623    1    1    2    0    0 -0.20948801991E-03 -0.16077894166E-03  0.24364338610E-03  0.17130000000E+03  0.17130000000E+03 0.  1.
      622    1    1    2    0    0 -0.29919603497E-02  0.38182623598E-02  0.39369514855E+01  0.39370052743E+01  0.20000000000E-01 0. -1.
</event>
<event>
 5   0  0.3603037E+08  0.9118800E+02  0.7818608E-02  0.1180000E+00
       11   -1    0    0    0    0  0.00000000000E+00  0.00000000000E+00  0.39999999673E+01  0.40000000000E+01  0.51109989000E-03 0.  1.
     -623   -1    0    0    0    0  0.00000000000E+00  0.00000000000E+00  0.12525980253E-10  0.17130000000E+03  0.17130000000E+03 0. -1.
       11    1    1    2    0    0  0.32740894066E-03  0.13106269917E-02  0.89721911990E-01  0.89733536941E-01  0.51109989000E-03 0.  1.
     -623    1    1    2    0    0  0.33415591300E-03 -0.12751574578E-02  0.62801265068E-04  0.17130000001E+03  0.17130000000E+03 0. -1.
      622    1    1    2    0    0 -0.66156485366E-03 -0.35469533871E-04  0.39102152541E+01  0.39102664580E+01  0.20000000000E-01 0.  1.
</event>
<event>
 5   0  0.3603037E+08  0.9118800E+02  0.7818608E-02  0.1180000E+00
       11   -1    0    0    0    0  0.00000000000E+00  0.00000000000E+00  0.39999999673E+01  0.40000000000E+01  0.51109989000E-03 0.  1.
     -623   -1    0    0    0    0  0.00000000000E+00  0.00000000000E+00  0.12525980253E-10  0.17130000000E+03  0.17130000000E+03 0.  1.
       11    1    1    2    0    0  0.31132648750E-02  0.15636385436E-02  0.34821731630E-01  0.34999308533E-01  0.51109989000E-03 0.  1.
     -623    1    1    2    0    0  0.95466968178E-03 -0.13183530237E-02  0.23008820942E-03  0.17130000001E+03  0.17130000000E+03 0.  1.
      622    1    1    2    0    0 -0.40679345567E-02 -0.24528551989E-03  0.39649481475E+01  0.39650006836E+01  0.20000000000E-01 0.  1.
</event>
<event>
 5   0  0.3603037E+08  0.9118800E+02  0.7818608E-02  0.1180000E+00
       11   -1    0    0    0    0  0.00000000000E+00  0.00000000000E+00  0.39999999673E+01  0.40000000000E+01  0.51109989000E-03 0.  1.
     -623   -1    0    0    0    0  0.00000000000E+00  0.00000000000E+00  0.12525980253E-10  0.17130000000E+03  0.17130000000E+03 0. -1.
       11    1    1    2    0    0 -0.19883320463E-03  0.34557022138E-03  0.16355168580E-01  0.16368008862E-01  0.51109989000E-03 0.  1.
     -623    1    1    2    0    0 -0.16078855687E-03 -0.30914486689E-03  0.63030163648E-04  0.17130000000E+03  0.17130000000E+03 0. -1.
      622    1    1    2    0    0  0.35962176150E-03 -0.36425354496E-04  0.39835817686E+01  0.39836319908E+01  0.20000000000E-01 0.  1.
</event>
<event>
 5   0  0.3603037E+08  0.9118800E+02  0.7818608E-02  0.1180000E+00
       11   -1    0    0    0    0  0.00000000000E+00  0.00000000000E+00  0.39999999673E+01  0.40000000000E+01  0.51109989000E-03 0. -1.
     -623   -1    0    0    0    0  0.00000000000E+00  0.00000000000E+00  0.12525980253E-10  0.17130000000E+03  0.17130000000E+03 0.  1.
       11    1    1    2    0    0 -0.79911608608E-02 -0.28886778893E-02  0.17868961308E+01  0.17869164073E+01  0.51109989000E-03 0. -1.
     -623    1    1    2    0    0 -0.64663228875E-02  0.22580655323E-02  0.15807006070E-03  0.17130000014E+03  0.17130000000E+03 0.  1.
      622    1    1    2    0    0  0.14457483748E-01  0.63061235701E-03  0.22129457665E+01  0.22130834557E+01  0.20000000000E-01 0. -1.
</event>
<event>
 5   0  0.3603037E+08  0.9118800E+02  0.7818608E-02  0.1180000E+00
       11   -1    0    0    0    0  0.00000000000E+00  0.00000000000E+00  0.39999999673E+01  0.40000000000E+01  0.51109989000E-03 0. -1.
     -623   -1    0    0    0    0  0.00000000000E+00  0.00000000000E+00  0.12525980253E-10  0.17130000000E+03  0.17130000000E+03 0.  1.
       11    1    1    2    0    0  0.81800830889E-02 -0.27698352175E-02  0.11800353222E+01  0.11800670356E+01  0.51109989000E-03 0. -1.
     -623    1    1    2    0    0  0.29506494351E-03  0.96971162554E-04  0.11660859347E-03  0.17130000000E+03  0.17130000000E+03 0.  1.
      622    1    1    2    0    0 -0.84751480324E-02  0.26728640550E-02  0.28198480366E+01  0.28199329640E+01  0.20000000000E-01 0. -1.
</event>
<event>
 5   0  0.3603037E+08  0.9118800E+02  0.7818608E-02  0.1180000E+00
       11   -1    0    0    0    0  0.00000000000E+00  0.00000000000E+00  0.39999999673E+01  0.40000000000E+01  0.51109989000E-03 0. -1.
     -623   -1    0    0    0    0  0.00000000000E+00  0.00000000000E+00  0.12525980253E-10  0.17130000000E+03  0.17130000000E+03 0.  1.
       11    1    1    2    0    0 -0.56357189359E-03 -0.12468276119E-02  0.19435231175E+00  0.19435780019E+00  0.51109989000E-03 0. -1.
     -623    1    1    2    0    0 -0.22706685460E-03  0.52027644072E-03  0.58162151157E-04  0.17130000000E+03  0.17130000000E+03 0.  1.
      622    1    1    2    0    0  0.79063874818E-03  0.72655117119E-03  0.38055894935E+01  0.38056421989E+01  0.20000000000E-01 0. -1.
</event>
<event>
 5   0  0.3603037E+08  0.9118800E+02  0.7818608E-02  0.1180000E+00
       11   -1    0    0    0    0  0.00000000000E+00  0.00000000000E+00  0.39999999673E+01  0.40000000000E+01  0.51109989000E-03 0. -1.
     -623   -1    0    0    0    0  0.00000000000E+00  0.00000000000E+00  0.12525980253E-10  0.17130000000E+03  0.17130000000E+03 0. -1.
       11    1    1    2    0    0 -0.63723204875E-02  0.14899606658E-02  0.55404674925E+00  0.55408563240E+00  0.51109989000E-03 0. -1.
     -623    1    1    2    0    0  0.15215818021E-01  0.60691895612E-02  0.11731341753E-03  0.17130000078E+03  0.17130000000E+03 0. -1.
      622    1    1    2    0    0 -0.88434975330E-02 -0.75591502269E-02  0.34458359047E+01  0.34459135843E+01  0.20000000000E-01 0. -1.
</event>
<event>
 5   0  0.3603037E+08  0.9118800E+02  0.7818608E-02  0.1180000E+00
       11   -1    0    0    0    0  0.00000000000E+00  0.00000000000E+00  0.39999999673E+01  0.40000000000E+01  0.51109989000E-03 0. -1.
     -623   -1    0    0    0    0  0.00000000000E+00  0.00000000000E+00  0.12525980253E-10  0.17130000000E+03  0.17130000000E+03 0.  1.
       11    1    1    2    0    0 -0.54571326726E-03 -0.85206858717E-03  0.25287553344E-02  0.27712181105E-02  0.51109989000E-03 0. -1.
     -623    1    1    2    0    0  0.22193964177E-03 -0.70086930438E-03  0.29278171885E-03  0.17130000000E+03  0.17130000000E+03 0.  1.
      622    1    1    2    0    0  0.32377362549E-03  0.15529378915E-02  0.39971784303E+01  0.39972287801E+01  0.20000000000E-01 0. -1.
</event>
<event>
 5   0  0.3603037E+08  0.9118800E+02  0.7818608E-02  0.1180000E+00
       11   -1    0    0    0    0  0.00000000000E+00  0.00000000000E+00  0.39999999673E+01  0.40000000000E+01  0.51109989000E-03 0.  1.
     -623   -1    0    0    0    0  0.00000000000E+00  0.00000000000E+00  0.12525980253E-10  0.17130000000E+03  0.17130000000E+03 0.  1.
       11    1    1    2    0    0  0.89304624730E-02 -0.10942210201E-02  0.29645488853E-01  0.30984943297E-01  0.51109989000E-03 0.  1.
     -623    1    1    2    0    0 -0.64235376992E-02 -0.13022929907E-02  0.13914587506E-02  0.17130000013E+03  0.17130000000E+03 0.  1.
      622    1    1    2    0    0 -0.25069247738E-02  0.23965140107E-02  0.39689630198E+01  0.39690149257E+01  0.20000000000E-01 0.  1.
</event>
<event>
 5   0  0.3603037E+08  0.9118800E+02  0.7818608E-02  0.1180000E+00
       11   -1    0    0    0    0  0.00000000000E+00  0.00000000000E+00  0.39999999673E+01  0.40000000000E+01  0.51109989000E-03 0.  1.
     -623   -1    0    0    0    0  0.00000000000E+00  0.00000000000E+00  0.12525980253E-10  0.17130000000E+03  0.17130000000E+03 0.  1.
       11    1    1    2    0    0 -0.70931330012E-02 -0.35346570029E-02  0.42270328821E-01  0.43009862291E-01  0.51109989000E-03 0.  1.
     -623    1    1    2    0    0 -0.61641079501E-04 -0.55375733980E-02  0.80700468661E-03  0.17130000009E+03  0.17130000000E+03 0.  1.
      622    1    1    2    0    0  0.71547740807E-02  0.90722304008E-02  0.39569226339E+01  0.39569900463E+01  0.20000000000E-01 0.  1.
</event>
<event>
 5   0  0.3603037E+08  0.9118800E+02  0.7818608E-02  0.1180000E+00
       11   -1    0    0    0    0  0.00000000000E+00  0.00000000000E+00  0.39999999673E+01  0.40000000000E+01  0.51109989000E-03 0.  1.
     -623   -1    0    0    0    0  0.00000000000E+00  0.00000000000E+00  0.12525980253E-10  0.17130000000E+03  0.17130000000E+03 0. -1.
       11    1    1    2    0    0  0.54448843578E-03  0.14458858594E-02  0.16521334194E+00  0.16522135646E+00  0.51109989000E-03 0.  1.
     -623    1    1    2    0    0  0.32717539594E-04  0.33396400018E-03  0.60593316401E-04  0.17130000000E+03  0.17130000000E+03 0. -1.
      622    1    1    2    0    0 -0.57720597537E-03 -0.17798498595E-02  0.38347260321E+01  0.38347786432E+01  0.20000000000E-01 0.  1.
</event>
<event>
 5   0  0.3603037E+08  0.9118800E+02  0.7818608E-02  0.1180000E+00
       11   -1    0    0    0    0  0.00000000000E+00  0.00000000000E+00  0.39999999673E+01  0.40000000000E+01  0.51109989000E-03 0. -1.
     -623   -1    0    0    0    0  0.00000000000E+00  0.00000000000E+00  0.12525980253E-10  0.17130000000E+03  0.17130000000E+03 0. -1.
       11    1    1    2    0    0  0.13217684231E-03 -0.11515447135E-03  0.52422580913E-01  0.52425365444E-01  0.51109989000E-03 0. -1.
     -623    1    1    2    0    0  0.69643097302E-03 -0.22975734076E-03  0.53519847459E-04  0.17130000000E+03  0.17130000000E+03 0. -1.
      622    1    1    2    0    0 -0.82860781533E-03  0.34491181211E-03  0.39475238666E+01  0.39475746330E+01  0.20000000000E-01 0. -1.
</event>
<event>
 5   0  0.3603037E+08  0.9118800E+02  0.7818608E-02  0.1180000E+00
       11   -1    0    0    0    0  0.00000000000E+00  0.00000000000E+00  0.39999999673E+01  0.40000000000E+01  0.51109989000E-03 0. -1.
     -623   -1    0    0    0    0  0.00000000000E+00  0.00000000000E+00  0.12525980253E-10  0.17130000000E+03  0.17130000000E+03 0. -1.
       11    1    1    2    0    0 -0.42788348781E-03  0.19716394227E-04  0.10940483199E+00  0.10940686431E+00  0.51109989000E-03 0. -1.
     -623    1    1    2    0    0  0.38443030978E-03  0.73721349280E-03  0.53481961369E-04  0.17130000000E+03  0.17130000000E+03 0. -1.
      622    1    1    2    0    0  0.43453178033E-04 -0.75692988702E-03  0.38905416534E+01  0.38905931337E+01  0.20000000000E-01 0. -1.
</event>
<event>
 5   0  0.3603037E+08  0.9118800E+02  0.7818608E-02  0.1180000E+00
       11   -1    0    0    0    0  0.00000000000E+00  0.00000000000E+00  0.39999999673E+01  0.40000000000E+01  0.51109989000E-03 0. -1.
     -623   -1    0    0    0    0  0.00000000000E+00  0.00000000000E+00  0.12525980253E-10  0.17130000000E+03  0.17130000000E+03 0. -1.
       11    1    1    2    0    0  0.21505327544E-02  0.84103010320E-03  0.18558566438E+00  0.18560073320E+00  0.51109989000E-03 0. -1.
     -623    1    1    2    0    0 -0.19821359961E-03 -0.62596565558E-03  0.67976410625E-04  0.17130000000E+03  0.17130000000E+03 0. -1.
      622    1    1    2    0    0 -0.19523191548E-02 -0.21506444762E-03  0.38143463266E+01  0.38143992655E+01  0.20000000000E-01 0. -1.
</event>
<event>
 5   0  0.3603037E+08  0.9118800E+02  0.7818608E-02  0.1180000E+00
       11   -1    0    0    0    0  0.00000000000E+00  0.00000000000E+00  0.39999999673E+01  0.40000000000E+01  0.51109989000E-03 0.  1.
     -623   -1    0    0    0    0  0.00000000000E+00  0.00000000000E+00  0.12525980253E-10  0.17130000000E+03  0.17130000000E+03 0.  1.
       11    1    1    2    0    0 -0.10348258010E-02  0.25403623204E-03  0.68763421086E-02  0.69771557252E-02  0.51109989000E-03 0.  1.
     -623    1    1    2    0    0  0.22438620369E-03 -0.73711869791E-03  0.15098192548E-03  0.17130000000E+03  0.17130000000E+03 0.  1.
      622    1    1    2    0    0  0.81043959736E-03  0.48308246587E-03  0.39929726433E+01  0.39930228425E+01  0.20000000000E-01 0.  1.
</event>
<event>
 5   0  0.3603037E+08  0.9118800E+02  0.7818608E-02  0.1180000E+00
       11   -1    0    0    0    0  0.00000000000E+00  0.00000000000E+00  0.39999999673E+01  0.40000000000E+01  0.51109989000E-03 0.  1.
     -623   -1    0    0    0    0  0.00000000000E+00  0.00000000000E+00  0.12525980253E-10  0.17130000000E+03  0.17130000000E+03 0.  1.
       11    1    1    2    0    0  0.45157570493E-02  0.90448811384E-03  0.17214788474E+00  0.17221023664E+00  0.51109989000E-03 0.  1.
     -623    1    1    2    0    0 -0.62745300949E-02  0.87280357928E-03  0.11550294348E-03  0.17130000012E+03  0.17130000000E+03 0.  1.
      622    1    1    2    0    0  0.17587730456E-02 -0.17772916931E-02  0.38277365797E+01  0.38277896462E+01  0.20000000000E-01 0.  1.
</event>
<event>
 5   0  0.3603037E+08  0.9118800E+02  0.7818608E-02  0.1180000E+00
       11   -1    0    0    0    0  0.00000000000E+00  0.00000000000E+00  0.39999999673E+01  0.40000000000E+01  0.51109989000E-03 0.  1.
     -623   -1    0    0    0    0  0.00000000000E+00  0.00000000000E+00  0.12525980253E-10  0.17130000000E+03  0.17130000000E+03 0. -1.
       11    1    1    2    0    0  0.19687614801E-01  0.14573165359E-01  0.12773855406E+01  0.12776204678E+01  0.51109989000E-03 0.  1.
     -623    1    1    2    0    0 -0.48791613359E-03 -0.15559927783E-02  0.40719788532E-03  0.17130000001E+03  0.17130000000E+03 0. -1.
      622    1    1    2    0    0 -0.19199698667E-01 -0.13017172580E-01  0.27222072289E+01  0.27223795239E+01  0.20000000000E-01 0.  1.
</event>
<event>
 5   0  0.3603037E+08  0.9118800E+02  0.7818608E-02  0.1180000E+00
       11   -1    0    0    0    0  0.00000000000E+00  0.00000000000E+00  0.39999999673E+01  0.40000000000E+01  0.51109989000E-03 0. -1.
     -623   -1    0    0    0    0  0.00000000000E+00  0.00000000000E+00  0.12525980253E-10  0.17130000000E+03  0.17130000000E+03 0. -1.
       11    1    1    2    0    0 -0.15935469566E-01  0.35739876674E-01  0.17559181331E+01  0.17563541868E+01  0.51109989000E-03 0. -1.
     -623    1    1    2    0    0  0.36673858643E-02  0.34531744305E-02  0.90114801096E-03  0.17130000008E+03  0.17130000000E+03 0. -1.
      622    1    1    2    0    0  0.12268083701E-01 -0.39193051104E-01  0.22431806862E+01  0.22436457368E+01  0.20000000000E-01 0. -1.
</event>
<event>
 5   0  0.3603037E+08  0.9118800E+02  0.7818608E-02  0.1180000E+00
       11   -1    0    0    0    0  0.00000000000E+00  0.00000000000E+00  0.39999999673E+01  0.40000000000E+01  0.51109989000E-03 0. -1.
     -623   -1    0    0    0    0  0.00000000000E+00  0.00000000000E+00  0.12525980253E-10  0.17130000000E+03  0.17130000000E+03 0.  1.
       11    1    1    2    0    0 -0.53632918330E-02  0.44893076209E-02  0.10387492230E+01  0.10387728955E+01  0.51109989000E-03 0. -1.
     -623    1    1    2    0    0 -0.17988094912E-03 -0.16138272625E-03  0.99531411709E-04  0.17130000000E+03  0.17130000000E+03 0.  1.
      622    1    1    2    0    0  0.55431727822E-02 -0.43279248946E-02  0.29611512129E+01  0.29612271043E+01  0.20000000000E-01 0. -1.
</event>
<event>
 5   0  0.3603037E+08  0.9118800E+02  0.7818608E-02  0.1180000E+00
       11   -1    0    0    0    0  0.00000000000E+00  0.00000000000E+00  0.39999999673E+01  0.40000000000E+01  0.51109989000E-03 0. -1.
     -623   -1    0    0    0    0  0.00000000000E+00  0.00000000000E+00  0.12525980253E-10  0.17130000000E+03  0.17130000000E+03 0. -1.
       11    1    1    2    0    0 -0.17845748302E-02 -0.91681008390E-03  0.47592956426E-02  0.51901218371E-02  0.51109989000E-03 0. -1.
     -623    1    1    2    0    0 -0.66142243564E-03  0.15735684059E-02  0.48167084201E-03  0.17130000001E+03  0.17130000000E+03 0. -1.
      622    1    1    2    0    0  0.24459972659E-02 -0.65675832197E-03  0.39947590009E+01  0.39948098690E+01  0.20000000000E-01 0. -1.
</event>
<event>
 5   0  0.3603037E+08  0.9118800E+02  0.7818608E-02  0.1180000E+00
       11   -1    0    0    0    0  0.00000000000E+00  0.00000000000E+00  0.39999999673E+01  0.40000000000E+01  0.51109989000E-03 0.  1.
     -623   -1    0    0    0    0  0.00000000000E+00  0.00000000000E+00  0.12525980253E-10  0.17130000000E+03  0.17130000000E+03 0. -1.
       11    1    1    2    0    0  0.73995478799E-03 -0.25275526372E-03  0.32228669950E+00  0.32228805333E+00  0.51109989000E-03 0.  1.
     -623    1    1    2    0    0 -0.11474627562E-03 -0.11640656924E-02  0.56033284859E-04  0.17130000000E+03  0.17130000000E+03 0. -1.
      622    1    1    2    0    0 -0.62520851237E-03  0.14168209561E-02  0.36776572346E+01  0.36777119427E+01  0.20000000000E-01 0.  1.
</event>
<event>
 5   0  0.3603037E+08  0.9118800E+02  0.7818608E-02  0.1180000E+00
       11   -1    0    0    0    0  0.00000000000E+00  0.00000000000E+00  0.39999999673E+01  0.40000000000E+01  0.51109989000E-03 0.  1.
     -623   -1    0    0    0    0  0.00000000000E+00  0.00000000000E+00  0.12525980253E-10  0.17130000000E+03  0.17130000000E+03 0. -1.
       11    1    1    2    0    0  0.20836637161E-02 -0.16938760964E-02  0.24595150987E+00  0.24596669958E+00  0.51109989000E-03 0.  1.
     -623    1    1    2    0    0  0.19568341363E-04  0.28802206657E-03  0.69286164039E-04  0.17130000000E+03  0.17130000000E+03 0. -1.
      622    1    1    2    0    0 -0.21032320574E-02  0.14058540298E-02  0.37539791713E+01  0.37540333002E+01  0.20000000000E-01 0.  1.
</event>
<event>
 5   0  0.3603037E+08  0.9118800E+02  0.7818608E-02  0.1180000E+00
       11   -1    0    0    0    0  0.00000000000E+00  0.00000000000E+00  0.39999999673E+01  0.40000000000E+01  0.51109989000E-03 0.  1.
     -623   -1    0    0    0    0  0.00000000000E+00  0.00000000000E+00  0.12525980253E-10  0.17130000000E+03  0.17130000000E+03 0. -1.
       11    1    1    2    0    0  0.34829209241E-03  0.11163551386E-02  0.14658431597E+00  0.14658987164E+00  0.51109989000E-03 0.  1.
     -623    1    1    2    0    0 -0.23868567078E-02  0.10535890524E-03  0.58175039071E-04  0.17130000002E+03  0.17130000000E+03 0. -1.
      622    1    1    2    0    0  0.20385646154E-02 -0.12217140439E-02  0.38533574763E+01  0.38534101117E+01  0.20000000000E-01 0.  1.
</event>
<event>
 5   0  0.3603037E+08  0.9118800E+02  0.7818608E-02  0.1180000E+00
       11   -1    0    0    0    0  0.00000000000E+00  0.00000000000E+00  0.39999999673E+01  0.40000000000E+01  0.51109989000E-03 0.  1.
     -623   -1    0    0    0    0  0.00000000000E+00  0.00000000000E+00  0.12525980253E-10  0.17130000000E+03  0.17130000000E+03 0.  1.
       11    1    1    2    0    0 -0.16467164340E-02  0.10587517853E-01  0.90708000953E+00  0.90714343525E+00  0.51109989000E-03 0.  1.
     -623    1    1    2    0    0  0.11360535884E-02  0.29185048709E-02  0.15761986330E-03  0.17130000003E+03  0.17130000000E+03 0.  1.
      622    1    1    2    0    0  0.51066284554E-03 -0.13506022724E-01  0.30927623380E+01  0.30928565361E+01  0.20000000000E-01 0.  0.
</event>
<event>
 5   0  0.3603037E+08  0.9118800E+02  0.7818608E-02  0.1180000E+00
       11   -1    0    0    0    0  0.00000000000E+00  0.00000000000E+00  0.39999999673E+01  0.40000000000E+01  0.51109989000E-03 0. -1.
     -623   -1    0    0    0    0  0.00000000000E+00  0.00000000000E+00  0.12525980253E-10  0.17130000000E+03  0.17130000000E+03 0.  1.
       11    1    1    2    0    0 -0.66242012372E-03  0.48850703750E-03  0.36345716942E-01  0.36358627609E-01  0.51109989000E-03 0. -1.
     -623    1    1    2    0    0  0.15448916822E-02 -0.23755673213E-02  0.63907902743E-04  0.17130000002E+03  0.17130000000E+03 0.  1.
      622    1    1    2    0    0 -0.88247155846E-03  0.18870602838E-02  0.39635903425E+01  0.39636413489E+01  0.20000000000E-01 0. -1.
</event>
<event>
 5   0  0.3603037E+08  0.9118800E+02  0.7818608E-02  0.1180000E+00
       11   -1    0    0    0    0  0.00000000000E+00  0.00000000000E+00  0.39999999673E+01  0.40000000000E+01  0.51109989000E-03 0.  1.
     -623   -1    0    0    0    0  0.00000000000E+00  0.00000000000E+00  0.12525980253E-10  0.17130000000E+03  0.17130000000E+03 0.  1.
       11    1    1    2    0    0 -0.22972003822E-01 -0.12783863956E-01  0.18922262509E+01  0.18924089373E+01  0.51109989000E-03 0.  1.
     -623    1    1    2    0    0  0.24905490182E-01  0.22718670165E-01  0.30517203388E-03  0.17130000332E+03  0.17130000000E+03 0.  1.
      622    1    1    2    0    0 -0.19334863604E-02 -0.99348062089E-02  0.21074685444E+01  0.21075877453E+01  0.20000000000E-01 0.  1.
</event>
<event>
 5   0  0.3603037E+08  0.9118800E+02  0.7818608E-02  0.1180000E+00
       11   -1    0    0    0    0  0.00000000000E+00  0.00000000000E+00  0.39999999673E+01  0.40000000000E+01  0.51109989000E-03 0. -1.
     -623   -1    0    0    0    0  0.00000000000E+00  0.00000000000E+00  0.12525980253E-10  0.17130000000E+03  0.17130000000E+03 0.  1.
       11    1    1    2    0    0 -0.58596866070E-02  0.64726384737E-02  0.15041135796E+00  0.15066542007E+00  0.51109989000E-03 0. -1.
     -623    1    1    2    0    0 -0.62485429798E-02  0.25085913709E-02  0.33564092930E-03  0.17130000013E+03  0.17130000000E+03 0.  1.
      622    1    1    2    0    0  0.12108229587E-01 -0.89812298446E-02  0.38492529685E+01  0.38493344473E+01  0.20000000000E-01 0. -1.
</event>
<event>
 5   0  0.3603037E+08  0.9118800E+02  0.7818608E-02  0.1180000E+00
       11   -1    0    0    0    0  0.00000000000E+00  0.00000000000E+00  0.39999999673E+01  0.40000000000E+01  0.51109989000E-03 0. -1.
     -623   -1    0    0    0    0  0.00000000000E+00  0.00000000000E+00  0.12525980253E-10  0.17130000000E+03  0.17130000000E+03 0. -1.
       11    1    1    2    0    0 -0.47236383923E-02 -0.18812760150E-02  0.12077316105E+00  0.12088122109E+00  0.51109989000E-03 0. -1.
     -623    1    1    2    0    0  0.18704742035E-02  0.31044755000E-02  0.16086640891E-03  0.17130000004E+03  0.17130000000E+03 0. -1.
      622    1    1    2    0    0  0.28531641888E-02 -0.12231994851E-02  0.38790659399E+01  0.38791187405E+01  0.20000000000E-01 0. -1.
</event>
<event>
 5   0  0.3603037E+08  0.9118800E+02  0.7818608E-02  0.1180000E+00
       11   -1    0    0    0    0  0.00000000000E+00  0.00000000000E+00  0.39999999673E+01  0.40000000000E+01  0.51109989000E-03 0. -1.
     -623   -1    0    0    0    0  0.00000000000E+00  0.00000000000E+00  0.12525980253E-10  0.17130000000E+03  0.17130000000E+03 0. -1.
       11    1    1    2    0    0  0.53427939012E-02 -0.13155520633E-02  0.45403293852E+00  0.45406656627E+00  0.51109989000E-03 0. -1.
     -623    1    1    2    0    0  0.11497514608E-02  0.54436371083E-02  0.98435501753E-04  0.17130000009E+03  0.17130000000E+03 0. -1.
      622    1    1    2    0    0 -0.64925453620E-02 -0.41280850449E-02  0.35458685933E+01  0.35459333434E+01  0.20000000000E-01 0. -1.
</event>
<event>
 5   0  0.3603037E+08  0.9118800E+02  0.7818608E-02  0.1180000E+00
       11   -1    0    0    0    0  0.00000000000E+00  0.00000000000E+00  0.39999999673E+01  0.40000000000E+01  0.51109989000E-03 0. -1.
     -623   -1    0    0    0    0  0.00000000000E+00  0.00000000000E+00  0.12525980253E-10  0.17130000000E+03  0.17130000000E+03 0.  1.
       11    1    1    2    0    0  0.59435885582E-02 -0.16780497160E-02  0.12403147410E+00  0.12418619040E+00  0.51109989000E-03 0. -1.
     -623    1    1    2    0    0 -0.16485804530E-02 -0.10076329797E-02  0.20960740787E-03  0.17130000001E+03  0.17130000000E+03 0.  1.
      622    1    1    2    0    0 -0.42950081052E-02  0.26856826957E-02  0.38757588859E+01  0.38758137986E+01  0.20000000000E-01 0. -1.
</event>
<event>
 5   0  0.3603037E+08  0.9118800E+02  0.7818608E-02  0.1180000E+00
       11   -1    0    0    0    0  0.00000000000E+00  0.00000000000E+00  0.39999999673E+01  0.40000000000E+01  0.51109989000E-03 0.  1.
     -623   -1    0    0    0    0  0.00000000000E+00  0.00000000000E+00  0.12525980253E-10  0.17130000000E+03  0.17130000000E+03 0.  1.
       11    1    1    2    0    0 -0.28370554679E-02  0.54827422985E-02  0.38182664098E-01  0.38681861442E-01  0.51109989000E-03 0.  1.
     -623    1    1    2    0    0 -0.34018537111E-02 -0.50678815136E-02  0.55469771365E-03  0.17130000011E+03  0.17130000000E+03 0.  1.
      622    1    1    2    0    0  0.62389091790E-02 -0.41486078488E-03  0.39612626055E+01  0.39613180289E+01  0.20000000000E-01 0.  1.
</event>
<event>
 5   0  0.3603037E+08  0.9118800E+02  0.7818608E-02  0.1180000E+00
       11   -1    0    0    0    0  0.00000000000E+00  0.00000000000E+00  0.39999999673E+01  0.40000000000E+01  0.51109989000E-03 0.  1.
     -623   -1    0    0    0    0  0.00000000000E+00  0.00000000000E+00  0.12525980253E-10  0.17130000000E+03  0.17130000000E+03 0.  1.
       11    1    1    2    0    0 -0.98208716953E-04  0.53894564174E-03  0.18219587568E-01  0.18234985628E-01  0.51109989000E-03 0.  1.
     -623    1    1    2    0    0  0.73107552168E-04 -0.11895074951E-02  0.65652102927E-04  0.17130000000E+03  0.17130000000E+03 0.  1.
      622    1    1    2    0    0  0.25101164784E-04  0.65056185340E-03  0.39817147277E+01  0.39817650102E+01  0.20000000000E-01 0.  1.
</event>
<event>
 5   0  0.3603037E+08  0.9118800E+02  0.7818608E-02  0.1180000E+00
       11   -1    0    0    0    0  0.00000000000E+00  0.00000000000E+00  0.39999999673E+01  0.40000000000E+01  0.51109989000E-03 0.  1.
     -623   -1    0    0    0    0  0.00000000000E+00  0.00000000000E+00  0.12525980253E-10  0.17130000000E+03  0.17130000000E+03 0.  1.
       11    1    1    2    0    0 -0.28362931690E-01  0.13889110838E-02  0.11885759401E+01  0.11889152247E+01  0.51109989000E-03 0.  1.
     -623    1    1    2    0    0  0.10202901021E-01  0.13898553279E-01  0.51149963596E-03  0.17130000087E+03  0.17130000000E+03 0.  1.
      622    1    1    2    0    0  0.18160030668E-01 -0.15287464363E-01  0.28109125277E+01  0.28110839069E+01  0.20000000000E-01 0.  1.
</event>
<event>
 5   0  0.3603037E+08  0.9118800E+02  0.7818608E-02  0.1180000E+00
       11   -1    0    0    0    0  0.00000000000E+00  0.00000000000E+00  0.39999999673E+01  0.40000000000E+01  0.51109989000E-03 0.  1.
     -623   -1    0    0    0    0  0.00000000000E+00  0.00000000000E+00  0.12525980253E-10  0.17130000000E+03  0.17130000000E+03 0.  1.
       11    1    1    2    0    0  0.27516365603E-01 -0.44604774326E-02  0.89862193495E+00  0.89905433064E+00  0.51109989000E-03 0.  1.
     -623    1    1    2    0    0 -0.14852533931E-02  0.29185412565E-03  0.60893427363E-03  0.17130000001E+03  0.17130000000E+03 0.  1.
      622    1    1    2    0    0 -0.26031112210E-01  0.41686233069E-02  0.31007690981E+01  0.31009456616E+01  0.20000000000E-01 0.  1.
</event>
<event>
 5   0  0.3603037E+08  0.9118800E+02  0.7818608E-02  0.1180000E+00
       11   -1    0    0    0    0  0.00000000000E+00  0.00000000000E+00  0.39999999673E+01  0.40000000000E+01  0.51109989000E-03 0.  1.
     -623   -1    0    0    0    0  0.00000000000E+00  0.00000000000E+00  0.12525980253E-10  0.17130000000E+03  0.17130000000E+03 0. -1.
       11    1    1    2    0    0  0.17385896553E-02 -0.14558146774E-03  0.15115193437E+00  0.15116286704E+00  0.51109989000E-03 0.  1.
     -623    1    1    2    0    0 -0.16160240180E-02  0.15919217383E-02  0.63152877214E-04  0.17130000002E+03  0.17130000000E+03 0. -1.
      622    1    1    2    0    0 -0.12256563734E-03 -0.14463402706E-02  0.38487848801E+01  0.38488371179E+01  0.20000000000E-01 0.  1.
</event>
<event>
 5   0  0.3603037E+08  0.9118800E+02  0.7818608E-02  0.1180000E+00
       11   -1    0    0    0    0  0.00000000000E+00  0.00000000000E+00  0.39999999673E+01  0.40000000000E+01  0.51109989000E-03 0.  1.
     -623   -1    0    0    0    0  0.00000000000E+00  0.00000000000E+00  0.12525980253E-10  0.17130000000E+03  0.17130000000E+03 0.  1.
       11    1    1    2    0    0  0.24574821714E-02 -0.31569766601E-02  0.67994719721E+00  0.67995915902E+00  0.51109989000E-03 0.  1.
     -623    1    1    2    0    0  0.13414761404E-01 -0.15607961217E-01  0.16437971268E-03  0.17130000124E+03  0.17130000000E+03 0.  1.
      622    1    1    2    0    0 -0.15872243575E-01  0.18764937877E-01  0.33198883904E+01  0.33200396046E+01  0.20000000000E-01 0.  0.
</event>
<event>
 5   0  0.3603037E+08  0.9118800E+02  0.7818608E-02  0.1180000E+00
       11   -1    0    0    0    0  0.00000000000E+00  0.00000000000E+00  0.39999999673E+01  0.40000000000E+01  0.51109989000E-03 0.  1.
     -623   -1    0    0    0    0  0.00000000000E+00  0.00000000000E+00  0.12525980253E-10  0.17130000000E+03  0.17130000000E+03 0. -1.
       11    1    1    2    0    0  0.12878638589E-01  0.15789080371E-01  0.34438701768E+00  0.34498961369E+00  0.51109989000E-03 0.  1.
     -623    1    1    2    0    0 -0.36402724032E-02 -0.28041934160E-04  0.70298185006E-03  0.17130000004E+03  0.17130000000E+03 0. -1.
      622    1    1    2    0    0 -0.92383661856E-02 -0.15761038437E-01  0.36549099678E+01  0.36550103462E+01  0.20000000000E-01 0.  1.
</event>
<event>
 5   0  0.3603037E+08  0.9118800E+02  0.7818608E-02  0.1180000E+00
       11   -1    0    0    0    0  0.00000000000E+00  0.00000000000E+00  0.39999999673E+01  0.40000000000E+01  0.51109989000E-03 0.  1.
     -623   -1    0    0    0    0  0.00000000000E+00  0.00000000000E+00  0.12525980253E-10  0.17130000000E+03  0.17130000000E+03 0.  1.
       11    1    1    2    0    0 -0.19957276543E-03  0.51661136910E-02  0.17669248827E-01  0.18417169625E-01  0.51109989000E-03 0.  1.
     -623    1    1    2    0    0 -0.96320838269E-02 -0.42303579881E-02  0.81069342421E-03  0.17130000032E+03  0.17130000000E+03 0.  1.
      622    1    1    2    0    0  0.98316565923E-02 -0.93575570289E-03  0.39815200251E+01  0.39815825054E+01  0.20000000000E-01 0.  1.
</event>
<event>
 5   0  0.3603037E+08  0.9118800E+02  0.7818608E-02  0.1180000E+00
       11   -1    0    0    0    0  0.00000000000E+00  0.00000000000E+00  0.39999999673E+01  0.40000000000E+01  0.51109989000E-03 0.  1.
     -623   -1    0    0    0    0  0.00000000000E+00  0.00000000000E+00  0.12525980253E-10  0.17130000000E+03  0.17130000000E+03 0. -1.
       11    1    1    2    0    0  0.18963641943E-02 -0.42069346091E-04  0.39930061224E-01  0.39978356380E-01  0.51109989000E-03 0.  1.
     -623    1    1    2    0    0 -0.12190985077E-04  0.12908188608E-03  0.99216894887E-04  0.17130000000E+03  0.17130000000E+03 0. -1.
      622    1    1    2    0    0 -0.18841732092E-02 -0.87012539988E-04  0.39599706892E+01  0.39600216435E+01  0.20000000000E-01 0.  1.
</event>
<event>
 5   0  0.3603037E+08  0.9118800E+02  0.7818608E-02  0.1180000E+00
       11   -1    0    0    0    0  0.00000000000E+00  0.00000000000E+00  0.39999999673E+01  0.40000000000E+01  0.51109989000E-03 0.  1.
     -623   -1    0    0    0    0  0.00000000000E+00  0.00000000000E+00  0.12525980253E-10  0.17130000000E+03  0.17130000000E+03 0. -1.
       11    1    1    2    0    0  0.11926738081E-01 -0.53052742297E-02  0.13257084234E+01  0.13257727852E+01  0.51109989000E-03 0.  1.
     -623    1    1    2    0    0  0.20959175808E-03 -0.40782460848E-04  0.17200210940E-03  0.17130000000E+03  0.17130000000E+03 0. -1.
      622    1    1    2    0    0 -0.12136329839E-01  0.53460566906E-02  0.26741195419E+01  0.26742272145E+01  0.20000000000E-01 0.  0.
</event>
<event>
 5   0  0.3603037E+08  0.9118800E+02  0.7818608E-02  0.1180000E+00
       11   -1    0    0    0    0  0.00000000000E+00  0.00000000000E+00  0.39999999673E+01  0.40000000000E+01  0.51109989000E-03 0. -1.
     -623   -1    0    0    0    0  0.00000000000E+00  0.00000000000E+00  0.12525980253E-10  0.17130000000E+03  0.17130000000E+03 0.  1.
       11    1    1    2    0    0 -0.77063104441E-03  0.20218023628E-03  0.38116725650E-01  0.38128476826E-01  0.51109989000E-03 0. -1.
     -623    1    1    2    0    0  0.24761692814E-03 -0.31079257309E-03  0.62236533217E-04  0.17130000000E+03  0.17130000000E+03 0.  1.
      622    1    1    2    0    0  0.52301411627E-03  0.10861233681E-03  0.39618210052E+01  0.39618715227E+01  0.20000000000E-01 0. -1.
</event>
<event>
 5   0  0.3603037E+08  0.9118800E+02  0.7818608E-02  0.1180000E+00
       11   -1    0    0    0    0  0.00000000000E+00  0.00000000000E+00  0.39999999673E+01  0.40000000000E+01  0.51109989000E-03 0.  1.
     -623   -1    0    0    0    0  0.00000000000E+00  0.00000000000E+00  0.12525980253E-10  0.17130000000E+03  0.17130000000E+03 0. -1.
       11    1    1    2    0    0 -0.94887756451E-02 -0.13644505418E-01  0.34629447062E+01  0.34629846244E+01  0.51109989000E-03 0.  1.
     -623    1    1    2    0    0  0.34736583409E-02  0.55717518126E-02  0.50700919068E-03  0.17130000013E+03  0.17130000000E+03 0. -1.
      622    1    1    2    0    0  0.60151173043E-02  0.80727536056E-02  0.53654825200E+00  0.53701524905E+00  0.20000000000E-01 0.  0.
</event>
<event>
 5   0  0.3603037E+08  0.9118800E+02  0.7818608E-02  0.1180000E+00
       11   -1    0    0    0    0  0.00000000000E+00  0.00000000000E+00  0.39999999673E+01  0.40000000000E+01  0.51109989000E-03 0.  1.
     -623   -1    0    0    0    0  0.00000000000E+00  0.00000000000E+00  0.12525980253E-10  0.17130000000E+03  0.17130000000E+03 0. -1.
       11    1    1    2    0    0 -0.56141489622E-03  0.14926419664E-02  0.13571080813E+01  0.13571091146E+01  0.51109989000E-03 0.  1.
     -623    1    1    2    0    0  0.11609237414E-03  0.11787245046E-02  0.78068119660E-04  0.17130000000E+03  0.17130000000E+03 0. -1.
      622    1    1    2    0    0  0.44532252208E-03 -0.26713664710E-02  0.26428138179E+01  0.26428908813E+01  0.20000000000E-01 0.  1.
</event>
<event>
 5   0  0.3603037E+08  0.9118800E+02  0.7818608E-02  0.1180000E+00
       11   -1    0    0    0    0  0.00000000000E+00  0.00000000000E+00  0.39999999673E+01  0.40000000000E+01  0.51109989000E-03 0.  1.
     -623   -1    0    0    0    0  0.00000000000E+00  0.00000000000E+00  0.12525980253E-10  0.17130000000E+03  0.17130000000E+03 0.  1.
       11    1    1    2    0    0  0.76174920439E-02  0.19655031652E-01  0.33126036239E+01  0.33126707317E+01  0.51109989000E-03 0.  1.
     -623    1    1    2    0    0  0.49340586461E-03 -0.98100393797E-03  0.65985070529E-03  0.17130000000E+03  0.17130000000E+03 0.  1.
      622    1    1    2    0    0 -0.81108979085E-02 -0.18674027714E-01  0.68673649279E+00  0.68732926353E+00  0.20000000000E-01 0.  1.
</event>
<event>
 5   0  0.3603037E+08  0.9118800E+02  0.7818608E-02  0.1180000E+00
       11   -1    0    0    0    0  0.00000000000E+00  0.00000000000E+00  0.39999999673E+01  0.40000000000E+01  0.51109989000E-03 0. -1.
     -623   -1    0    0    0    0  0.00000000000E+00  0.00000000000E+00  0.12525980253E-10  0.17130000000E+03  0.17130000000E+03 0. -1.
       11    1    1    2    0    0 -0.13342418939E-01  0.82791518352E-02  0.58303212260E+00  0.58324375839E+00  0.51109989000E-03 0. -1.
     -623    1    1    2    0    0  0.29824702804E-03 -0.30091541738E-03  0.30435438568E-03  0.17130000000E+03  0.17130000000E+03 0. -1.
      622    1    1    2    0    0  0.13044171911E-01 -0.79782364178E-02  0.34166634904E+01  0.34167562408E+01  0.20000000000E-01 0. -1.
</event>
<event>
 5   0  0.3603037E+08  0.9118800E+02  0.7818608E-02  0.1180000E+00
       11   -1    0    0    0    0  0.00000000000E+00  0.00000000000E+00  0.39999999673E+01  0.40000000000E+01  0.51109989000E-03 0. -1.
     -623   -1    0    0    0    0  0.00000000000E+00  0.00000000000E+00  0.12525980253E-10  0.17130000000E+03  0.17130000000E+03 0.  1.
       11    1    1    2    0    0  0.27360819286E-02  0.21752989946E-02  0.13311576406E+01  0.13311623280E+01  0.51109989000E-03 0. -1.
     -623    1    1    2    0    0 -0.48269423936E-02 -0.48324269121E-02  0.81872792449E-04  0.17130000014E+03  0.17130000000E+03 0.  1.
      622    1    1    2    0    0  0.20908604649E-02  0.26571279175E-02  0.26687604540E+01  0.26688375358E+01  0.20000000000E-01 0. -1.
</event>
<event>
 5   0  0.3603037E+08  0.9118800E+02  0.7818608E-02  0.1180000E+00
       11   -1    0    0    0    0  0.00000000000E+00  0.00000000000E+00  0.39999999673E+01  0.40000000000E+01  0.51109989000E-03 0.  1.
     -623   -1    0    0    0    0  0.00000000000E+00  0.00000000000E+00  0.12525980253E-10  0.17130000000E+03  0.17130000000E+03 0.  1.
       11    1    1    2    0    0 -0.45283915200E-02 -0.46834166966E-02  0.13964966586E+01  0.13965119474E+01  0.51109989000E-03 0.  1.
     -623    1    1    2    0    0  0.12246633731E-01 -0.90888818362E-03  0.10996499906E-03  0.17130000044E+03  0.17130000000E+03 0.  1.
      622    1    1    2    0    0 -0.77182422110E-02  0.55923048802E-02  0.26033933438E+01  0.26034876123E+01  0.20000000000E-01 0.  1.
</event>
<event>
 5   0  0.3603037E+08  0.9118800E+02  0.7818608E-02  0.1180000E+00
       11   -1    0    0    0    0  0.00000000000E+00  0.00000000000E+00  0.39999999673E+01  0.40000000000E+01  0.51109989000E-03 0. -1.
     -623   -1    0    0    0    0  0.00000000000E+00  0.00000000000E+00  0.12525980253E-10  0.17130000000E+03  0.17130000000E+03 0. -1.
       11    1    1    2    0    0  0.99760040393E-03 -0.10395069044E-02  0.74968893078E-01  0.74984477931E-01  0.51109989000E-03 0. -1.
     -623    1    1    2    0    0  0.12988944068E-02  0.14498734213E-02  0.67212121527E-04  0.17130000001E+03  0.17130000000E+03 0. -1.
      622    1    1    2    0    0 -0.22964948108E-02 -0.41036651691E-03  0.39249638622E+01  0.39250155110E+01  0.20000000000E-01 0. -1.
</event>
<event>
 5   0  0.3603037E+08  0.9118800E+02  0.7818608E-02  0.1180000E+00
       11   -1    0    0    0    0  0.00000000000E+00  0.00000000000E+00  0.39999999673E+01  0.40000000000E+01  0.51109989000E-03 0. -1.
     -623   -1    0    0    0    0  0.00000000000E+00  0.00000000000E+00  0.12525980253E-10  0.17130000000E+03  0.17130000000E+03 0.  1.
       11    1    1    2    0    0  0.11896884054E-02  0.12835863563E-02  0.13154795396E+00  0.13156058819E+00  0.51109989000E-03 0. -1.
     -623    1    1    2    0    0  0.68043111877E-03  0.47365709379E-04  0.64984744881E-04  0.17130000000E+03  0.17130000000E+03 0.  1.
      622    1    1    2    0    0 -0.18701195242E-02 -0.13309520657E-02  0.38683870287E+01  0.38684394104E+01  0.20000000000E-01 0. -1.
</event>
<event>
 5   0  0.3603037E+08  0.9118800E+02  0.7818608E-02  0.1180000E+00
       11   -1    0    0    0    0  0.00000000000E+00  0.00000000000E+00  0.39999999673E+01  0.40000000000E+01  0.51109989000E-03 0.  1.
     -623   -1    0    0    0    0  0.00000000000E+00  0.00000000000E+00  0.12525980253E-10  0.17130000000E+03  0.17130000000E+03 0.  1.
       11    1    1    2    0    0 -0.19745141232E-02 -0.84439760891E-02  0.48052606716E+00  0.48060457955E+00  0.51109989000E-03 0.  1.
     -623    1    1    2    0    0 -0.50972864866E-02  0.73306537005E-02  0.14282208730E-03  0.17130000023E+03  0.17130000000E+03 0.  1.
      622    1    1    2    0    0  0.70718006099E-02  0.11133223886E-02  0.35193310781E+01  0.35193951877E+01  0.20000000000E-01 0.  1.
</event>
<event>
 5   0  0.3603037E+08  0.9118800E+02  0.7818608E-02  0.1180000E+00
       11   -1    0    0    0    0  0.00000000000E+00  0.00000000000E+00  0.39999999673E+01  0.40000000000E+01  0.51109989000E-03 0. -1.
     -623   -1    0    0    0    0  0.00000000000E+00  0.00000000000E+00  0.12525980253E-10  0.17130000000E+03  0.17130000000E+03 0. -1.
       11    1    1    2    0    0  0.18056861587E-02  0.23359075886E-02  0.29983802884E-01  0.30133148232E-01  0.51109989000E-03 0. -1.
     -623    1    1    2    0    0 -0.98170712562E-04  0.27247220360E-03  0.20091705746E-03  0.17130000000E+03  0.17130000000E+03 0. -1.
      622    1    1    2    0    0 -0.17075154461E-02 -0.26083797922E-02  0.39698152474E+01  0.39698668514E+01  0.20000000000E-01 0. -1.
</event>
<event>
 5   0  0.3603037E+08  0.9118800E+02  0.7818608E-02  0.1180000E+00
       11   -1    0    0    0    0  0.00000000000E+00  0.00000000000E+00  0.39999999673E+01  0.40000000000E+01  0.51109989000E-03 0.  1.
     -623   -1    0    0    0    0  0.00000000000E+00  0.00000000000E+00  0.12525980253E-10  0.17130000000E+03  0.17130000000E+03 0. -1.
       11    1    1    2    0    0  0.74244253073E-02  0.21807474681E-02  0.15150330075E+00  0.15170164504E+00  0.51109989000E-03 0.  1.
     -623    1    1    2    0    0  0.19428903059E-02  0.59250842582E-03  0.26269542634E-03  0.17130000001E+03  0.17130000000E+03 0. -1.
      622    1    1    2    0    0 -0.93673156133E-02 -0.27732558939E-02  0.38482339712E+01  0.38482983427E+01  0.20000000000E-01 0.  1.
</event>
<event>
 5   0  0.3603037E+08  0.9118800E+02  0.7818608E-02  0.1180000E+00
       11   -1    0    0    0    0  0.00000000000E+00  0.00000000000E+00  0.39999999673E+01  0.40000000000E+01  0.51109989000E-03 0.  1.
     -623   -1    0    0    0    0  0.00000000000E+00  0.00000000000E+00  0.12525980253E-10  0.17130000000E+03  0.17130000000E+03 0.  1.
       11    1    1    2    0    0  0.33273038884E-02 -0.82768034884E-02  0.52431663914E-01  0.53187564616E-01  0.51109989000E-03 0.  1.
     -623    1    1    2    0    0 -0.74724402477E-02  0.34941800329E-02  0.81181723421E-03  0.17130000020E+03  0.17130000000E+03 0.  1.
      622    1    1    2    0    0  0.41451363593E-02  0.47826234555E-02  0.39467564862E+01  0.39468122348E+01  0.20000000000E-01 0.  1.
</event>
<event>
 5   0  0.3603037E+08  0.9118800E+02  0.7818608E-02  0.1180000E+00
       11   -1    0    0    0    0  0.00000000000E+00  0.00000000000E+00  0.39999999673E+01  0.40000000000E+01  0.51109989000E-03 0. -1.
     -623   -1    0    0    0    0  0.00000000000E+00  0.00000000000E+00  0.12525980253E-10  0.17130000000E+03  0.17130000000E+03 0.  1.
       11    1    1    2    0    0  0.15594806562E-01  0.26650329608E-03  0.13723956676E+01  0.13724843893E+01  0.51109989000E-03 0. -1.
     -623    1    1    2    0    0  0.99717284924E-05 -0.24965061267E-03  0.21114802188E-03  0.17130000000E+03  0.17130000000E+03 0.  1.
      622    1    1    2    0    0 -0.15604778290E-01 -0.16852683404E-04  0.26273931517E+01  0.26275156104E+01  0.20000000000E-01 0. -1.
</event>
<event>
 5   0  0.3603037E+08  0.9118800E+02  0.7818608E-02  0.1180000E+00
       11   -1    0    0    0    0  0.00000000000E+00  0.00000000000E+00  0.39999999673E+01  0.40000000000E+01  0.51109989000E-03 0.  1.
     -623   -1    0    0    0    0  0.00000000000E+00  0.00000000000E+00  0.12525980253E-10  0.17130000000E+03  0.17130000000E+03 0. -1.
       11    1    1    2    0    0  0.47147792070E-02 -0.24243218164E-02  0.19004489634E+00  0.19011951590E+00  0.51109989000E-03 0.  1.
     -623    1    1    2    0    0  0.63796939215E-02 -0.24799790153E-02  0.14652975062E-03  0.17130000014E+03  0.17130000000E+03 0. -1.
      622    1    1    2    0    0 -0.11094473129E-01  0.49043008317E-02  0.38098085413E+01  0.38098803473E+01  0.20000000000E-01 0.  0.
</event>
<event>
 5   0  0.3603037E+08  0.9118800E+02  0.7818608E-02  0.1180000E+00
       11   -1    0    0    0    0  0.00000000000E+00  0.00000000000E+00  0.39999999673E+01  0.40000000000E+01  0.51109989000E-03 0.  1.
     -623   -1    0    0    0    0  0.00000000000E+00  0.00000000000E+00  0.12525980253E-10  0.17130000000E+03  0.17130000000E+03 0. -1.
       11    1    1    2    0    0  0.18638939798E-02  0.18914617132E-01  0.19994088970E+01  0.19994992962E+01  0.51109989000E-03 0.  1.
     -623    1    1    2    0    0  0.25611783670E-03  0.84756576538E-04  0.28169590957E-03  0.17130000000E+03  0.17130000000E+03 0. -1.
      622    1    1    2    0    0 -0.21200118165E-02 -0.18999373709E-01  0.20003093744E+01  0.20005007033E+01  0.20000000000E-01 0.  1.
</event>
<event>
 5   0  0.3603037E+08  0.9118800E+02  0.7818608E-02  0.1180000E+00
       11   -1    0    0    0    0  0.00000000000E+00  0.00000000000E+00  0.39999999673E+01  0.40000000000E+01  0.51109989000E-03 0. -1.
     -623   -1    0    0    0    0  0.00000000000E+00  0.00000000000E+00  0.12525980253E-10  0.17130000000E+03  0.17130000000E+03 0.  1.
       11    1    1    2    0    0  0.11177580011E-02 -0.18627766621E-03  0.27195989074E-01  0.27224384761E-01  0.51109989000E-03 0. -1.
     -623    1    1    2    0    0 -0.15292128094E-02 -0.19638165813E-02  0.79327242026E-04  0.17130000002E+03  0.17130000000E+03 0.  1.
      622    1    1    2    0    0  0.41145480834E-03  0.21500942475E-02  0.39727246510E+01  0.39727755971E+01  0.20000000000E-01 0. -1.
</event>
<event>
 5   0  0.3603037E+08  0.9118800E+02  0.7818608E-02  0.1180000E+00
       11   -1    0    0    0    0  0.00000000000E+00  0.00000000000E+00  0.39999999673E+01  0.40000000000E+01  0.51109989000E-03 0.  1.
     -623   -1    0    0    0    0  0.00000000000E+00  0.00000000000E+00  0.12525980253E-10  0.17130000000E+03  0.17130000000E+03 0.  1.
       11    1    1    2    0    0 -0.21947139282E-02  0.15082552353E-02  0.58247957843E-01  0.58311040274E-01  0.51109989000E-03 0.  1.
     -623    1    1    2    0    0  0.34550436402E-03  0.79479070726E-04  0.11454374762E-03  0.17130000000E+03  0.17130000000E+03 0.  1.
      622    1    1    2    0    0  0.18492095642E-02 -0.15877343061E-02  0.39416374658E+01  0.39416889593E+01  0.20000000000E-01 0.  1.
</event>
<event>
 5   0  0.3603037E+08  0.9118800E+02  0.7818608E-02  0.1180000E+00
       11   -1    0    0    0    0  0.00000000000E+00  0.00000000000E+00  0.39999999673E+01  0.40000000000E+01  0.51109989000E-03 0. -1.
     -623   -1    0    0    0    0  0.00000000000E+00  0.00000000000E+00  0.12525980253E-10  0.17130000000E+03  0.17130000000E+03 0.  1.
       11    1    1    2    0    0  0.14708792517E-02  0.14023505830E-02  0.13884915415E-01  0.14042156915E-01  0.51109989000E-03 0. -1.
     -623    1    1    2    0    0  0.35383790122E-03  0.63361050639E-04  0.20807298340E-03  0.17130000000E+03  0.17130000000E+03 0.  1.
      622    1    1    2    0    0 -0.18247171529E-02 -0.14657116337E-02  0.39859069790E+01  0.39859578426E+01  0.20000000000E-01 0. -1.
</event>
<event>
 5   0  0.3603037E+08  0.9118800E+02  0.7818608E-02  0.1180000E+00
       11   -1    0    0    0    0  0.00000000000E+00  0.00000000000E+00  0.39999999673E+01  0.40000000000E+01  0.51109989000E-03 0. -1.
     -623   -1    0    0    0    0  0.00000000000E+00  0.00000000000E+00  0.12525980253E-10  0.17130000000E+03  0.17130000000E+03 0. -1.
       11    1    1    2    0    0 -0.80227251833E-02 -0.27917302705E-03  0.22051629835E+01  0.22051776543E+01  0.51109989000E-03 0. -1.
     -623    1    1    2    0    0  0.13265683496E-04  0.19270227116E-02  0.14471313433E-03  0.17130000001E+03  0.17130000000E+03 0. -1.
      622    1    1    2    0    0  0.80094594998E-02 -0.16478496846E-02  0.17946922707E+01  0.17948223348E+01  0.20000000000E-01 0. -1.
</event>
<event>
 5   0  0.3603037E+08  0.9118800E+02  0.7818608E-02  0.1180000E+00
       11   -1    0    0    0    0  0.00000000000E+00  0.00000000000E+00  0.39999999673E+01  0.40000000000E+01  0.51109989000E-03 0. -1.
     -623   -1    0    0    0    0  0.00000000000E+00  0.00000000000E+00  0.12525980253E-10  0.17130000000E+03  0.17130000000E+03 0.  1.
       11    1    1    2    0    0 -0.14734498877E-01 -0.76613414557E-02  0.76724549681E+00  0.76742538087E+00  0.51109989000E-03 0. -1.
     -623    1    1    2    0    0  0.29896430757E-02  0.16525418705E-01  0.27603578833E-03  0.17130000082E+03  0.17130000000E+03 0.  1.
      622    1    1    2    0    0  0.11744855801E-01 -0.88640772498E-02  0.32324784348E+01  0.32325737957E+01  0.20000000000E-01 0. -1.
</event>
<event>
 5   0  0.3603037E+08  0.9118800E+02  0.7818608E-02  0.1180000E+00
       11   -1    0    0    0    0  0.00000000000E+00  0.00000000000E+00  0.39999999673E+01  0.40000000000E+01  0.51109989000E-03 0. -1.
     -623   -1    0    0    0    0  0.00000000000E+00  0.00000000000E+00  0.12525980253E-10  0.17130000000E+03  0.17130000000E+03 0.  1.
       11    1    1    2    0    0 -0.97351140444E-05  0.10393073669E-01  0.18240048627E+00  0.18269705714E+00  0.51109989000E-03 0. -1.
     -623    1    1    2    0    0  0.59055991622E-03 -0.60699330513E-03  0.36152231243E-03  0.17130000000E+03  0.17130000000E+03 0.  1.
      622    1    1    2    0    0 -0.58082480218E-03 -0.97860803638E-02  0.38172379588E+01  0.38173029404E+01  0.20000000000E-01 0. -1.
</event>
<event>
 5   0  0.3603037E+08  0.9118800E+02  0.7818608E-02  0.1180000E+00
       11   -1    0    0    0    0  0.00000000000E+00  0.00000000000E+00  0.39999999673E+01  0.40000000000E+01  0.51109989000E-03 0.  1.
     -623   -1    0    0    0    0  0.00000000000E+00  0.00000000000E+00  0.12525980253E-10  0.17130000000E+03  0.17130000000E+03 0. -1.
       11    1    1    2    0    0  0.11863443662E-02  0.24875858986E-02  0.16116431351E+01  0.16116455726E+01  0.51109989000E-03 0.  1.
     -623    1    1    2    0    0  0.18891123387E-02 -0.40926346637E-03  0.89041392937E-04  0.17130000001E+03  0.17130000000E+03 0. -1.
      622    1    1    2    0    0 -0.30754567048E-02 -0.20783224323E-02  0.23882677908E+01  0.23883544165E+01  0.20000000000E-01 0.  1.
</event>
<event>
 5   0  0.3603037E+08  0.9118800E+02  0.7818608E-02  0.1180000E+00
       11   -1    0    0    0    0  0.00000000000E+00  0.00000000000E+00  0.39999999673E+01  0.40000000000E+01  0.51109989000E-03 0. -1.
     -623   -1    0    0    0    0  0.00000000000E+00  0.00000000000E+00  0.12525980253E-10  0.17130000000E+03  0.17130000000E+03 0.  1.
       11    1    1    2    0    0  0.94922324160E-04 -0.32616298005E-02  0.18751362158E+00  0.18754270644E+00  0.51109989000E-03 0. -1.
     -623    1    1    2    0    0 -0.24987687578E-03 -0.15850172384E-03  0.83049721729E-04  0.17130000000E+03  0.17130000000E+03 0.  1.
      622    1    1    2    0    0  0.15495455162E-03  0.34201315243E-02  0.38124032961E+01  0.38124572933E+01  0.20000000000E-01 0. -1.
</event>
<event>
 5   0  0.3603037E+08  0.9118800E+02  0.7818608E-02  0.1180000E+00
       11   -1    0    0    0    0  0.00000000000E+00  0.00000000000E+00  0.39999999673E+01  0.40000000000E+01  0.51109989000E-03 0.  1.
     -623   -1    0    0    0    0  0.00000000000E+00  0.00000000000E+00  0.12525980253E-10  0.17130000000E+03  0.17130000000E+03 0.  1.
       11    1    1    2    0    0 -0.47545161250E-03 -0.53270163728E-02  0.68659657952E+00  0.68661759910E+00  0.51109989000E-03 0.  1.
     -623    1    1    2    0    0  0.12993445281E-02  0.78311167961E-02  0.82581411873E-04  0.17130000018E+03  0.17130000000E+03 0.  1.
      622    1    1    2    0    0 -0.82389291559E-03 -0.25041004233E-02  0.33133208064E+01  0.33133822170E+01  0.20000000000E-01 0.  1.
</event>
<event>
 5   0  0.3603037E+08  0.9118800E+02  0.7818608E-02  0.1180000E+00
       11   -1    0    0    0    0  0.00000000000E+00  0.00000000000E+00  0.39999999673E+01  0.40000000000E+01  0.51109989000E-03 0. -1.
     -623   -1    0    0    0    0  0.00000000000E+00  0.00000000000E+00  0.12525980253E-10  0.17130000000E+03  0.17130000000E+03 0.  1.
       11    1    1    2    0    0 -0.64892661315E-02 -0.30425240090E-02  0.16499188102E-01  0.17995887261E-01  0.51109989000E-03 0. -1.
     -623    1    1    2    0    0  0.71164390941E-02  0.52001272737E-02  0.15477604830E-02  0.17130000023E+03  0.17130000000E+03 0.  1.
      622    1    1    2    0    0 -0.62717296258E-03 -0.21576032647E-02  0.39819530188E+01  0.39820038790E+01  0.20000000000E-01 0. -1.
</event>
<event>
 5   0  0.3603037E+08  0.9118800E+02  0.7818608E-02  0.1180000E+00
       11   -1    0    0    0    0  0.00000000000E+00  0.00000000000E+00  0.39999999673E+01  0.40000000000E+01  0.51109989000E-03 0.  1.
     -623   -1    0    0    0    0  0.00000000000E+00  0.00000000000E+00  0.12525980253E-10  0.17130000000E+03  0.17130000000E+03 0. -1.
       11    1    1    2    0    0 -0.88271596103E-04  0.28650497629E-03  0.24448873335E-01  0.24456052530E-01  0.51109989000E-03 0.  1.
     -623    1    1    2    0    0  0.17407901731E-03 -0.72595149323E-03  0.57481304277E-04  0.17130000000E+03  0.17130000000E+03 0. -1.
      622    1    1    2    0    0 -0.85807421210E-04  0.43944651694E-03  0.39754936127E+01  0.39755439458E+01  0.20000000000E-01 0.  1.
</event>
<event>
 5   0  0.3603037E+08  0.9118800E+02  0.7818608E-02  0.1180000E+00
       11   -1    0    0    0    0  0.00000000000E+00  0.00000000000E+00  0.39999999673E+01  0.40000000000E+01  0.51109989000E-03 0.  1.
     -623   -1    0    0    0    0  0.00000000000E+00  0.00000000000E+00  0.12525980253E-10  0.17130000000E+03  0.17130000000E+03 0. -1.
       11    1    1    2    0    0  0.92548581745E-02 -0.32842954769E-02  0.84029030344E+00  0.84034784124E+00  0.51109989000E-03 0.  1.
     -623    1    1    2    0    0 -0.84144600225E-03 -0.39198359885E-03  0.13414692261E-03  0.17130000000E+03  0.17130000000E+03 0. -1.
      622    1    1    2    0    0 -0.84134121723E-02  0.36762790758E-02  0.31595755170E+01  0.31596521562E+01  0.20000000000E-01 0.  1.
</event>
<event>
 5   0  0.3603037E+08  0.9118800E+02  0.7818608E-02  0.1180000E+00
       11   -1    0    0    0    0  0.00000000000E+00  0.00000000000E+00  0.39999999673E+01  0.40000000000E+01  0.51109989000E-03 0.  1.
     -623   -1    0    0    0    0  0.00000000000E+00  0.00000000000E+00  0.12525980253E-10  0.17130000000E+03  0.17130000000E+03 0. -1.
       11    1    1    2    0    0  0.58571682040E-03  0.30211991233E-02  0.11177507569E-01  0.11604680305E-01  0.51109989000E-03 0.  1.
     -623    1    1    2    0    0 -0.21487182502E-02 -0.50143979341E-02  0.47817774969E-03  0.17130000009E+03  0.17130000000E+03 0. -1.
      622    1    1    2    0    0  0.15630014298E-02  0.19931988108E-02  0.39883442820E+01  0.39883952322E+01  0.20000000000E-01 0.  1.
</event>
<event>
 5   0  0.3603037E+08  0.9118800E+02  0.7818608E-02  0.1180000E+00
       11   -1    0    0    0    0  0.00000000000E+00  0.00000000000E+00  0.39999999673E+01  0.40000000000E+01  0.51109989000E-03 0.  1.
     -623   -1    0    0    0    0  0.00000000000E+00  0.00000000000E+00  0.12525980253E-10  0.17130000000E+03  0.17130000000E+03 0.  1.
       11    1    1    2    0    0 -0.10210663294E-02 -0.29551872298E-02  0.99055460843E+00  0.99055967473E+00  0.51109989000E-03 0.  1.
     -623    1    1    2    0    0  0.63280156718E-04 -0.96092880119E-04  0.73191294113E-04  0.17130000000E+03  0.17130000000E+03 0.  1.
      622    1    1    2    0    0  0.95778617272E-03  0.30512801099E-02  0.30093721676E+01  0.30094403252E+01  0.20000000000E-01 0.  1.
</event>
<event>
 5   0  0.3603037E+08  0.9118800E+02  0.7818608E-02  0.1180000E+00
       11   -1    0    0    0    0  0.00000000000E+00  0.00000000000E+00  0.39999999673E+01  0.40000000000E+01  0.51109989000E-03 0.  1.
     -623   -1    0    0    0    0  0.00000000000E+00  0.00000000000E+00  0.12525980253E-10  0.17130000000E+03  0.17130000000E+03 0. -1.
       11    1    1    2    0    0  0.11902150005E-02 -0.46245346996E-03  0.57489561694E-02  0.59111922998E-02  0.51109989000E-03 0.  1.
     -623    1    1    2    0    0 -0.48152685142E-03  0.15035454161E-02  0.21248377054E-03  0.17130000001E+03  0.17130000000E+03 0. -1.
      622    1    1    2    0    0 -0.70868814904E-03 -0.10410919462E-02  0.39940385274E+01  0.39940888003E+01  0.20000000000E-01 0.  1.
</event>
<event>
 5   0  0.3603037E+08  0.9118800E+02  0.7818608E-02  0.1180000E+00
       11   -1    0    0    0    0  0.00000000000E+00  0.00000000000E+00  0.39999999673E+01  0.40000000000E+01  0.51109989000E-03 0.  1.
     -623   -1    0    0    0    0  0.00000000000E+00  0.00000000000E+00  0.12525980253E-10  0.17130000000E+03  0.17130000000E+03 0.  1.
       11    1    1    2    0    0  0.22083004578E-02  0.85332909973E-02  0.17448606864E+00  0.17470931004E+00  0.51109989000E-03 0.  1.
     -623    1    1    2    0    0  0.90845816743E-03  0.81006688842E-03  0.28817790239E-03  0.17130000000E+03  0.17130000000E+03 0.  1.
      622    1    1    2    0    0 -0.31167586252E-02 -0.93433578857E-02  0.38252257208E+01  0.38252906854E+01  0.20000000000E-01 0.  1.
</event>
<event>
 5   0  0.3603037E+08  0.9118800E+02  0.7818608E-02  0.1180000E+00
       11   -1    0    0    0    0  0.00000000000E+00  0.00000000000E+00  0.39999999673E+01  0.40000000000E+01  0.51109989000E-03 0. -1.
     -623   -1    0    0    0    0  0.00000000000E+00  0.00000000000E+00  0.12525980253E-10  0.17130000000E+03  0.17130000000E+03 0. -1.
       11    1    1    2    0    0 -0.46449040347E-02  0.24657217498E-02  0.11723996061E+01  0.11724115116E+01  0.51109989000E-03 0. -1.
     -623    1    1    2    0    0 -0.20042512773E-03 -0.85153246471E-03  0.87219968408E-04  0.17130000000E+03  0.17130000000E+03 0. -1.
      622    1    1    2    0    0  0.48453291624E-02 -0.16141892851E-02  0.28275131412E+01  0.28275884861E+01  0.20000000000E-01 0. -1.
</event>
<event>
 5   0  0.3603037E+08  0.9118800E+02  0.7818608E-02  0.1180000E+00
       11   -1    0    0    0    0  0.00000000000E+00  0.00000000000E+00  0.39999999673E+01  0.40000000000E+01  0.51109989000E-03 0. -1.
     -623   -1    0    0    0    0  0.00000000000E+00  0.00000000000E+00  0.12525980253E-10  0.17130000000E+03  0.17130000000E+03 0.  1.
       11    1    1    2    0    0 -0.11150117685E-01 -0.68878450011E-02  0.16160472208E+01  0.16161004451E+01  0.51109989000E-03 0. -1.
     -623    1    1    2    0    0 -0.27082145907E-03  0.19758886300E-02  0.16952088817E-03  0.17130000001E+03  0.17130000000E+03 0.  1.
      622    1    1    2    0    0  0.11420939144E-01  0.49119563712E-02  0.23837832257E+01  0.23838995432E+01  0.20000000000E-01 0.  0.
</event>
<event>
 5   0  0.3603037E+08  0.9118800E+02  0.7818608E-02  0.1180000E+00
       11   -1    0    0    0    0  0.00000000000E+00  0.00000000000E+00  0.39999999673E+01  0.40000000000E+01  0.51109989000E-03 0. -1.
     -623   -1    0    0    0    0  0.00000000000E+00  0.00000000000E+00  0.12525980253E-10  0.17130000000E+03  0.17130000000E+03 0. -1.
       11    1    1    2    0    0  0.10113865547E-01 -0.53404918848E-02  0.12886289549E+01  0.12886798112E+01  0.51109989000E-03 0. -1.
     -623    1    1    2    0    0 -0.28768206419E-03  0.11037194449E-01  0.14873640820E-03  0.17130000036E+03  0.17130000000E+03 0. -1.
      622    1    1    2    0    0 -0.98261834830E-02 -0.56967025637E-02  0.27112222761E+01  0.27113198329E+01  0.20000000000E-01 0. -1.
</event>
<event>
 5   0  0.3603037E+08  0.9118800E+02  0.7818608E-02  0.1180000E+00
       11   -1    0    0    0    0  0.00000000000E+00  0.00000000000E+00  0.39999999673E+01  0.40000000000E+01  0.51109989000E-03 0. -1.
     -623   -1    0    0    0    0  0.00000000000E+00  0.00000000000E+00  0.12525980253E-10  0.17130000000E+03  0.17130000000E+03 0. -1.
       11    1    1    2    0    0 -0.16572790923E-02 -0.13778265851E-02  0.14628318812E-01  0.14795063753E-01  0.51109989000E-03 0.  1.
     -623    1    1    2    0    0  0.12205475392E-02  0.13279350127E-02  0.21693211800E-03  0.17130000001E+03  0.17130000000E+03 0. -1.
      622    1    1    2    0    0  0.43673155307E-03  0.49891572332E-04  0.39851547164E+01  0.39852049266E+01  0.20000000000E-01 0. -1.
</event>
<event>
 5   0  0.3603037E+08  0.9118800E+02  0.7818608E-02  0.1180000E+00
       11   -1    0    0    0    0  0.00000000000E+00  0.00000000000E+00  0.39999999673E+01  0.40000000000E+01  0.51109989000E-03 0.  1.
     -623   -1    0    0    0    0  0.00000000000E+00  0.00000000000E+00  0.12525980253E-10  0.17130000000E+03  0.17130000000E+03 0. -1.
       11    1    1    2    0    0 -0.47599463683E-02 -0.56541777022E-02  0.22029437852E+01  0.22029562430E+01  0.51109989000E-03 0.  1.
     -623    1    1    2    0    0  0.73026461114E-02  0.10954550410E-01  0.13384477651E-03  0.17130000051E+03  0.17130000000E+03 0. -1.
      622    1    1    2    0    0 -0.25426997431E-02 -0.53003727080E-02  0.17969223374E+01  0.17970432510E+01  0.20000000000E-01 0. -1.
</event>
<event>
 5   0  0.3603037E+08  0.9118800E+02  0.7818608E-02  0.1180000E+00
       11   -1    0    0    0    0  0.00000000000E+00  0.00000000000E+00  0.39999999673E+01  0.40000000000E+01  0.51109989000E-03 0. -1.
     -623   -1    0    0    0    0  0.00000000000E+00  0.00000000000E+00  0.12525980253E-10  0.17130000000E+03  0.17130000000E+03 0.  1.
       11    1    1    2    0    0  0.19585366123E-02 -0.12092235750E-03  0.10256946580E+00  0.10258950738E+00  0.51109989000E-03 0. -1.
     -623    1    1    2    0    0 -0.37548523345E-02 -0.35252104147E-02  0.73522361564E-04  0.17130000008E+03  0.17130000000E+03 0.  1.
      622    1    1    2    0    0  0.17963157222E-02  0.36461327722E-02  0.38973569792E+01  0.38974104152E+01  0.20000000000E-01 0. -1.
</event>
<event>
 5   0  0.3603037E+08  0.9118800E+02  0.7818608E-02  0.1180000E+00
       11   -1    0    0    0    0  0.00000000000E+00  0.00000000000E+00  0.39999999673E+01  0.40000000000E+01  0.51109989000E-03 0.  1.
     -623   -1    0    0    0    0  0.00000000000E+00  0.00000000000E+00  0.12525980253E-10  0.17130000000E+03  0.17130000000E+03 0.  1.
       11    1    1    2    0    0  0.42420952551E-02  0.25754125926E-02  0.34265385207E-01  0.34626665533E-01  0.51109989000E-03 0.  1.
     -623    1    1    2    0    0 -0.83269281876E-04 -0.23409450966E-02  0.41388895372E-03  0.17130000002E+03  0.17130000000E+03 0.  1.
      622    1    1    2    0    0 -0.41588259732E-02 -0.23446749606E-03  0.39653206932E+01  0.39653733180E+01  0.20000000000E-01 0.  1.
</event>
<event>
 5   0  0.3603037E+08  0.9118800E+02  0.7818608E-02  0.1180000E+00
       11   -1    0    0    0    0  0.00000000000E+00  0.00000000000E+00  0.39999999673E+01  0.40000000000E+01  0.51109989000E-03 0. -1.
     -623   -1    0    0    0    0  0.00000000000E+00  0.00000000000E+00  0.12525980253E-10  0.17130000000E+03  0.17130000000E+03 0.  1.
       11    1    1    2    0    0 -0.49824822887E-03 -0.17225105175E-02  0.26529561686E-01  0.26595002503E-01  0.51109989000E-03 0. -1.
     -623    1    1    2    0    0 -0.65144283961E-03  0.17807697167E-02  0.11592045139E-03  0.17130000001E+03  0.17130000000E+03 0.  1.
      622    1    1    2    0    0  0.11496910685E-02 -0.58259199114E-04  0.39733544852E+01  0.39734049870E+01  0.20000000000E-01 0. -1.
</event>
<event>
 5   0  0.3603037E+08  0.9118800E+02  0.7818608E-02  0.1180000E+00
       11   -1    0    0    0    0  0.00000000000E+00  0.00000000000E+00  0.39999999673E+01  0.40000000000E+01  0.51109989000E-03 0.  1.
     -623   -1    0    0    0    0  0.00000000000E+00  0.00000000000E+00  0.12525980253E-10  0.17130000000E+03  0.17130000000E+03 0.  1.
       11    1    1    2    0    0  0.11609219175E-02  0.91979817685E-03  0.11594574349E+00  0.11595632981E+00  0.51109989000E-03 0.  1.
     -623    1    1    2    0    0  0.18421205712E-02 -0.25726583302E-02  0.63588629241E-04  0.17130000003E+03  0.17130000000E+03 0.  1.
      622    1    1    2    0    0 -0.30030424887E-02  0.16528601534E-02  0.38839906352E+01  0.38840436410E+01  0.20000000000E-01 0.  1.
</event>
<event>
 5   0  0.3603037E+08  0.9118800E+02  0.7818608E-02  0.1180000E+00
       11   -1    0    0    0    0  0.00000000000E+00  0.00000000000E+00  0.39999999673E+01  0.40000000000E+01  0.51109989000E-03 0.  1.
     -623   -1    0    0    0    0  0.00000000000E+00  0.00000000000E+00  0.12525980253E-10  0.17130000000E+03  0.17130000000E+03 0. -1.
       11    1    1    2    0    0  0.39793822418E-02 -0.10072509513E-01  0.34416460874E-01  0.36083859723E-01  0.51109989000E-03 0.  1.
     -623    1    1    2    0    0 -0.12058131564E-01  0.11411818466E-01  0.17270938365E-02  0.17130000081E+03  0.17130000000E+03 0. -1.
      622    1    1    2    0    0  0.80787493218E-02 -0.13393089527E-02  0.39638564126E+01  0.39639153271E+01  0.20000000000E-01 0.  1.
</event>
<event>
 5   0  0.3603037E+08  0.9118800E+02  0.7818608E-02  0.1180000E+00
       11   -1    0    0    0    0  0.00000000000E+00  0.00000000000E+00  0.39999999673E+01  0.40000000000E+01  0.51109989000E-03 0.  1.
     -623   -1    0    0    0    0  0.00000000000E+00  0.00000000000E+00  0.12525980253E-10  0.17130000000E+03  0.17130000000E+03 0.  1.
       11    1    1    2    0    0 -0.30494148181E-02  0.20254826768E-02  0.15982827713E-01  0.16404679675E-01  0.51109989000E-03 0.  1.
     -623    1    1    2    0    0 -0.18361695962E-02  0.20444725077E-04  0.47555737542E-03  0.17130000001E+03  0.17130000000E+03 0.  1.
      622    1    1    2    0    0  0.48855844142E-02 -0.20459274019E-02  0.39835415823E+01  0.39835953098E+01  0.20000000000E-01 0.  1.
</event>
<event>
 5   0  0.3603037E+08  0.9118800E+02  0.7818608E-02  0.1180000E+00
       11   -1    0    0    0    0  0.00000000000E+00  0.00000000000E+00  0.39999999673E+01  0.40000000000E+01  0.51109989000E-03 0. -1.
     -623   -1    0    0    0    0  0.00000000000E+00  0.00000000000E+00  0.12525980253E-10  0.17130000000E+03  0.17130000000E+03 0.  1.
       11    1    1    2    0    0  0.65455363266E-05 -0.15339566237E-01  0.12906358312E+01  0.12907270867E+01  0.51109989000E-03 0. -1.
     -623    1    1    2    0    0 -0.79818689431E-03  0.23185546414E-03  0.20728622938E-03  0.17130000000E+03  0.17130000000E+03 0.  1.
      622    1    1    2    0    0  0.79164135798E-03  0.15107710773E-01  0.27091568500E+01  0.27092729112E+01  0.20000000000E-01 0. -1.
</event>
<event>
 5   0  0.3603037E+08  0.9118800E+02  0.7818608E-02  0.1180000E+00
       11   -1    0    0    0    0  0.00000000000E+00  0.00000000000E+00  0.39999999673E+01  0.40000000000E+01  0.51109989000E-03 0. -1.
     -623   -1    0    0    0    0  0.00000000000E+00  0.00000000000E+00  0.12525980253E-10  0.17130000000E+03  0.17130000000E+03 0.  1.
       11    1    1    2    0    0  0.72904619900E-04  0.13517323520E-02  0.41510592104E-02  0.43960219021E-02  0.51109989000E-03 0. -1.
     -623    1    1    2    0    0 -0.44453010498E-03  0.19436957760E-04  0.29523876531E-03  0.17130000000E+03  0.17130000000E+03 0.  1.
      622    1    1    2    0    0  0.37162548508E-03 -0.13711693098E-02  0.39955536694E+01  0.39956039773E+01  0.20000000000E-01 0. -1.
</event>
<event>
 5   0  0.3603037E+08  0.9118800E+02  0.7818608E-02  0.1180000E+00
       11   -1    0    0    0    0  0.00000000000E+00  0.00000000000E+00  0.39999999673E+01  0.40000000000E+01  0.51109989000E-03 0. -1.
     -623   -1    0    0    0    0  0.00000000000E+00  0.00000000000E+00  0.12525980253E-10  0.17130000000E+03  0.17130000000E+03 0. -1.
       11    1    1    2    0    0 -0.22120830524E-02  0.70272827620E-02  0.16578193324E+01  0.16578357808E+01  0.51109989000E-03 0. -1.
     -623    1    1    2    0    0  0.76286022220E-02 -0.28079494558E-02  0.11206539409E-03  0.17130000019E+03  0.17130000000E+03 0. -1.
      622    1    1    2    0    0 -0.54165191696E-02 -0.42193333061E-02  0.23420685696E+01  0.23421640263E+01  0.20000000000E-01 0. -1.
</event>
<event>
 5   0  0.3603037E+08  0.9118800E+02  0.7818608E-02  0.1180000E+00
       11   -1    0    0    0    0  0.00000000000E+00  0.00000000000E+00  0.39999999673E+01  0.40000000000E+01  0.51109989000E-03 0.  1.
     -623   -1    0    0    0    0  0.00000000000E+00  0.00000000000E+00  0.12525980253E-10  0.17130000000E+03  0.17130000000E+03 0. -1.
       11    1    1    2    0    0 -0.10419402152E-02  0.13829281754E-02  0.41698619311E-02  0.45439078283E-02  0.51109989000E-03 0.  1.
     -623    1    1    2    0    0 -0.58251083514E-03 -0.20494015245E-03  0.42457596446E-03  0.17130000000E+03  0.17130000000E+03 0. -1.
      622    1    1    2    0    0  0.16244510504E-02 -0.11779880229E-02  0.39954055295E+01  0.39954560905E+01  0.20000000000E-01 0.  1.
</event>
<event>
 5   0  0.3603037E+08  0.9118800E+02  0.7818608E-02  0.1180000E+00
       11   -1    0    0    0    0  0.00000000000E+00  0.00000000000E+00  0.39999999673E+01  0.40000000000E+01  0.51109989000E-03 0.  1.
     -623   -1    0    0    0    0  0.00000000000E+00  0.00000000000E+00  0.12525980253E-10  0.17130000000E+03  0.17130000000E+03 0.  1.
       11    1    1    2    0    0 -0.66182731078E-03 -0.17188871622E-02  0.82546432682E-01  0.82568561561E-01  0.51109989000E-03 0.  1.
     -623    1    1    2    0    0  0.61951224161E-04  0.26805304764E-03  0.73465263214E-04  0.17130000000E+03  0.17130000000E+03 0.  1.
      622    1    1    2    0    0  0.59987608662E-03  0.14508341146E-02  0.39173800694E+01  0.39174314382E+01  0.20000000000E-01 0.  1.
</event>
<event>
 5   0  0.3603037E+08  0.9118800E+02  0.7818608E-02  0.1180000E+00
       11   -1    0    0    0    0  0.00000000000E+00  0.00000000000E+00  0.39999999673E+01  0.40000000000E+01  0.51109989000E-03 0. -1.
     -623   -1    0    0    0    0  0.00000000000E+00  0.00000000000E+00  0.12525980253E-10  0.17130000000E+03  0.17130000000E+03 0.  1.
       11    1    1    2    0    0  0.23977427457E-02 -0.35562113448E-03  0.80912615564E-02  0.84619956291E-02  0.51109989000E-03 0. -1.
     -623    1    1    2    0    0 -0.32498142937E-02  0.27803330055E-04  0.42094350178E-03  0.17130000003E+03  0.17130000000E+03 0.  1.
      622    1    1    2    0    0  0.85207154798E-03  0.32781780443E-03  0.39914877623E+01  0.39915379730E+01  0.20000000000E-01 0. -1.
</event>
<event>
 5   0  0.3603037E+08  0.9118800E+02  0.7818608E-02  0.1180000E+00
       11   -1    0    0    0    0  0.00000000000E+00  0.00000000000E+00  0.39999999673E+01  0.40000000000E+01  0.51109989000E-03 0.  1.
     -623   -1    0    0    0    0  0.00000000000E+00  0.00000000000E+00  0.12525980253E-10  0.17130000000E+03  0.17130000000E+03 0.  1.
       11    1    1    2    0    0  0.58389234644E-02  0.89408311091E-04  0.29223524483E+00  0.29229403101E+00  0.51109989000E-03 0.  1.
     -623    1    1    2    0    0 -0.11064103551E-02 -0.15470129832E-02  0.11601308915E-03  0.17130000001E+03  0.17130000000E+03 0.  1.
      622    1    1    2    0    0 -0.47325131093E-02  0.14576046721E-02  0.37076487094E+01  0.37077059584E+01  0.20000000000E-01 0.  1.
</event>
<event>
 5   0  0.3603037E+08  0.9118800E+02  0.7818608E-02  0.1180000E+00
       11   -1    0    0    0    0  0.00000000000E+00  0.00000000000E+00  0.39999999673E+01  0.40000000000E+01  0.51109989000E-03 0. -1.
     -623   -1    0    0    0    0  0.00000000000E+00  0.00000000000E+00  0.12525980253E-10  0.17130000000E+03  0.17130000000E+03 0.  1.
       11    1    1    2    0    0 -0.10363015109E-02 -0.60079200647E-02  0.11638517347E+00  0.11654586586E+00  0.51109989000E-03 0. -1.
     -623    1    1    2    0    0 -0.27312737266E-02 -0.33143306772E-02  0.22523144595E-03  0.17130000005E+03  0.17130000000E+03 0.  1.
      622    1    1    2    0    0  0.37675752375E-02  0.93222507419E-02  0.38833895624E+01  0.38834540802E+01  0.20000000000E-01 0. -1.
</event>
<event>
 5   0  0.3603037E+08  0.9118800E+02  0.7818608E-02  0.1180000E+00
       11   -1    0    0    0    0  0.00000000000E+00  0.00000000000E+00  0.39999999673E+01  0.40000000000E+01  0.51109989000E-03 0.  1.
     -623   -1    0    0    0    0  0.00000000000E+00  0.00000000000E+00  0.12525980253E-10  0.17130000000E+03  0.17130000000E+03 0. -1.
       11    1    1    2    0    0  0.31803101276E-01 -0.17578542868E-03  0.64065084554E+00  0.64143997011E+00  0.51109989000E-03 0.  1.
     -623    1    1    2    0    0 -0.88673799317E-02  0.33078255178E-04  0.92719357391E-03  0.17130000023E+03  0.17130000000E+03 0. -1.
      622    1    1    2    0    0 -0.22935721344E-01  0.14270717351E-03  0.33584219282E+01  0.33585597979E+01  0.20000000000E-01 0.  1.
</event>
<event>
 5   0  0.3603037E+08  0.9118800E+02  0.7818608E-02  0.1180000E+00
       11   -1    0    0    0    0  0.00000000000E+00  0.00000000000E+00  0.39999999673E+01  0.40000000000E+01  0.51109989000E-03 0.  1.
     -623   -1    0    0    0    0  0.00000000000E+00  0.00000000000E+00  0.12525980253E-10  0.17130000000E+03  0.17130000000E+03 0.  1.
       11    1    1    2    0    0 -0.44866551090E-03 -0.19678324312E-03  0.33514283016E+00  0.33514357796E+00  0.51109989000E-03 0.  1.
     -623    1    1    2    0    0 -0.82473977993E-04 -0.24478752954E-03  0.55353267120E-04  0.17130000000E+03  0.17130000000E+03 0.  1.
      622    1    1    2    0    0  0.53113948890E-03  0.44157077267E-03  0.36648017839E+01  0.36648564218E+01  0.20000000000E-01 0.  1.
</event>
<event>
 5   0  0.3603037E+08  0.9118800E+02  0.7818608E-02  0.1180000E+00
       11   -1    0    0    0    0  0.00000000000E+00  0.00000000000E+00  0.39999999673E+01  0.40000000000E+01  0.51109989000E-03 0. -1.
     -623   -1    0    0    0    0  0.00000000000E+00  0.00000000000E+00  0.12525980253E-10  0.17130000000E+03  0.17130000000E+03 0. -1.
       11    1    1    2    0    0 -0.30067255816E-02  0.11032109227E-02  0.80191374967E-01  0.80256933127E-01  0.51109989000E-03 0. -1.
     -623    1    1    2    0    0 -0.73303518490E-04  0.24011107468E-03  0.11799013346E-03  0.17130000000E+03  0.17130000000E+03 0. -1.
      622    1    1    2    0    0  0.30800291001E-02 -0.13433219974E-02  0.39196906023E+01  0.39197430666E+01  0.20000000000E-01 0. -1.
</event>
<event>
 5   0  0.3603037E+08  0.9118800E+02  0.7818608E-02  0.1180000E+00
       11   -1    0    0    0    0  0.00000000000E+00  0.00000000000E+00  0.39999999673E+01  0.40000000000E+01  0.51109989000E-03 0.  1.
     -623   -1    0    0    0    0  0.00000000000E+00  0.00000000000E+00  0.12525980253E-10  0.17130000000E+03  0.17130000000E+03 0.  1.
       11    1    1    2    0    0 -0.12134268749E-02 -0.25525730093E-03  0.23008059747E-01  0.23047116851E-01  0.51109989000E-03 0. -1.
     -623    1    1    2    0    0 -0.12266235813E-03  0.49307814099E-04  0.89544385794E-04  0.17130000000E+03  0.17130000000E+03 0.  1.
      622    1    1    2    0    0  0.13360892331E-02  0.20594948683E-03  0.39769023632E+01  0.39769528831E+01  0.20000000000E-01 0.  1.
</event>
<event>
 5   0  0.3603037E+08  0.9118800E+02  0.7818608E-02  0.1180000E+00
       11   -1    0    0    0    0  0.00000000000E+00  0.00000000000E+00  0.39999999673E+01  0.40000000000E+01  0.51109989000E-03 0.  1.
     -623   -1    0    0    0    0  0.00000000000E+00  0.00000000000E+00  0.12525980253E-10  0.17130000000E+03  0.17130000000E+03 0. -1.
       11    1    1    2    0    0 -0.46797186142E-02 -0.17143170015E-02  0.40817806650E+00  0.40820881157E+00  0.51109989000E-03 0.  1.
     -623    1    1    2    0    0  0.92353701832E-04  0.85980106098E-03  0.89428733036E-04  0.17130000000E+03  0.17130000000E+03 0. -1.
      622    1    1    2    0    0  0.45873649124E-02  0.85451594057E-03  0.35917324721E+01  0.35917911862E+01  0.20000000000E-01 0.  1.
</event>
<event>
 5   0  0.3603037E+08  0.9118800E+02  0.7818608E-02  0.1180000E+00
       11   -1    0    0    0    0  0.00000000000E+00  0.00000000000E+00  0.39999999673E+01  0.40000000000E+01  0.51109989000E-03 0. -1.
     -623   -1    0    0    0    0  0.00000000000E+00  0.00000000000E+00  0.12525980253E-10  0.17130000000E+03  0.17130000000E+03 0. -1.
       11    1    1    2    0    0  0.12974774890E-02  0.22828704216E-02  0.15621876843E+00  0.15624167107E+00  0.51109989000E-03 0. -1.
     -623    1    1    2    0    0  0.22271871963E-03 -0.15274088526E-02  0.75284588697E-04  0.17130000001E+03  0.17130000000E+03 0. -1.
      622    1    1    2    0    0 -0.15201962086E-02 -0.75546156897E-03  0.38437059143E+01  0.38437583220E+01  0.20000000000E-01 0. -1.
</event>
<event>
 5   0  0.3603037E+08  0.9118800E+02  0.7818608E-02  0.1180000E+00
       11   -1    0    0    0    0  0.00000000000E+00  0.00000000000E+00  0.39999999673E+01  0.40000000000E+01  0.51109989000E-03 0. -1.
     -623   -1    0    0    0    0  0.00000000000E+00  0.00000000000E+00  0.12525980253E-10  0.17130000000E+03  0.17130000000E+03 0.  1.
       11    1    1    2    0    0 -0.11986031961E-02  0.22054761745E-02  0.51487517760E-01  0.51551202517E-01  0.51109989000E-03 0. -1.
     -623    1    1    2    0    0  0.20202422751E-03 -0.41787851518E-04  0.11502401785E-03  0.17130000000E+03  0.17130000000E+03 0.  1.
      622    1    1    2    0    0  0.99657896861E-03 -0.21636883230E-02  0.39483974256E+01  0.39484487973E+01  0.20000000000E-01 0. -1.
</event>
<event>
 5   0  0.3603037E+08  0.9118800E+02  0.7818608E-02  0.1180000E+00
       11   -1    0    0    0    0  0.00000000000E+00  0.00000000000E+00  0.39999999673E+01  0.40000000000E+01  0.51109989000E-03 0.  1.
     -623   -1    0    0    0    0  0.00000000000E+00  0.00000000000E+00  0.12525980253E-10  0.17130000000E+03  0.17130000000E+03 0.  1.
       11    1    1    2    0    0  0.30468413834E-02  0.26450552484E-02  0.39686500425E+00  0.39688584300E+00  0.51109989000E-03 0.  1.
     -623    1    1    2    0    0 -0.29558448228E-03  0.18677906996E-03  0.78477718257E-04  0.17130000000E+03  0.17130000000E+03 0.  1.
      622    1    1    2    0    0 -0.27512569011E-02 -0.28318343183E-02  0.36030564854E+01  0.36031141566E+01  0.20000000000E-01 0.  1.
</event>
<event>
 5   0  0.3603037E+08  0.9118800E+02  0.7818608E-02  0.1180000E+00
       11   -1    0    0    0    0  0.00000000000E+00  0.00000000000E+00  0.39999999673E+01  0.40000000000E+01  0.51109989000E-03 0.  1.
     -623   -1    0    0    0    0  0.00000000000E+00  0.00000000000E+00  0.12525980253E-10  0.17130000000E+03  0.17130000000E+03 0. -1.
       11    1    1    2    0    0 -0.20843314819E-02 -0.26790126961E-02  0.64449607662E+00  0.64450521762E+00  0.51109989000E-03 0.  1.
     -623    1    1    2    0    0 -0.17321916242E-04 -0.10849637575E-03  0.70528705936E-04  0.17130000000E+03  0.17130000000E+03 0. -1.
      622    1    1    2    0    0  0.21016533982E-02  0.27875090719E-02  0.33554333620E+01  0.33554947823E+01  0.20000000000E-01 0.  1.
</event>
<event>
 5   0  0.3603037E+08  0.9118800E+02  0.7818608E-02  0.1180000E+00
       11   -1    0    0    0    0  0.00000000000E+00  0.00000000000E+00  0.39999999673E+01  0.40000000000E+01  0.51109989000E-03 0.  1.
     -623   -1    0    0    0    0  0.00000000000E+00  0.00000000000E+00  0.12525980253E-10  0.17130000000E+03  0.17130000000E+03 0. -1.
       11    1    1    2    0    0  0.17108222412E-02  0.17178579880E-02  0.25295424895E+00  0.25296638361E+00  0.51109989000E-03 0.  1.
     -623    1    1    2    0    0  0.16970389420E-02 -0.25371593902E-02  0.67144447724E-04  0.17130000003E+03  0.17130000000E+03 0. -1.
      622    1    1    2    0    0 -0.34078611833E-02  0.81930140219E-03  0.37469785740E+01  0.37470335892E+01  0.20000000000E-01 0.  1.
</event>
<event>
 5   0  0.3603037E+08  0.9118800E+02  0.7818608E-02  0.1180000E+00
       11   -1    0    0    0    0  0.00000000000E+00  0.00000000000E+00  0.39999999673E+01  0.40000000000E+01  0.51109989000E-03 0.  1.
     -623   -1    0    0    0    0  0.00000000000E+00  0.00000000000E+00  0.12525980253E-10  0.17130000000E+03  0.17130000000E+03 0.  1.
       11    1    1    2    0    0  0.12640496289E-03 -0.32400602790E-04  0.10154770496E+00  0.10154907500E+00  0.51109989000E-03 0.  1.
     -623    1    1    2    0    0 -0.63952472524E-03 -0.13802169185E-03  0.52678909693E-04  0.17130000000E+03  0.17130000000E+03 0.  1.
      622    1    1    2    0    0  0.51311976235E-03  0.17042229464E-03  0.38983995835E+01  0.38984509237E+01  0.20000000000E-01 0.  1.
</event>
<event>
 5   0  0.3603037E+08  0.9118800E+02  0.7818608E-02  0.1180000E+00
       11   -1    0    0    0    0  0.00000000000E+00  0.00000000000E+00  0.39999999673E+01  0.40000000000E+01  0.51109989000E-03 0.  1.
     -623   -1    0    0    0    0  0.00000000000E+00  0.00000000000E+00  0.12525980253E-10  0.17130000000E+03  0.17130000000E+03 0.  1.
       11    1    1    2    0    0 -0.18293080931E-02 -0.19631520664E-02  0.63181395962E-01  0.63240417071E-01  0.51109989000E-03 0.  1.
     -623    1    1    2    0    0  0.10935672520E-02  0.64938613732E-03  0.11008472632E-03  0.17130000000E+03  0.17130000000E+03 0.  1.
      622    1    1    2    0    0  0.73574084111E-03  0.13137659290E-02  0.39367084867E+01  0.39367595782E+01  0.20000000000E-01 0.  1.
</event>
<event>
 5   0  0.3603037E+08  0.9118800E+02  0.7818608E-02  0.1180000E+00
       11   -1    0    0    0    0  0.00000000000E+00  0.00000000000E+00  0.39999999673E+01  0.40000000000E+01  0.51109989000E-03 0.  1.
     -623   -1    0    0    0    0  0.00000000000E+00  0.00000000000E+00  0.12525980253E-10  0.17130000000E+03  0.17130000000E+03 0. -1.
       11    1    1    2    0    0  0.12538501662E-02 -0.22958653384E-04  0.90043923369E-02  0.91056559343E-02  0.51109989000E-03 0.  1.
     -623    1    1    2    0    0 -0.18813197826E-03  0.14354922358E-03  0.15148969991E-03  0.17130000000E+03  0.17130000000E+03 0. -1.
      622    1    1    2    0    0 -0.10657181880E-02 -0.12059057020E-03  0.39908440853E+01  0.39908943438E+01  0.20000000000E-01 0.  1.
</event>
<event>
 5   0  0.3603037E+08  0.9118800E+02  0.7818608E-02  0.1180000E+00
       11   -1    0    0    0    0  0.00000000000E+00  0.00000000000E+00  0.39999999673E+01  0.40000000000E+01  0.51109989000E-03 0.  1.
     -623   -1    0    0    0    0  0.00000000000E+00  0.00000000000E+00  0.12525980253E-10  0.17130000000E+03  0.17130000000E+03 0. -1.
       11    1    1    2    0    0 -0.52914607966E-02  0.43061874025E-02  0.20082515032E+01  0.20082631561E+01  0.51109989000E-03 0.  1.
     -623    1    1    2    0    0  0.10149833401E-02 -0.24517465845E-02  0.11751287319E-03  0.17130000002E+03  0.17130000000E+03 0. -1.
      622    1    1    2    0    0  0.42764774565E-02 -0.18544408180E-02  0.19916309513E+01  0.19917368233E+01  0.20000000000E-01 0.  0.
</event>
<event>
 5   0  0.3603037E+08  0.9118800E+02  0.7818608E-02  0.1180000E+00
       11   -1    0    0    0    0  0.00000000000E+00  0.00000000000E+00  0.39999999673E+01  0.40000000000E+01  0.51109989000E-03 0.  1.
     -623   -1    0    0    0    0  0.00000000000E+00  0.00000000000E+00  0.12525980253E-10  0.17130000000E+03  0.17130000000E+03 0.  1.
       11    1    1    2    0    0 -0.88488383761E-02 -0.84675546296E-02  0.96325182473E+00  0.96332981916E+00  0.51109989000E-03 0.  1.
     -623    1    1    2    0    0  0.65663700028E-02 -0.92549379713E-02  0.19677515003E-03  0.17130000038E+03  0.17130000000E+03 0.  1.
      622    1    1    2    0    0  0.22824683732E-02  0.17722492601E-01  0.30365513675E+01  0.30366698049E+01  0.20000000000E-01 0.  1.
</event>
<event>
 5   0  0.3603037E+08  0.9118800E+02  0.7818608E-02  0.1180000E+00
       11   -1    0    0    0    0  0.00000000000E+00  0.00000000000E+00  0.39999999673E+01  0.40000000000E+01  0.51109989000E-03 0.  1.
     -623   -1    0    0    0    0  0.00000000000E+00  0.00000000000E+00  0.12525980253E-10  0.17130000000E+03  0.17130000000E+03 0.  1.
       11    1    1    2    0    0 -0.25698763664E-02  0.52227163266E-02  0.10991244723E+01  0.10991400038E+01  0.51109989000E-03 0.  1.
     -623    1    1    2    0    0  0.60134229515E-04  0.28047069380E-04  0.90282697247E-04  0.17130000000E+03  0.17130000000E+03 0.  1.
      622    1    1    2    0    0  0.25097421369E-02 -0.52507633960E-02  0.29007852123E+01  0.29008599962E+01  0.20000000000E-01 0.  1.
</event>
<event>
 5   0  0.3603037E+08  0.9118800E+02  0.7818608E-02  0.1180000E+00
       11   -1    0    0    0    0  0.00000000000E+00  0.00000000000E+00  0.39999999673E+01  0.40000000000E+01  0.51109989000E-03 0.  1.
     -623   -1    0    0    0    0  0.00000000000E+00  0.00000000000E+00  0.12525980253E-10  0.17130000000E+03  0.17130000000E+03 0. -1.
       11    1    1    2    0    0 -0.54509978283E-02 -0.48204220489E-02  0.14694502843E+01  0.14694683899E+01  0.51109989000E-03 0.  1.
     -623    1    1    2    0    0  0.31781573318E-03  0.50877227936E-03  0.10598994221E-03  0.17130000000E+03  0.17130000000E+03 0. -1.
      622    1    1    2    0    0  0.51331820951E-02  0.43116497696E-02  0.25304436931E+01  0.25305316090E+01  0.20000000000E-01 0.  0.
</event>
<event>
 5   0  0.3603037E+08  0.9118800E+02  0.7818608E-02  0.1180000E+00
       11   -1    0    0    0    0  0.00000000000E+00  0.00000000000E+00  0.39999999673E+01  0.40000000000E+01  0.51109989000E-03 0. -1.
     -623   -1    0    0    0    0  0.00000000000E+00  0.00000000000E+00  0.12525980253E-10  0.17130000000E+03  0.17130000000E+03 0.  1.
       11    1    1    2    0    0 -0.86806263378E-03 -0.17223433111E-02  0.23857730856E-01  0.23941022177E-01  0.51109989000E-03 0.  1.
     -623    1    1    2    0    0 -0.36895713097E-04  0.17261253730E-02  0.13367180510E-03  0.17130000001E+03  0.17130000000E+03 0.  1.
      622    1    1    2    0    0  0.90495834688E-03 -0.37820618988E-05  0.39760085647E+01  0.39760589691E+01  0.20000000000E-01 0. -1.
</event>
<event>
 5   0  0.3603037E+08  0.9118800E+02  0.7818608E-02  0.1180000E+00
       11   -1    0    0    0    0  0.00000000000E+00  0.00000000000E+00  0.39999999673E+01  0.40000000000E+01  0.51109989000E-03 0. -1.
     -623   -1    0    0    0    0  0.00000000000E+00  0.00000000000E+00  0.12525980253E-10  0.17130000000E+03  0.17130000000E+03 0.  1.
       11    1    1    2    0    0 -0.62154019203E-03 -0.12797189091E-02  0.18357857578E+00  0.18358479975E+00  0.51109989000E-03 0. -1.
     -623    1    1    2    0    0  0.12841162583E-02  0.36947948341E-02  0.59463234269E-04  0.17130000004E+03  0.17130000000E+03 0.  1.
      622    1    1    2    0    0 -0.66257606624E-03 -0.24150759251E-02  0.38163619283E+01  0.38164151556E+01  0.20000000000E-01 0. -1.
</event>
<event>
 5   0  0.3603037E+08  0.9118800E+02  0.7818608E-02  0.1180000E+00
       11   -1    0    0    0    0  0.00000000000E+00  0.00000000000E+00  0.39999999673E+01  0.40000000000E+01  0.51109989000E-03 0. -1.
     -623   -1    0    0    0    0  0.00000000000E+00  0.00000000000E+00  0.12525980253E-10  0.17130000000E+03  0.17130000000E+03 0.  1.
       11    1    1    2    0    0 -0.33155044658E-01  0.25772589019E-02  0.93678977379E+00  0.93737998739E+00  0.51109989000E-03 0. -1.
     -623    1    1    2    0    0  0.16835249199E-01 -0.11175066472E-01  0.71223037385E-03  0.17130000119E+03  0.17130000000E+03 0.  1.
      622    1    1    2    0    0  0.16319795459E-01  0.85978075705E-02  0.30624979632E+01  0.30626188193E+01  0.20000000000E-01 0. -1.
</event>
<event>
 5   0  0.3603037E+08  0.9118800E+02  0.7818608E-02  0.1180000E+00
       11   -1    0    0    0    0  0.00000000000E+00  0.00000000000E+00  0.39999999673E+01  0.40000000000E+01  0.51109989000E-03 0. -1.
     -623   -1    0    0    0    0  0.00000000000E+00  0.00000000000E+00  0.12525980253E-10  0.17130000000E+03  0.17130000000E+03 0. -1.
       11    1    1    2    0    0  0.84258941187E-03  0.64847031132E-04  0.15521376481E-01  0.15552765405E-01  0.51109989000E-03 0. -1.
     -623    1    1    2    0    0 -0.17944140530E-02  0.70098879690E-03  0.81749910790E-04  0.17130000001E+03  0.17130000000E+03 0. -1.
      622    1    1    2    0    0  0.95182464113E-03 -0.76583582803E-03  0.39843968410E+01  0.39844472237E+01  0.20000000000E-01 0. -1.
</event>
<event>
 5   0  0.3603037E+08  0.9118800E+02  0.7818608E-02  0.1180000E+00
       11   -1    0    0    0    0  0.00000000000E+00  0.00000000000E+00  0.39999999673E+01  0.40000000000E+01  0.51109989000E-03 0.  1.
     -623   -1    0    0    0    0  0.00000000000E+00  0.00000000000E+00  0.12525980253E-10  0.17130000000E+03  0.17130000000E+03 0.  1.
       11    1    1    2    0    0  0.45786794943E-02 -0.11803663638E-01  0.13057230541E+00  0.13118566592E+00  0.51109989000E-03 0.  1.
     -623    1    1    2    0    0 -0.28038009245E-02  0.15275888523E-01  0.66769431912E-03  0.17130000071E+03  0.17130000000E+03 0.  1.
      622    1    1    2    0    0 -0.17748785698E-02 -0.34722248853E-02  0.38687599676E+01  0.38688136287E+01  0.20000000000E-01 0.  1.
</event>
<event>
 5   0  0.3603037E+08  0.9118800E+02  0.7818608E-02  0.1180000E+00
       11   -1    0    0    0    0  0.00000000000E+00  0.00000000000E+00  0.39999999673E+01  0.40000000000E+01  0.51109989000E-03 0. -1.
     -623   -1    0    0    0    0  0.00000000000E+00  0.00000000000E+00  0.12525980253E-10  0.17130000000E+03  0.17130000000E+03 0. -1.
       11    1    1    2    0    0 -0.14033237649E-01 -0.41529877639E-02  0.16161311688E+01  0.16161975111E+01  0.51109989000E-03 0. -1.
     -623    1    1    2    0    0  0.27969578113E-02 -0.24442045078E-02  0.18586317929E-03  0.17130000004E+03  0.17130000000E+03 0. -1.
      622    1    1    2    0    0  0.11236279837E-01  0.65971922718E-02  0.23836829354E+01  0.23838024485E+01  0.20000000000E-01 0. -1.
</event>
<event>
 5   0  0.3603037E+08  0.9118800E+02  0.7818608E-02  0.1180000E+00
       11   -1    0    0    0    0  0.00000000000E+00  0.00000000000E+00  0.39999999673E+01  0.40000000000E+01  0.51109989000E-03 0. -1.
     -623   -1    0    0    0    0  0.00000000000E+00  0.00000000000E+00  0.12525980253E-10  0.17130000000E+03  0.17130000000E+03 0.  1.
       11    1    1    2    0    0 -0.20074928213E-02 -0.63121927292E-03  0.21817279098E-01  0.21924492110E-01  0.51109989000E-03 0. -1.
     -623    1    1    2    0    0  0.22283249856E-03 -0.82587960904E-03  0.15812564987E-03  0.17130000000E+03  0.17130000000E+03 0.  1.
      622    1    1    2    0    0  0.17846603228E-02  0.14570988820E-02  0.39780245626E+01  0.39780755057E+01  0.20000000000E-01 0. -1.
</event>
<event>
 5   0  0.3603037E+08  0.9118800E+02  0.7818608E-02  0.1180000E+00
       11   -1    0    0    0    0  0.00000000000E+00  0.00000000000E+00  0.39999999673E+01  0.40000000000E+01  0.51109989000E-03 0.  1.
     -623   -1    0    0    0    0  0.00000000000E+00  0.00000000000E+00  0.12525980253E-10  0.17130000000E+03  0.17130000000E+03 0. -1.
       11    1    1    2    0    0  0.21853026023E-01 -0.92262859070E-02  0.43967182036E+00  0.44031153737E+00  0.51109989000E-03 0.  1.
     -623    1    1    2    0    0 -0.64786199807E-02  0.10438072549E-01  0.72971981005E-03  0.17130000044E+03  0.17130000000E+03 0. -1.
      622    1    1    2    0    0 -0.15374406042E-01 -0.12117866423E-02  0.35595984272E+01  0.35596880205E+01  0.20000000000E-01 0.  1.
</event>
<event>
 5   0  0.3603037E+08  0.9118800E+02  0.7818608E-02  0.1180000E+00
       11   -1    0    0    0    0  0.00000000000E+00  0.00000000000E+00  0.39999999673E+01  0.40000000000E+01  0.51109989000E-03 0.  1.
     -623   -1    0    0    0    0  0.00000000000E+00  0.00000000000E+00  0.12525980253E-10  0.17130000000E+03  0.17130000000E+03 0.  1.
       11    1    1    2    0    0 -0.48888859959E-02  0.31430788293E-02  0.32788485167E+00  0.32793675812E+00  0.51109989000E-03 0.  1.
     -623    1    1    2    0    0 -0.80468591857E-04 -0.91705047054E-04  0.11096993913E-03  0.17130000000E+03  0.17130000000E+03 0.  1.
      622    1    1    2    0    0  0.49693545877E-02 -0.30513737822E-02  0.36720041458E+01  0.36720632418E+01  0.20000000000E-01 0.  1.
</event>
<event>
 5   0  0.3603037E+08  0.9118800E+02  0.7818608E-02  0.1180000E+00
       11   -1    0    0    0    0  0.00000000000E+00  0.00000000000E+00  0.39999999673E+01  0.40000000000E+01  0.51109989000E-03 0. -1.
     -623   -1    0    0    0    0  0.00000000000E+00  0.00000000000E+00  0.12525980253E-10  0.17130000000E+03  0.17130000000E+03 0.  1.
       11    1    1    2    0    0 -0.70748976099E-03 -0.64947189093E-03  0.61918122267E+00  0.61918217843E+00  0.51109989000E-03 0. -1.
     -623    1    1    2    0    0 -0.70640326804E-04  0.44202740622E-04  0.60224683029E-04  0.17130000000E+03  0.17130000000E+03 0.  1.
      622    1    1    2    0    0  0.77813008779E-03  0.60526915031E-03  0.33807585200E+01  0.33808178215E+01  0.20000000000E-01 0. -1.
</event>
<event>
 5   0  0.3603037E+08  0.9118800E+02  0.7818608E-02  0.1180000E+00
       11   -1    0    0    0    0  0.00000000000E+00  0.00000000000E+00  0.39999999673E+01  0.40000000000E+01  0.51109989000E-03 0.  1.
     -623   -1    0    0    0    0  0.00000000000E+00  0.00000000000E+00  0.12525980253E-10  0.17130000000E+03  0.17130000000E+03 0. -1.
       11    1    1    2    0    0  0.26056826088E-02 -0.13815498487E-03  0.27214763119E+00  0.27216061995E+00  0.51109989000E-03 0.  1.
     -623    1    1    2    0    0  0.32627232315E-03  0.34644625145E-03  0.67766394565E-04  0.17130000000E+03  0.17130000000E+03 0. -1.
      622    1    1    2    0    0 -0.29319549319E-02 -0.20829126659E-03  0.37277845698E+01  0.37278393794E+01  0.20000000000E-01 0.  1.
</event>
<event>
 5   0  0.3603037E+08  0.9118800E+02  0.7818608E-02  0.1180000E+00
       11   -1    0    0    0    0  0.00000000000E+00  0.00000000000E+00  0.39999999673E+01  0.40000000000E+01  0.51109989000E-03 0. -1.
     -623   -1    0    0    0    0  0.00000000000E+00  0.00000000000E+00  0.12525980253E-10  0.17130000000E+03  0.17130000000E+03 0. -1.
       11    1    1    2    0    0  0.22115603724E-02 -0.12630289654E-02  0.55702559702E-01  0.55763093714E-01  0.51109989000E-03 0. -1.
     -623    1    1    2    0    0  0.57733841249E-05 -0.21260838670E-03  0.11210806741E-03  0.17130000000E+03  0.17130000000E+03 0. -1.
      622    1    1    2    0    0 -0.22173337566E-02  0.14756373521E-02  0.39441852996E+01  0.39442369061E+01  0.20000000000E-01 0. -1.
</event>
<event>
 5   0  0.3603037E+08  0.9118800E+02  0.7818608E-02  0.1180000E+00
       11   -1    0    0    0    0  0.00000000000E+00  0.00000000000E+00  0.39999999673E+01  0.40000000000E+01  0.51109989000E-03 0.  1.
     -623   -1    0    0    0    0  0.00000000000E+00  0.00000000000E+00  0.12525980253E-10  0.17130000000E+03  0.17130000000E+03 0.  1.
       11    1    1    2    0    0 -0.12319172739E-02 -0.85478583848E-03  0.90871872480E-02  0.92242328686E-02  0.51109989000E-03 0.  1.
     -623    1    1    2    0    0  0.84348638539E-03 -0.71960359684E-03  0.18746201706E-03  0.17130000000E+03  0.17130000000E+03 0.  1.
      622    1    1    2    0    0  0.38843088854E-03  0.15743894353E-02  0.39907253181E+01  0.39907757634E+01  0.20000000000E-01 0.  1.
</event>
<event>
 5   0  0.3603037E+08  0.9118800E+02  0.7818608E-02  0.1180000E+00
       11   -1    0    0    0    0  0.00000000000E+00  0.00000000000E+00  0.39999999673E+01  0.40000000000E+01  0.51109989000E-03 0. -1.
     -623   -1    0    0    0    0  0.00000000000E+00  0.00000000000E+00  0.12525980253E-10  0.17130000000E+03  0.17130000000E+03 0. -1.
       11    1    1    2    0    0 -0.12431070423E-02  0.64766511931E-04  0.65545067994E-02  0.66912099501E-02  0.51109989000E-03 0. -1.
     -623    1    1    2    0    0 -0.42604089052E-04  0.23170155334E-03  0.18697285475E-03  0.17130000000E+03  0.17130000000E+03 0. -1.
      622    1    1    2    0    0  0.12857111314E-02 -0.29646806527E-03  0.39932584877E+01  0.39933087898E+01  0.20000000000E-01 0. -1.
</event>
<event>
 5   0  0.3603037E+08  0.9118800E+02  0.7818608E-02  0.1180000E+00
       11   -1    0    0    0    0  0.00000000000E+00  0.00000000000E+00  0.39999999673E+01  0.40000000000E+01  0.51109989000E-03 0. -1.
     -623   -1    0    0    0    0  0.00000000000E+00  0.00000000000E+00  0.12525980253E-10  0.17130000000E+03  0.17130000000E+03 0. -1.
       11    1    1    2    0    0  0.88094804504E-02  0.16788920817E-02  0.55551232219E-02  0.10561545373E-01  0.51109989000E-03 0. -1.
     -623    1    1    2    0    0 -0.67210745328E-02 -0.13861807955E-03  0.50575727428E-02  0.17130000021E+03  0.17130000000E+03 0. -1.
      622    1    1    2    0    0 -0.20884059176E-02 -0.15402740022E-02  0.39893872714E+01  0.39894382481E+01  0.20000000000E-01 0. -1.
</event>
<event>
 5   0  0.3603037E+08  0.9118800E+02  0.7818608E-02  0.1180000E+00
       11   -1    0    0    0    0  0.00000000000E+00  0.00000000000E+00  0.39999999673E+01  0.40000000000E+01  0.51109989000E-03 0.  1.
     -623   -1    0    0    0    0  0.00000000000E+00  0.00000000000E+00  0.12525980253E-10  0.17130000000E+03  0.17130000000E+03 0. -1.
       11    1    1    2    0    0 -0.43849067247E-02 -0.44112174397E-02  0.25901984940E+00  0.25909502090E+00  0.51109989000E-03 0.  1.
     -623    1    1    2    0    0 -0.24916856656E-03  0.65842322248E-03  0.13335641199E-03  0.17130000000E+03  0.17130000000E+03 0. -1.
      622    1    1    2    0    0  0.46340752913E-02  0.37527942172E-02  0.37408467615E+01  0.37409049776E+01  0.20000000000E-01 0.  1.
</event>
<event>
 5   0  0.3603037E+08  0.9118800E+02  0.7818608E-02  0.1180000E+00
       11   -1    0    0    0    0  0.00000000000E+00  0.00000000000E+00  0.39999999673E+01  0.40000000000E+01  0.51109989000E-03 0. -1.
     -623   -1    0    0    0    0  0.00000000000E+00  0.00000000000E+00  0.12525980253E-10  0.17130000000E+03  0.17130000000E+03 0.  1.
       11    1    1    2    0    0 -0.21463598373E-01 -0.16980501670E-01  0.36015242175E+01  0.36016282393E+01  0.51109989000E-03 0. -1.
     -623    1    1    2    0    0  0.82773687417E-02  0.22206116870E-01  0.86090078256E-03  0.17130000164E+03  0.17130000000E+03 0.  1.
      622    1    1    2    0    0  0.13186229631E-01 -0.52256152000E-02  0.39761484903E+00  0.39837011920E+00  0.20000000000E-01 0.  1.
</event>
<event>
 5   0  0.3603037E+08  0.9118800E+02  0.7818608E-02  0.1180000E+00
       11   -1    0    0    0    0  0.00000000000E+00  0.00000000000E+00  0.39999999673E+01  0.40000000000E+01  0.51109989000E-03 0.  1.
     -623   -1    0    0    0    0  0.00000000000E+00  0.00000000000E+00  0.12525980253E-10  0.17130000000E+03  0.17130000000E+03 0. -1.
       11    1    1    2    0    0  0.27535993920E-02 -0.91616280414E-02  0.27534714958E+00  0.27551375962E+00  0.51109989000E-03 0.  1.
     -623    1    1    2    0    0 -0.49358117362E-03 -0.70529695551E-03  0.23403445885E-03  0.17130000000E+03  0.17130000000E+03 0. -1.
      622    1    1    2    0    0 -0.22600182184E-02  0.98669249969E-02  0.37244187833E+01  0.37244862381E+01  0.20000000000E-01 0.  1.
</event>
<event>
 5   0  0.3603037E+08  0.9118800E+02  0.7818608E-02  0.1180000E+00
       11   -1    0    0    0    0  0.00000000000E+00  0.00000000000E+00  0.39999999673E+01  0.40000000000E+01  0.51109989000E-03 0. -1.
     -623   -1    0    0    0    0  0.00000000000E+00  0.00000000000E+00  0.12525980253E-10  0.17130000000E+03  0.17130000000E+03 0. -1.
       11    1    1    2    0    0 -0.80079865978E-02  0.15535156299E-02  0.49936650818E+00  0.49943339093E+00  0.51109989000E-03 0. -1.
     -623    1    1    2    0    0  0.74132930288E-02  0.29196296823E-02  0.12707805772E-03  0.17130000019E+03  0.17130000000E+03 0. -1.
      622    1    1    2    0    0  0.59469356901E-03 -0.44731453121E-02  0.35005063811E+01  0.35005664237E+01  0.20000000000E-01 0. -1.
</event>
<event>
 5   0  0.3603037E+08  0.9118800E+02  0.7818608E-02  0.1180000E+00
       11   -1    0    0    0    0  0.00000000000E+00  0.00000000000E+00  0.39999999673E+01  0.40000000000E+01  0.51109989000E-03 0. -1.
     -623   -1    0    0    0    0  0.00000000000E+00  0.00000000000E+00  0.12525980253E-10  0.17130000000E+03  0.17130000000E+03 0.  1.
       11    1    1    2    0    0  0.60722209296E-02 -0.19987261497E-02  0.83347115456E-02  0.10516435294E-01  0.51109989000E-03 0. -1.
     -623    1    1    2    0    0 -0.41812333639E-02  0.10277742064E-01  0.22412358755E-02  0.17130000037E+03  0.17130000000E+03 0.  1.
      622    1    1    2    0    0 -0.18909875657E-02 -0.82790159140E-02  0.39894240199E+01  0.39894831907E+01  0.20000000000E-01 0. -1.
</event>
<event>
 5   0  0.3603037E+08  0.9118800E+02  0.7818608E-02  0.1180000E+00
       11   -1    0    0    0    0  0.00000000000E+00  0.00000000000E+00  0.39999999673E+01  0.40000000000E+01  0.51109989000E-03 0. -1.
     -623   -1    0    0    0    0  0.00000000000E+00  0.00000000000E+00  0.12525980253E-10  0.17130000000E+03  0.17130000000E+03 0. -1.
       11    1    1    2    0    0  0.89487680066E-02  0.24769374599E-01  0.88279787789E+00  0.88319078165E+00  0.51109989000E-03 0. -1.
     -623    1    1    2    0    0  0.67106752655E-03 -0.34445982813E-03  0.56759539332E-03  0.17130000000E+03  0.17130000000E+03 0. -1.
      622    1    1    2    0    0 -0.96198355332E-02 -0.24424914771E-01  0.31166344941E+01  0.31168092158E+01  0.20000000000E-01 0. -1.
</event>
<event>
 5   0  0.3603037E+08  0.9118800E+02  0.7818608E-02  0.1180000E+00
       11   -1    0    0    0    0  0.00000000000E+00  0.00000000000E+00  0.39999999673E+01  0.40000000000E+01  0.51109989000E-03 0.  1.
     -623   -1    0    0    0    0  0.00000000000E+00  0.00000000000E+00  0.12525980253E-10  0.17130000000E+03  0.17130000000E+03 0. -1.
       11    1    1    2    0    0  0.17707146647E-01  0.18228979696E-01  0.17527339103E+01  0.17529182127E+01  0.51109989000E-03 0.  1.
     -623    1    1    2    0    0 -0.37001320058E-02  0.82924895354E-02  0.47370136535E-03  0.17130000024E+03  0.17130000000E+03 0. -1.
      622    1    1    2    0    0 -0.14007014641E-01 -0.26521469232E-01  0.22467923557E+01  0.22470815460E+01  0.20000000000E-01 0.  0.
</event>
<event>
 5   0  0.3603037E+08  0.9118800E+02  0.7818608E-02  0.1180000E+00
       11   -1    0    0    0    0  0.00000000000E+00  0.00000000000E+00  0.39999999673E+01  0.40000000000E+01  0.51109989000E-03 0.  1.
     -623   -1    0    0    0    0  0.00000000000E+00  0.00000000000E+00  0.12525980253E-10  0.17130000000E+03  0.17130000000E+03 0. -1.
       11    1    1    2    0    0 -0.10124250463E-01  0.19148981378E-02  0.14138854490E+01  0.14139230854E+01  0.51109989000E-03 0.  1.
     -623    1    1    2    0    0  0.45308143402E-03  0.30931864781E-03  0.13398385973E-03  0.17130000000E+03  0.17130000000E+03 0. -1.
      622    1    1    2    0    0  0.96711690293E-02 -0.22242167856E-02  0.25859805345E+01  0.25860769137E+01  0.20000000000E-01 0.  1.
</event>
<event>
 5   0  0.3603037E+08  0.9118800E+02  0.7818608E-02  0.1180000E+00
       11   -1    0    0    0    0  0.00000000000E+00  0.00000000000E+00  0.39999999673E+01  0.40000000000E+01  0.51109989000E-03 0. -1.
     -623   -1    0    0    0    0  0.00000000000E+00  0.00000000000E+00  0.12525980253E-10  0.17130000000E+03  0.17130000000E+03 0. -1.
       11    1    1    2    0    0 -0.12517740960E-01 -0.15344017152E-01  0.10223846570E+00  0.10413979926E+00  0.51109989000E-03 0. -1.
     -623    1    1    2    0    0  0.23724567061E-02  0.63416980782E-02  0.19763941858E-02  0.17130000015E+03  0.17130000000E+03 0. -1.
      622    1    1    2    0    0  0.10145284254E-01  0.90023190742E-02  0.38957851075E+01  0.38958600555E+01  0.20000000000E-01 0. -1.
</event>
<event>
 5   0  0.3603037E+08  0.9118800E+02  0.7818608E-02  0.1180000E+00
       11   -1    0    0    0    0  0.00000000000E+00  0.00000000000E+00  0.39999999673E+01  0.40000000000E+01  0.51109989000E-03 0.  1.
     -623   -1    0    0    0    0  0.00000000000E+00  0.00000000000E+00  0.12525980253E-10  0.17130000000E+03  0.17130000000E+03 0.  1.
       11    1    1    2    0    0 -0.30318262582E-02 -0.21963682659E-03  0.64542537969E+00  0.64543274025E+00  0.51109989000E-03 0.  1.
     -623    1    1    2    0    0  0.25022886171E-02  0.82130766664E-02  0.76729415262E-04  0.17130000022E+03  0.17130000000E+03 0.  1.
      622    1    1    2    0    0  0.52953764109E-03 -0.79934398398E-02  0.33544978583E+01  0.33545670446E+01  0.20000000000E-01 0.  1.
</event>
<event>
 5   0  0.3603037E+08  0.9118800E+02  0.7818608E-02  0.1180000E+00
       11   -1    0    0    0    0  0.00000000000E+00  0.00000000000E+00  0.39999999673E+01  0.40000000000E+01  0.51109989000E-03 0. -1.
     -623   -1    0    0    0    0  0.00000000000E+00  0.00000000000E+00  0.12525980253E-10  0.17130000000E+03  0.17130000000E+03 0. -1.
       11    1    1    2    0    0 -0.59331667729E-02  0.94106256466E-02  0.11245271895E+00  0.11300282104E+00  0.51109989000E-03 0. -1.
     -623    1    1    2    0    0  0.39252107622E-02 -0.19821177746E-02  0.60919803751E-03  0.17130000006E+03  0.17130000000E+03 0. -1.
      622    1    1    2    0    0  0.20079560106E-02 -0.74285078720E-02  0.38869380504E+01  0.38869971214E+01  0.20000000000E-01 0. -1.
</event>
<event>
 5   0  0.3603037E+08  0.9118800E+02  0.7818608E-02  0.1180000E+00
       11   -1    0    0    0    0  0.00000000000E+00  0.00000000000E+00  0.39999999673E+01  0.40000000000E+01  0.51109989000E-03 0.  1.
     -623   -1    0    0    0    0  0.00000000000E+00  0.00000000000E+00  0.12525980253E-10  0.17130000000E+03  0.17130000000E+03 0. -1.
       11    1    1    2    0    0  0.10111050912E-01  0.12878560631E-01  0.75856611552E-01  0.77605266652E-01  0.51109989000E-03 0.  1.
     -623    1    1    2    0    0 -0.16828525563E-01  0.36273099132E-01  0.21180219766E-02  0.17130000468E+03  0.17130000000E+03 0. -1.
      622    1    1    2    0    0  0.67174746507E-02 -0.49151659763E-01  0.39220253338E+01  0.39223900532E+01  0.20000000000E-01 0.  1.
</event>
<event>
 5   0  0.3603037E+08  0.9118800E+02  0.7818608E-02  0.1180000E+00
       11   -1    0    0    0    0  0.00000000000E+00  0.00000000000E+00  0.39999999673E+01  0.40000000000E+01  0.51109989000E-03 0.  1.
     -623   -1    0    0    0    0  0.00000000000E+00  0.00000000000E+00  0.12525980253E-10  0.17130000000E+03  0.17130000000E+03 0. -1.
       11    1    1    2    0    0  0.36891246303E-02  0.33876672688E-02  0.13264356047E+01  0.13264451593E+01  0.51109989000E-03 0.  1.
     -623    1    1    2    0    0  0.26282465522E-02 -0.23216663193E-02  0.92042109386E-04  0.17130000004E+03  0.17130000000E+03 0. -1.
      622    1    1    2    0    0 -0.63173711825E-02 -0.10660009495E-02  0.26734723205E+01  0.26735548048E+01  0.20000000000E-01 0. -1.
</event>
<event>
 5   0  0.3603037E+08  0.9118800E+02  0.7818608E-02  0.1180000E+00
       11   -1    0    0    0    0  0.00000000000E+00  0.00000000000E+00  0.39999999673E+01  0.40000000000E+01  0.51109989000E-03 0. -1.
     -623   -1    0    0    0    0  0.00000000000E+00  0.00000000000E+00  0.12525980253E-10  0.17130000000E+03  0.17130000000E+03 0.  1.
       11    1    1    2    0    0  0.10121992478E-02 -0.94927846305E-02  0.50017203607E+00  0.50026339502E+00  0.51109989000E-03 0. -1.
     -623    1    1    2    0    0 -0.45355849101E-03  0.38627726480E-03  0.16036766130E-03  0.17130000000E+03  0.17130000000E+03 0.  1.
      622    1    1    2    0    0 -0.55864075683E-03  0.91065073657E-02  0.34996675636E+01  0.34997366039E+01  0.20000000000E-01 0. -1.
</event>
<event>
 5   0  0.3603037E+08  0.9118800E+02  0.7818608E-02  0.1180000E+00
       11   -1    0    0    0    0  0.00000000000E+00  0.00000000000E+00  0.39999999673E+01  0.40000000000E+01  0.51109989000E-03 0.  1.
     -623   -1    0    0    0    0  0.00000000000E+00  0.00000000000E+00  0.12525980253E-10  0.17130000000E+03  0.17130000000E+03 0. -1.
       11    1    1    2    0    0  0.12440805955E-02 -0.54654087461E-03  0.10622224203E+00  0.10623216259E+00  0.51109989000E-03 0.  1.
     -623    1    1    2    0    0 -0.12468990657E-03 -0.55712435529E-03  0.61570671045E-04  0.17130000000E+03  0.17130000000E+03 0. -1.
      622    1    1    2    0    0 -0.11193906890E-02  0.11036652299E-02  0.38937161547E+01  0.38937678364E+01  0.20000000000E-01 0.  1.
</event>
<event>
 5   0  0.3603037E+08  0.9118800E+02  0.7818608E-02  0.1180000E+00
       11   -1    0    0    0    0  0.00000000000E+00  0.00000000000E+00  0.39999999673E+01  0.40000000000E+01  0.51109989000E-03 0.  1.
     -623   -1    0    0    0    0  0.00000000000E+00  0.00000000000E+00  0.12525980253E-10  0.17130000000E+03  0.17130000000E+03 0. -1.
       11    1    1    2    0    0 -0.15068377905E-02  0.18694765354E-03  0.21580572129E-02  0.26877392230E-02  0.51109989000E-03 0.  1.
     -623    1    1    2    0    0 -0.14180924244E-03 -0.72166151384E-03  0.58006161505E-03  0.17130000000E+03  0.17130000000E+03 0. -1.
      622    1    1    2    0    0  0.16486470329E-02  0.53471386030E-03  0.39972618485E+01  0.39973122582E+01  0.20000000000E-01 0.  1.
</event>
<event>
 5   0  0.3603037E+08  0.9118800E+02  0.7818608E-02  0.1180000E+00
       11   -1    0    0    0    0  0.00000000000E+00  0.00000000000E+00  0.39999999673E+01  0.40000000000E+01  0.51109989000E-03 0. -1.
     -623   -1    0    0    0    0  0.00000000000E+00  0.00000000000E+00  0.12525980253E-10  0.17130000000E+03  0.17130000000E+03 0. -1.
       11    1    1    2    0    0 -0.19472155645E-03 -0.31164282721E-03  0.38088030468E-01  0.38093232010E-01  0.51109989000E-03 0. -1.
     -623    1    1    2    0    0 -0.83192249344E-04 -0.12040140327E-03  0.55683344062E-04  0.17130000000E+03  0.17130000000E+03 0. -1.
      622    1    1    2    0    0  0.27791380579E-03  0.43204423049E-03  0.39618562535E+01  0.39619067679E+01  0.20000000000E-01 0. -1.
</event>
<event>
 5   0  0.3603037E+08  0.9118800E+02  0.7818608E-02  0.1180000E+00
       11   -1    0    0    0    0  0.00000000000E+00  0.00000000000E+00  0.39999999673E+01  0.40000000000E+01  0.51109989000E-03 0. -1.
     -623   -1    0    0    0    0  0.00000000000E+00  0.00000000000E+00  0.12525980253E-10  0.17130000000E+03  0.17130000000E+03 0. -1.
       11    1    1    2    0    0  0.76339144989E-02 -0.65505746768E-02  0.29389717809E+01  0.29389890399E+01  0.51109989000E-03 0. -1.
     -623    1    1    2    0    0  0.37910874279E-02  0.32894306396E-03  0.28555611784E-03  0.17130000004E+03  0.17130000000E+03 0. -1.
      622    1    1    2    0    0 -0.11425001927E-01  0.62216316128E-02  0.10607426303E+01  0.10610109176E+01  0.20000000000E-01 0.  0.
</event>
<event>
 5   0  0.3603037E+08  0.9118800E+02  0.7818608E-02  0.1180000E+00
       11   -1    0    0    0    0  0.00000000000E+00  0.00000000000E+00  0.39999999673E+01  0.40000000000E+01  0.51109989000E-03 0.  1.
     -623   -1    0    0    0    0  0.00000000000E+00  0.00000000000E+00  0.12525980253E-10  0.17130000000E+03  0.17130000000E+03 0.  1.
       11    1    1    2    0    0 -0.23480553763E-03 -0.17352336355E-02  0.10443018520E-01  0.10601133312E-01  0.51109989000E-03 0.  1.
     -623    1    1    2    0    0  0.13191746785E-02 -0.26932531791E-03  0.20887174947E-03  0.17130000001E+03  0.17130000000E+03 0.  1.
      622    1    1    2    0    0 -0.10843691409E-02  0.20045589534E-02  0.39893480771E+01  0.39893988613E+01  0.20000000000E-01 0.  1.
</event>
<event>
 5   0  0.3603037E+08  0.9118800E+02  0.7818608E-02  0.1180000E+00
       11   -1    0    0    0    0  0.00000000000E+00  0.00000000000E+00  0.39999999673E+01  0.40000000000E+01  0.51109989000E-03 0. -1.
     -623   -1    0    0    0    0  0.00000000000E+00  0.00000000000E+00  0.12525980253E-10  0.17130000000E+03  0.17130000000E+03 0.  1.
       11    1    1    2    0    0  0.24801473128E-02 -0.21793769842E-02  0.21959359631E-01  0.22212057783E-01  0.51109989000E-03 0. -1.
     -623    1    1    2    0    0  0.98702339810E-03  0.35999705067E-02  0.30475071521E-03  0.17130000004E+03  0.17130000000E+03 0.  1.
      622    1    1    2    0    0 -0.34671707109E-02 -0.14205935224E-02  0.39777358570E+01  0.39777879013E+01  0.20000000000E-01 0. -1.
</event>
<event>
 5   0  0.3603037E+08  0.9118800E+02  0.7818608E-02  0.1180000E+00
       11   -1    0    0    0    0  0.00000000000E+00  0.00000000000E+00  0.39999999673E+01  0.40000000000E+01  0.51109989000E-03 0.  1.
     -623   -1    0    0    0    0  0.00000000000E+00  0.00000000000E+00  0.12525980253E-10  0.17130000000E+03  0.17130000000E+03 0. -1.
       11    1    1    2    0    0  0.80110196350E-02 -0.28386422634E-02  0.75685922591E+00  0.75690711675E+00  0.51109989000E-03 0.  1.
     -623    1    1    2    0    0 -0.15113679951E-01  0.81573373649E-03  0.11860585007E-03  0.17130000067E+03  0.17130000000E+03 0. -1.
      622    1    1    2    0    0  0.71026603158E-02  0.20229085269E-02  0.32430221356E+01  0.32430922145E+01  0.20000000000E-01 0.  1.
</event>
<event>
 5   0  0.3603037E+08  0.9118800E+02  0.7818608E-02  0.1180000E+00
       11   -1    0    0    0    0  0.00000000000E+00  0.00000000000E+00  0.39999999673E+01  0.40000000000E+01  0.51109989000E-03 0.  1.
     -623   -1    0    0    0    0  0.00000000000E+00  0.00000000000E+00  0.12525980253E-10  0.17130000000E+03  0.17130000000E+03 0. -1.
       11    1    1    2    0    0 -0.70203498998E-02  0.39059876859E-02  0.11576998619E+01  0.11577278495E+01  0.51109989000E-03 0.  1.
     -623    1    1    2    0    0 -0.18598052765E-03 -0.14100833963E-03  0.10995170356E-03  0.17130000000E+03  0.17130000000E+03 0. -1.
      622    1    1    2    0    0  0.72063304275E-02 -0.37649793463E-02  0.28421901538E+01  0.28422721503E+01  0.20000000000E-01 0.  1.
</event>
<event>
 5   0  0.3603037E+08  0.9118800E+02  0.7818608E-02  0.1180000E+00
       11   -1    0    0    0    0  0.00000000000E+00  0.00000000000E+00  0.39999999673E+01  0.40000000000E+01  0.51109989000E-03 0. -1.
     -623   -1    0    0    0    0  0.00000000000E+00  0.00000000000E+00  0.12525980253E-10  0.17130000000E+03  0.17130000000E+03 0. -1.
       11    1    1    2    0    0  0.49067605249E-02  0.68603902915E-02  0.34850909010E+00  0.34861151495E+00  0.51109989000E-03 0. -1.
     -623    1    1    2    0    0  0.44795593161E-04  0.51242169944E-03  0.16796820086E-03  0.17130000000E+03  0.17130000000E+03 0. -1.
      622    1    1    2    0    0 -0.49515561181E-02 -0.73728119910E-02  0.36513229091E+01  0.36513884842E+01  0.20000000000E-01 0. -1.
</event>
<event>
 5   0  0.3603037E+08  0.9118800E+02  0.7818608E-02  0.1180000E+00
       11   -1    0    0    0    0  0.00000000000E+00  0.00000000000E+00  0.39999999673E+01  0.40000000000E+01  0.51109989000E-03 0. -1.
     -623   -1    0    0    0    0  0.00000000000E+00  0.00000000000E+00  0.12525980253E-10  0.17130000000E+03  0.17130000000E+03 0. -1.
       11    1    1    2    0    0 -0.60729743156E-04  0.50962684928E-03  0.93887109828E-02  0.94166088175E-02  0.51109989000E-03 0. -1.
     -623    1    1    2    0    0  0.46314556172E-03  0.39857457332E-03  0.78108240770E-04  0.17130000000E+03  0.17130000000E+03 0. -1.
      622    1    1    2    0    0 -0.40241581857E-03 -0.90820142261E-03  0.39905331481E+01  0.39905833901E+01  0.20000000000E-01 0. -1.
</event>
<event>
 5   0  0.3603037E+08  0.9118800E+02  0.7818608E-02  0.1180000E+00
       11   -1    0    0    0    0  0.00000000000E+00  0.00000000000E+00  0.39999999673E+01  0.40000000000E+01  0.51109989000E-03 0. -1.
     -623   -1    0    0    0    0  0.00000000000E+00  0.00000000000E+00  0.12525980253E-10  0.17130000000E+03  0.17130000000E+03 0.  1.
       11    1    1    2    0    0  0.12059211582E-01 -0.20594408844E-01  0.16071311201E+00  0.16247621319E+00  0.51109989000E-03 0. -1.
     -623    1    1    2    0    0 -0.69530645691E-02  0.18742002425E-01  0.18202061388E-02  0.17130000118E+03  0.17130000000E+03 0.  1.
      622    1    1    2    0    0 -0.51061470126E-02  0.18524064194E-02  0.38374666492E+01  0.38375226107E+01  0.20000000000E-01 0. -1.
</event>
<event>
 5   0  0.3603037E+08  0.9118800E+02  0.7818608E-02  0.1180000E+00
       11   -1    0    0    0    0  0.00000000000E+00  0.00000000000E+00  0.39999999673E+01  0.40000000000E+01  0.51109989000E-03 0.  1.
     -623   -1    0    0    0    0  0.00000000000E+00  0.00000000000E+00  0.12525980253E-10  0.17130000000E+03  0.17130000000E+03 0. -1.
       11    1    1    2    0    0 -0.87849597104E-02  0.36682260799E-02  0.20106186743E+01  0.20106412773E+01  0.51109989000E-03 0.  1.
     -623    1    1    2    0    0  0.10599402543E-03 -0.10927658007E-03  0.14522451006E-03  0.17130000000E+03  0.17130000000E+03 0. -1.
      622    1    1    2    0    0  0.86789656849E-02 -0.35589494998E-02  0.19892360686E+01  0.19893587226E+01  0.20000000000E-01 0.  0.
</event>
<event>
 5   0  0.3603037E+08  0.9118800E+02  0.7818608E-02  0.1180000E+00
       11   -1    0    0    0    0  0.00000000000E+00  0.00000000000E+00  0.39999999673E+01  0.40000000000E+01  0.51109989000E-03 0.  1.
     -623   -1    0    0    0    0  0.00000000000E+00  0.00000000000E+00  0.12525980253E-10  0.17130000000E+03  0.17130000000E+03 0. -1.
       11    1    1    2    0    0  0.60048248420E-02 -0.66887738775E-02  0.20925323611E+01  0.20925517296E+01  0.51109989000E-03 0.  1.
     -623    1    1    2    0    0 -0.74792930551E-03  0.88604084160E-03  0.14026614042E-03  0.17130000000E+03  0.17130000000E+03 0. -1.
      622    1    1    2    0    0 -0.52568955364E-02  0.58027330359E-02  0.19073273401E+01  0.19074482664E+01  0.20000000000E-01 0.  0.
</event>
<event>
 5   0  0.3603037E+08  0.9118800E+02  0.7818608E-02  0.1180000E+00
       11   -1    0    0    0    0  0.00000000000E+00  0.00000000000E+00  0.39999999673E+01  0.40000000000E+01  0.51109989000E-03 0.  1.
     -623   -1    0    0    0    0  0.00000000000E+00  0.00000000000E+00  0.12525980253E-10  0.17130000000E+03  0.17130000000E+03 0. -1.
       11    1    1    2    0    0  0.15009273887E-02  0.78017314037E-04  0.11444967708E-01  0.11554539226E-01  0.51109989000E-03 0.  1.
     -623    1    1    2    0    0 -0.13500281739E-02 -0.18472755251E-02  0.16009467623E-03  0.17130000002E+03  0.17130000000E+03 0. -1.
      622    1    1    2    0    0 -0.15089921480E-03  0.17692582110E-02  0.39883949050E+01  0.39884454454E+01  0.20000000000E-01 0.  1.
</event>
<event>
 5   0  0.3603037E+08  0.9118800E+02  0.7818608E-02  0.1180000E+00
       11   -1    0    0    0    0  0.00000000000E+00  0.00000000000E+00  0.39999999673E+01  0.40000000000E+01  0.51109989000E-03 0. -1.
     -623   -1    0    0    0    0  0.00000000000E+00  0.00000000000E+00  0.12525980253E-10  0.17130000000E+03  0.17130000000E+03 0. -1.
       11    1    1    2    0    0 -0.57691287300E-02  0.19172963446E-01  0.18279113395E+01  0.18280210644E+01  0.51109989000E-03 0. -1.
     -623    1    1    2    0    0 -0.37838380985E-03  0.14017622292E-03  0.29634854270E-03  0.17130000000E+03  0.17130000000E+03 0. -1.
      622    1    1    2    0    0  0.61475125399E-02 -0.19313139669E-01  0.21717922793E+01  0.21719789349E+01  0.20000000000E-01 0.  0.
</event>
<event>
 5   0  0.3603037E+08  0.9118800E+02  0.7818608E-02  0.1180000E+00
       11   -1    0    0    0    0  0.00000000000E+00  0.00000000000E+00  0.39999999673E+01  0.40000000000E+01  0.51109989000E-03 0. -1.
     -623   -1    0    0    0    0  0.00000000000E+00  0.00000000000E+00  0.12525980253E-10  0.17130000000E+03  0.17130000000E+03 0. -1.
       11    1    1    2    0    0 -0.59901474955E-02  0.19703775203E-02  0.58912602521E+00  0.58915999444E+00  0.51109989000E-03 0. -1.
     -623    1    1    2    0    0 -0.46435149268E-04 -0.19181909749E-03  0.98379478972E-04  0.17130000000E+03  0.17130000000E+03 0. -1.
      622    1    1    2    0    0  0.60365826447E-02 -0.17785584228E-02  0.34107755627E+01  0.34108400054E+01  0.20000000000E-01 0. -1.
</event>
<event>
 5   0  0.3603037E+08  0.9118800E+02  0.7818608E-02  0.1180000E+00
       11   -1    0    0    0    0  0.00000000000E+00  0.00000000000E+00  0.39999999673E+01  0.40000000000E+01  0.51109989000E-03 0. -1.
     -623   -1    0    0    0    0  0.00000000000E+00  0.00000000000E+00  0.12525980253E-10  0.17130000000E+03  0.17130000000E+03 0.  1.
       11    1    1    2    0    0 -0.30581478746E-02 -0.12144584048E-02  0.35378847043E-01  0.35535210954E-01  0.51109989000E-03 0. -1.
     -623    1    1    2    0    0 -0.35203582764E-03  0.39751245008E-03  0.20833160518E-03  0.17130000000E+03  0.17130000000E+03 0.  1.
      622    1    1    2    0    0  0.34101837023E-02  0.81694595476E-03  0.39644127887E+01  0.39644647881E+01  0.20000000000E-01 0. -1.
</event>
<event>
 5   0  0.3603037E+08  0.9118800E+02  0.7818608E-02  0.1180000E+00
       11   -1    0    0    0    0  0.00000000000E+00  0.00000000000E+00  0.39999999673E+01  0.40000000000E+01  0.51109989000E-03 0. -1.
     -623   -1    0    0    0    0  0.00000000000E+00  0.00000000000E+00  0.12525980253E-10  0.17130000000E+03  0.17130000000E+03 0. -1.
       11    1    1    2    0    0 -0.17603654711E-03 -0.33100563057E-02  0.17869556875E+00  0.17872704042E+00  0.51109989000E-03 0. -1.
     -623    1    1    2    0    0  0.26901022598E-03 -0.17697393255E-03  0.85370449503E-04  0.17130000000E+03  0.17130000000E+03 0. -1.
      622    1    1    2    0    0 -0.92973678874E-04  0.34870302383E-02  0.38212190282E+01  0.38212729593E+01  0.20000000000E-01 0. -1.
</event>
<event>
 5   0  0.3603037E+08  0.9118800E+02  0.7818608E-02  0.1180000E+00
       11   -1    0    0    0    0  0.00000000000E+00  0.00000000000E+00  0.39999999673E+01  0.40000000000E+01  0.51109989000E-03 0.  1.
     -623   -1    0    0    0    0  0.00000000000E+00  0.00000000000E+00  0.12525980253E-10  0.17130000000E+03  0.17130000000E+03 0. -1.
       11    1    1    2    0    0 -0.27304675195E-02 -0.10987835391E-02  0.93031946623E-02  0.97710506857E-02  0.51109989000E-03 0.  1.
     -623    1    1    2    0    0  0.16752178739E-02  0.14898966214E-02  0.51812029462E-03  0.17130000002E+03  0.17130000000E+03 0. -1.
      622    1    1    2    0    0  0.10552496456E-02 -0.39111308231E-03  0.39901786524E+01  0.39902289339E+01  0.20000000000E-01 0.  1.
</event>
<event>
 5   0  0.3603037E+08  0.9118800E+02  0.7818608E-02  0.1180000E+00
       11   -1    0    0    0    0  0.00000000000E+00  0.00000000000E+00  0.39999999673E+01  0.40000000000E+01  0.51109989000E-03 0.  1.
     -623   -1    0    0    0    0  0.00000000000E+00  0.00000000000E+00  0.12525980253E-10  0.17130000000E+03  0.17130000000E+03 0. -1.
       11    1    1    2    0    0  0.32065520974E-03 -0.88063182829E-02  0.54562954339E+00  0.54570093815E+00  0.51109989000E-03 0.  1.
     -623    1    1    2    0    0  0.28440372114E-03 -0.54623933208E-03  0.14197695293E-03  0.17130000000E+03  0.17130000000E+03 0. -1.
      622    1    1    2    0    0 -0.60505893087E-03  0.93525576150E-02  0.34542284470E+01  0.34542990607E+01  0.20000000000E-01 0.  1.
</event>
<event>
 5   0  0.3603037E+08  0.9118800E+02  0.7818608E-02  0.1180000E+00
       11   -1    0    0    0    0  0.00000000000E+00  0.00000000000E+00  0.39999999673E+01  0.40000000000E+01  0.51109989000E-03 0.  1.
     -623   -1    0    0    0    0  0.00000000000E+00  0.00000000000E+00  0.12525980253E-10  0.17130000000E+03  0.17130000000E+03 0.  1.
       11    1    1    2    0    0 -0.21984179457E-02 -0.15722020983E-02  0.48314473739E-02  0.55595832024E-02  0.51109989000E-03 0.  1.
     -623    1    1    2    0    0  0.41911752889E-02  0.55098977397E-02  0.78075274682E-03  0.17130000014E+03  0.17130000000E+03 0.  1.
      622    1    1    2    0    0 -0.19927573432E-02 -0.39376956414E-02  0.39943877672E+01  0.39944402751E+01  0.20000000000E-01 0.  1.
</event>
<event>
 5   0  0.3603037E+08  0.9118800E+02  0.7818608E-02  0.1180000E+00
       11   -1    0    0    0    0  0.00000000000E+00  0.00000000000E+00  0.39999999673E+01  0.40000000000E+01  0.51109989000E-03 0.  1.
     -623   -1    0    0    0    0  0.00000000000E+00  0.00000000000E+00  0.12525980253E-10  0.17130000000E+03  0.17130000000E+03 0.  1.
       11    1    1    2    0    0  0.46530069027E-03 -0.10793560148E-02  0.52597775836E-01  0.52613389530E-01  0.51109989000E-03 0.  1.
     -623    1    1    2    0    0 -0.13633556166E-03 -0.68173273327E-03  0.66655794893E-04  0.17130000000E+03  0.17130000000E+03 0.  1.
      622    1    1    2    0    0 -0.32896512861E-03  0.17610887480E-02  0.39473355357E+01  0.39473866090E+01  0.20000000000E-01 0.  1.
</event>
<event>
 5   0  0.3603037E+08  0.9118800E+02  0.7818608E-02  0.1180000E+00
       11   -1    0    0    0    0  0.00000000000E+00  0.00000000000E+00  0.39999999673E+01  0.40000000000E+01  0.51109989000E-03 0.  1.
     -623   -1    0    0    0    0  0.00000000000E+00  0.00000000000E+00  0.12525980253E-10  0.17130000000E+03  0.17130000000E+03 0. -1.
       11    1    1    2    0    0 -0.55513783623E-02 -0.22247264603E-02  0.58038409090E-01  0.58347967932E-01  0.51109989000E-03 0.  1.
     -623    1    1    2    0    0  0.63618258816E-02 -0.86914950928E-03  0.36168495299E-03  0.17130000012E+03  0.17130000000E+03 0. -1.
      622    1    1    2    0    0 -0.81044751928E-03  0.30938759696E-02  0.39415998733E+01  0.39416519113E+01  0.20000000000E-01 0.  1.
</event>
<event>
 5   0  0.3603037E+08  0.9118800E+02  0.7818608E-02  0.1180000E+00
       11   -1    0    0    0    0  0.00000000000E+00  0.00000000000E+00  0.39999999673E+01  0.40000000000E+01  0.51109989000E-03 0. -1.
     -623   -1    0    0    0    0  0.00000000000E+00  0.00000000000E+00  0.12525980253E-10  0.17130000000E+03  0.17130000000E+03 0. -1.
       11    1    1    2    0    0  0.37407568116E-02  0.31088592690E-02  0.13286103864E+00  0.13295102511E+00  0.51109989000E-03 0. -1.
     -623    1    1    2    0    0 -0.15779933384E-01  0.33797132667E-03  0.16267751838E-03  0.17130000073E+03  0.17130000000E+03 0. -1.
      622    1    1    2    0    0  0.12039176572E-01 -0.34468305957E-02  0.38669762512E+01  0.38670482477E+01  0.20000000000E-01 0. -1.
</event>
<event>
 5   0  0.3603037E+08  0.9118800E+02  0.7818608E-02  0.1180000E+00
       11   -1    0    0    0    0  0.00000000000E+00  0.00000000000E+00  0.39999999673E+01  0.40000000000E+01  0.51109989000E-03 0.  1.
     -623   -1    0    0    0    0  0.00000000000E+00  0.00000000000E+00  0.12525980253E-10  0.17130000000E+03  0.17130000000E+03 0.  1.
       11    1    1    2    0    0  0.18955384411E-02 -0.22643967144E-02  0.80949678951E-02  0.86319340042E-02  0.51109989000E-03 0.  1.
     -623    1    1    2    0    0 -0.91919343375E-03  0.18273794807E-02  0.58719847627E-03  0.17130000001E+03  0.17130000000E+03 0.  1.
      622    1    1    2    0    0 -0.97634500730E-03  0.43701723371E-03  0.39913178010E+01  0.39913680528E+01  0.20000000000E-01 0.  1.
</event>
<event>
 5   0  0.3603037E+08  0.9118800E+02  0.7818608E-02  0.1180000E+00
       11   -1    0    0    0    0  0.00000000000E+00  0.00000000000E+00  0.39999999673E+01  0.40000000000E+01  0.51109989000E-03 0.  1.
     -623   -1    0    0    0    0  0.00000000000E+00  0.00000000000E+00  0.12525980253E-10  0.17130000000E+03  0.17130000000E+03 0. -1.
       11    1    1    2    0    0  0.83887820853E-02  0.14707910206E-02  0.22016135735E+00  0.22032661977E+00  0.51109989000E-03 0.  1.
     -623    1    1    2    0    0  0.42257690279E-03 -0.81616988358E-03  0.22847498277E-03  0.17130000000E+03  0.17130000000E+03 0. -1.
      622    1    1    2    0    0 -0.88113589881E-02 -0.65462113704E-03  0.37796101350E+01  0.37796733776E+01  0.20000000000E-01 0.  1.
</event>
<event>
 5   0  0.3603037E+08  0.9118800E+02  0.7818608E-02  0.1180000E+00
       11   -1    0    0    0    0  0.00000000000E+00  0.00000000000E+00  0.39999999673E+01  0.40000000000E+01  0.51109989000E-03 0.  1.
     -623   -1    0    0    0    0  0.00000000000E+00  0.00000000000E+00  0.12525980253E-10  0.17130000000E+03  0.17130000000E+03 0. -1.
       11    1    1    2    0    0  0.16462768724E-02 -0.25799647545E-02  0.13152170442E-01  0.13513225160E-01  0.51109989000E-03 0.  1.
     -623    1    1    2    0    0  0.10076244263E-02 -0.20474856414E-03  0.41305148726E-03  0.17130000000E+03  0.17130000000E+03 0. -1.
      622    1    1    2    0    0 -0.26539012987E-02  0.27847133186E-02  0.39864347454E+01  0.39864867713E+01  0.20000000000E-01 0.  1.
</event>
<event>
 5   0  0.3603037E+08  0.9118800E+02  0.7818608E-02  0.1180000E+00
       11   -1    0    0    0    0  0.00000000000E+00  0.00000000000E+00  0.39999999673E+01  0.40000000000E+01  0.51109989000E-03 0. -1.
     -623   -1    0    0    0    0  0.00000000000E+00  0.00000000000E+00  0.12525980253E-10  0.17130000000E+03  0.17130000000E+03 0.  1.
       11    1    1    2    0    0 -0.75645097552E-03  0.29195179592E-02  0.29506375170E-01  0.29664510784E-01  0.51109989000E-03 0. -1.
     -623    1    1    2    0    0  0.16063914291E-02 -0.14954000904E-02  0.20883744485E-03  0.17130000001E+03  0.17130000000E+03 0.  1.
      622    1    1    2    0    0 -0.84994045357E-03 -0.14241178688E-02  0.39702847547E+01  0.39703354750E+01  0.20000000000E-01 0. -1.
</event>
<event>
 5   0  0.3603037E+08  0.9118800E+02  0.7818608E-02  0.1180000E+00
       11   -1    0    0    0    0  0.00000000000E+00  0.00000000000E+00  0.39999999673E+01  0.40000000000E+01  0.51109989000E-03 0. -1.
     -623   -1    0    0    0    0  0.00000000000E+00  0.00000000000E+00  0.12525980253E-10  0.17130000000E+03  0.17130000000E+03 0. -1.
       11    1    1    2    0    0 -0.10388464113E-01 -0.58960511571E-03  0.28584641670E+01  0.28584831508E+01  0.51109989000E-03 0. -1.
     -623    1    1    2    0    0 -0.53945462772E-03  0.76610833806E-03  0.24650297373E-03  0.17130000000E+03  0.17130000000E+03 0. -1.
      622    1    1    2    0    0  0.10927918740E-01 -0.17650322235E-03  0.11412892973E+01  0.11415168465E+01  0.20000000000E-01 0. -1.
</event>
<event>
 5   0  0.3603037E+08  0.9118800E+02  0.7818608E-02  0.1180000E+00
       11   -1    0    0    0    0  0.00000000000E+00  0.00000000000E+00  0.39999999673E+01  0.40000000000E+01  0.51109989000E-03 0. -1.
     -623   -1    0    0    0    0  0.00000000000E+00  0.00000000000E+00  0.12525980253E-10  0.17130000000E+03  0.17130000000E+03 0. -1.
       11    1    1    2    0    0 -0.80522998247E-02  0.43654758978E-02  0.27797722157E+01  0.27797873533E+01  0.51109989000E-03 0. -1.
     -623    1    1    2    0    0 -0.21947367160E-02 -0.87125103547E-02  0.23003468903E-03  0.17130000024E+03  0.17130000000E+03 0. -1.
      622    1    1    2    0    0  0.10247036541E-01  0.43470344568E-02  0.12199977169E+01  0.12202124109E+01  0.20000000000E-01 0.  1.
</event>
<event>
 5   0  0.3603037E+08  0.9118800E+02  0.7818608E-02  0.1180000E+00
       11   -1    0    0    0    0  0.00000000000E+00  0.00000000000E+00  0.39999999673E+01  0.40000000000E+01  0.51109989000E-03 0. -1.
     -623   -1    0    0    0    0  0.00000000000E+00  0.00000000000E+00  0.12525980253E-10  0.17130000000E+03  0.17130000000E+03 0. -1.
       11    1    1    2    0    0  0.49255857245E-03 -0.15564454393E-02  0.21308869810E+00  0.21309556452E+00  0.51109989000E-03 0. -1.
     -623    1    1    2    0    0 -0.35127584162E-03 -0.38227702336E-03  0.60147438402E-04  0.17130000000E+03  0.17130000000E+03 0. -1.
      622    1    1    2    0    0 -0.14128273083E-03  0.19387224627E-02  0.37868511218E+01  0.37869044347E+01  0.20000000000E-01 0. -1.
</event>
<event>
 5   0  0.3603037E+08  0.9118800E+02  0.7818608E-02  0.1180000E+00
       11   -1    0    0    0    0  0.00000000000E+00  0.00000000000E+00  0.39999999673E+01  0.40000000000E+01  0.51109989000E-03 0. -1.
     -623   -1    0    0    0    0  0.00000000000E+00  0.00000000000E+00  0.12525980253E-10  0.17130000000E+03  0.17130000000E+03 0.  1.
       11    1    1    2    0    0  0.11668476263E-02  0.50658418436E-03  0.48593149716E-01  0.48612483800E-01  0.51109989000E-03 0. -1.
     -623    1    1    2    0    0 -0.17959827632E-03 -0.78136189477E-04  0.70063588131E-04  0.17130000000E+03  0.17130000000E+03 0.  1.
      622    1    1    2    0    0 -0.98724935001E-03 -0.42844799488E-03  0.39513367541E+01  0.39513875161E+01  0.20000000000E-01 0.  0.
</event>
<event>
 5   0  0.3603037E+08  0.9118800E+02  0.7818608E-02  0.1180000E+00
       11   -1    0    0    0    0  0.00000000000E+00  0.00000000000E+00  0.39999999673E+01  0.40000000000E+01  0.51109989000E-03 0. -1.
     -623   -1    0    0    0    0  0.00000000000E+00  0.00000000000E+00  0.12525980253E-10  0.17130000000E+03  0.17130000000E+03 0. -1.
       11    1    1    2    0    0  0.46030920461E-02  0.41674614698E-02  0.16967117329E+01  0.16967231719E+01  0.51109989000E-03 0. -1.
     -623    1    1    2    0    0 -0.92005067291E-03 -0.82257578871E-02  0.10496100978E-03  0.17130000020E+03  0.17130000000E+03 0. -1.
      622    1    1    2    0    0 -0.36830413732E-02  0.40582964172E-02  0.23031832734E+01  0.23032766281E+01  0.20000000000E-01 0. -1.
</event>
<event>
 5   0  0.3603037E+08  0.9118800E+02  0.7818608E-02  0.1180000E+00
       11   -1    0    0    0    0  0.00000000000E+00  0.00000000000E+00  0.39999999673E+01  0.40000000000E+01  0.51109989000E-03 0. -1.
     -623   -1    0    0    0    0  0.00000000000E+00  0.00000000000E+00  0.12525980253E-10  0.17130000000E+03  0.17130000000E+03 0. -1.
       11    1    1    2    0    0  0.84513283150E-03  0.48729591554E-02  0.27963958640E-01  0.28402538334E-01  0.51109989000E-03 0. -1.
     -623    1    1    2    0    0 -0.15886215405E-02 -0.34999593633E-02  0.48925568582E-03  0.17130000004E+03  0.17130000000E+03 0. -1.
      622    1    1    2    0    0  0.74348870899E-03 -0.13729997921E-02  0.39715467530E+01  0.39715974178E+01  0.20000000000E-01 0. -1.
</event>
<event>
 5   0  0.3603037E+08  0.9118800E+02  0.7818608E-02  0.1180000E+00
       11   -1    0    0    0    0  0.00000000000E+00  0.00000000000E+00  0.39999999673E+01  0.40000000000E+01  0.51109989000E-03 0. -1.
     -623   -1    0    0    0    0  0.00000000000E+00  0.00000000000E+00  0.12525980253E-10  0.17130000000E+03  0.17130000000E+03 0.  1.
       11    1    1    2    0    0  0.15472228039E-01  0.18818953569E-01  0.27967522086E+01  0.27968583662E+01  0.51109989000E-03 0. -1.
     -623    1    1    2    0    0 -0.16370032103E-01 -0.14053968868E-01  0.28349913004E-03  0.17130000136E+03  0.17130000000E+03 0.  1.
      622    1    1    2    0    0  0.89780406461E-03 -0.47649847004E-02  0.12029642596E+01  0.12031402749E+01  0.20000000000E-01 0.  0.
</event>
<event>
 5   0  0.3603037E+08  0.9118800E+02  0.7818608E-02  0.1180000E+00
       11   -1    0    0    0    0  0.00000000000E+00  0.00000000000E+00  0.39999999673E+01  0.40000000000E+01  0.51109989000E-03 0.  1.
     -623   -1    0    0    0    0  0.00000000000E+00  0.00000000000E+00  0.12525980253E-10  0.17130000000E+03  0.17130000000E+03 0. -1.
       11    1    1    2    0    0 -0.57696495280E-06  0.47125885399E-02  0.21573552555E+00  0.21578759626E+00  0.51109989000E-03 0.  1.
     -623    1    1    2    0    0  0.59680010377E-03 -0.20917926716E-02  0.10585794770E-03  0.17130000001E+03  0.17130000000E+03 0. -1.
      622    1    1    2    0    0 -0.59622313882E-03 -0.26207958683E-02  0.37841585839E+01  0.37842123899E+01  0.20000000000E-01 0.  0.
</event>
<event>
 5   0  0.3603037E+08  0.9118800E+02  0.7818608E-02  0.1180000E+00
       11   -1    0    0    0    0  0.00000000000E+00  0.00000000000E+00  0.39999999673E+01  0.40000000000E+01  0.51109989000E-03 0.  1.
     -623   -1    0    0    0    0  0.00000000000E+00  0.00000000000E+00  0.12525980253E-10  0.17130000000E+03  0.17130000000E+03 0. -1.
       11    1    1    2    0    0  0.45443475872E-03 -0.49800674894E-03  0.21419662258E-01  0.21436363364E-01  0.51109989000E-03 0.  1.
     -623    1    1    2    0    0  0.12319536272E-02  0.10963985491E-03  0.67319023487E-04  0.17130000000E+03  0.17130000000E+03 0. -1.
      622    1    1    2    0    0 -0.16863883860E-02  0.38836689403E-03  0.39785129861E+01  0.39785636322E+01  0.20000000000E-01 0.  1.
</event>
<event>
 5   0  0.3603037E+08  0.9118800E+02  0.7818608E-02  0.1180000E+00
       11   -1    0    0    0    0  0.00000000000E+00  0.00000000000E+00  0.39999999673E+01  0.40000000000E+01  0.51109989000E-03 0. -1.
     -623   -1    0    0    0    0  0.00000000000E+00  0.00000000000E+00  0.12525980253E-10  0.17130000000E+03  0.17130000000E+03 0.  1.
       11    1    1    2    0    0  0.49041298561E-02  0.56419672974E-02  0.38810689569E+00  0.38817921890E+00  0.51109989000E-03 0. -1.
     -623    1    1    2    0    0 -0.20272652902E-02 -0.37678664112E-02  0.12935018822E-03  0.17130000005E+03  0.17130000000E+03 0.  1.
      622    1    1    2    0    0 -0.28768645659E-02 -0.18741008862E-02  0.36117637215E+01  0.36118207276E+01  0.20000000000E-01 0.  0.
</event>
<event>
 5   0  0.3603037E+08  0.9118800E+02  0.7818608E-02  0.1180000E+00
       11   -1    0    0    0    0  0.00000000000E+00  0.00000000000E+00  0.39999999673E+01  0.40000000000E+01  0.51109989000E-03 0. -1.
     -623   -1    0    0    0    0  0.00000000000E+00  0.00000000000E+00  0.12525980253E-10  0.17130000000E+03  0.17130000000E+03 0. -1.
       11    1    1    2    0    0  0.12675028057E-01  0.19522616482E-01  0.45727141591E+00  0.45786373291E+00  0.51109989000E-03 0. -1.
     -623    1    1    2    0    0 -0.22686386571E-02 -0.13655044608E-01  0.66945511383E-03  0.17130000056E+03  0.17130000000E+03 0. -1.
      622    1    1    2    0    0 -0.10406389400E-01 -0.58675718734E-02  0.35420590963E+01  0.35421357065E+01  0.20000000000E-01 0. -1.
</event>
<event>
 5   0  0.3603037E+08  0.9118800E+02  0.7818608E-02  0.1180000E+00
       11   -1    0    0    0    0  0.00000000000E+00  0.00000000000E+00  0.39999999673E+01  0.40000000000E+01  0.51109989000E-03 0. -1.
     -623   -1    0    0    0    0  0.00000000000E+00  0.00000000000E+00  0.12525980253E-10  0.17130000000E+03  0.17130000000E+03 0.  1.
       11    1    1    2    0    0 -0.20824903820E-02 -0.95168948082E-04  0.10604530282E+01  0.10604552004E+01  0.51109989000E-03 0. -1.
     -623    1    1    2    0    0  0.42133339246E-04 -0.11138661793E-03  0.70893539123E-04  0.17130000000E+03  0.17130000000E+03 0.  1.
      622    1    1    2    0    0  0.20403570428E-02  0.20655556601E-03  0.29394760456E+01  0.29395447996E+01  0.20000000000E-01 0. -1.
</event>
<event>
 5   0  0.3603037E+08  0.9118800E+02  0.7818608E-02  0.1180000E+00
       11   -1    0    0    0    0  0.00000000000E+00  0.00000000000E+00  0.39999999673E+01  0.40000000000E+01  0.51109989000E-03 0.  1.
     -623   -1    0    0    0    0  0.00000000000E+00  0.00000000000E+00  0.12525980253E-10  0.17130000000E+03  0.17130000000E+03 0. -1.
       11    1    1    2    0    0 -0.30540516784E-02 -0.33725194254E-02  0.33091080448E+00  0.33094247667E+00  0.51109989000E-03 0.  1.
     -623    1    1    2    0    0  0.13589962173E-03 -0.78574696395E-04  0.88933504693E-04  0.17130000000E+03  0.17130000000E+03 0. -1.
      622    1    1    2    0    0  0.29181520566E-02  0.34510941218E-02  0.36690002294E+01  0.36690575232E+01  0.20000000000E-01 0.  1.
</event>
<event>
 5   0  0.3603037E+08  0.9118800E+02  0.7818608E-02  0.1180000E+00
       11   -1    0    0    0    0  0.00000000000E+00  0.00000000000E+00  0.39999999673E+01  0.40000000000E+01  0.51109989000E-03 0.  1.
     -623   -1    0    0    0    0  0.00000000000E+00  0.00000000000E+00  0.12525980253E-10  0.17130000000E+03  0.17130000000E+03 0. -1.
       11    1    1    2    0    0 -0.13036387720E-02 -0.30126790349E-02  0.48360146071E-01  0.48474123604E-01  0.51109989000E-03 0.  1.
     -623    1    1    2    0    0 -0.29294413451E-03  0.23043249300E-02  0.16496044351E-03  0.17130000002E+03  0.17130000000E+03 0. -1.
      622    1    1    2    0    0  0.15965829066E-02  0.70835410495E-03  0.39514748608E+01  0.39515258606E+01  0.20000000000E-01 0.  1.
</event>
<event>
 5   0  0.3603037E+08  0.9118800E+02  0.7818608E-02  0.1180000E+00
       11   -1    0    0    0    0  0.00000000000E+00  0.00000000000E+00  0.39999999673E+01  0.40000000000E+01  0.51109989000E-03 0.  1.
     -623   -1    0    0    0    0  0.00000000000E+00  0.00000000000E+00  0.12525980253E-10  0.17130000000E+03  0.17130000000E+03 0.  1.
       11    1    1    2    0    0  0.31374060814E-02  0.25696694039E-02  0.30382022422E+00  0.30384771907E+00  0.51109989000E-03 0.  1.
     -623    1    1    2    0    0  0.21503053506E-02  0.47569401810E-02  0.92696478823E-04  0.17130000008E+03  0.17130000000E+03 0.  1.
      622    1    1    2    0    0 -0.52877114320E-02 -0.73266095848E-02  0.36960870467E+01  0.36961522014E+01  0.20000000000E-01 0.  0.
</event>
<event>
 5   0  0.3603037E+08  0.9118800E+02  0.7818608E-02  0.1180000E+00
       11   -1    0    0    0    0  0.00000000000E+00  0.00000000000E+00  0.39999999673E+01  0.40000000000E+01  0.51109989000E-03 0.  1.
     -623   -1    0    0    0    0  0.00000000000E+00  0.00000000000E+00  0.12525980253E-10  0.17130000000E+03  0.17130000000E+03 0. -1.
       11    1    1    2    0    0 -0.33508762530E-02 -0.12330031173E-02  0.18479598380E+00  0.18483118113E+00  0.51109989000E-03 0.  1.
     -623    1    1    2    0    0  0.32514999943E-03  0.15492249080E-02  0.88807647410E-04  0.17130000001E+03  0.17130000000E+03 0. -1.
      622    1    1    2    0    0  0.30257262536E-02 -0.31622179064E-03  0.38151151759E+01  0.38151688115E+01  0.20000000000E-01 0.  1.
</event>
<event>
 5   0  0.3603037E+08  0.9118800E+02  0.7818608E-02  0.1180000E+00
       11   -1    0    0    0    0  0.00000000000E+00  0.00000000000E+00  0.39999999673E+01  0.40000000000E+01  0.51109989000E-03 0. -1.
     -623   -1    0    0    0    0  0.00000000000E+00  0.00000000000E+00  0.12525980253E-10  0.17130000000E+03  0.17130000000E+03 0. -1.
       11    1    1    2    0    0 -0.18765772283E-02  0.14491721359E-02  0.38724244256E+00  0.38725003832E+00  0.51109989000E-03 0. -1.
     -623    1    1    2    0    0  0.85285225649E-03 -0.30337235049E-02  0.63444583120E-04  0.17130000003E+03  0.17130000000E+03 0. -1.
      622    1    1    2    0    0  0.10237249718E-02  0.15845513690E-02  0.36126940802E+01  0.36127499327E+01  0.20000000000E-01 0. -1.
</event>
<event>
 5   0  0.3603037E+08  0.9118800E+02  0.7818608E-02  0.1180000E+00
       11   -1    0    0    0    0  0.00000000000E+00  0.00000000000E+00  0.39999999673E+01  0.40000000000E+01  0.51109989000E-03 0.  1.
     -623   -1    0    0    0    0  0.00000000000E+00  0.00000000000E+00  0.12525980253E-10  0.17130000000E+03  0.17130000000E+03 0. -1.
       11    1    1    2    0    0 -0.21923434946E-01 -0.54888845691E-02  0.78787334980E+00  0.78819759033E+00  0.51109989000E-03 0.  1.
     -623    1    1    2    0    0  0.55586352256E-03 -0.17671187872E-02  0.46576565385E-03  0.17130000001E+03  0.17130000000E+03 0. -1.
      622    1    1    2    0    0  0.21367571424E-01  0.72560033563E-02  0.32116608519E+01  0.32118023990E+01  0.20000000000E-01 0.  1.
</event>
<event>
 5   0  0.3603037E+08  0.9118800E+02  0.7818608E-02  0.1180000E+00
       11   -1    0    0    0    0  0.00000000000E+00  0.00000000000E+00  0.39999999673E+01  0.40000000000E+01  0.51109989000E-03 0.  1.
     -623   -1    0    0    0    0  0.00000000000E+00  0.00000000000E+00  0.12525980253E-10  0.17130000000E+03  0.17130000000E+03 0. -1.
       11    1    1    2    0    0  0.54132621699E-03 -0.48575708319E-03  0.91030758050E-02  0.91463765944E-02  0.51109989000E-03 0.  1.
     -623    1    1    2    0    0 -0.12486233045E-02  0.12392831538E-02  0.93525931526E-04  0.17130000001E+03  0.17130000000E+03 0. -1.
      622    1    1    2    0    0  0.70729708755E-03 -0.75352607065E-03  0.39908033656E+01  0.39908536143E+01  0.20000000000E-01 0.  1.
</event>
<event>
 5   0  0.3603037E+08  0.9118800E+02  0.7818608E-02  0.1180000E+00
       11   -1    0    0    0    0  0.00000000000E+00  0.00000000000E+00  0.39999999673E+01  0.40000000000E+01  0.51109989000E-03 0. -1.
     -623   -1    0    0    0    0  0.00000000000E+00  0.00000000000E+00  0.12525980253E-10  0.17130000000E+03  0.17130000000E+03 0. -1.
       11    1    1    2    0    0  0.40398302073E-02 -0.31847018474E-02  0.19230919696E+01  0.19230989177E+01  0.51109989000E-03 0. -1.
     -623    1    1    2    0    0 -0.42232039509E-03 -0.17374984423E-02  0.11220802793E-03  0.17130000001E+03  0.17130000000E+03 0. -1.
      622    1    1    2    0    0 -0.36175098122E-02  0.49222002897E-02  0.20767957898E+01  0.20769010730E+01  0.20000000000E-01 0.  0.
</event>
<event>
 5   0  0.3603037E+08  0.9118800E+02  0.7818608E-02  0.1180000E+00
       11   -1    0    0    0    0  0.00000000000E+00  0.00000000000E+00  0.39999999673E+01  0.40000000000E+01  0.51109989000E-03 0.  1.
     -623   -1    0    0    0    0  0.00000000000E+00  0.00000000000E+00  0.12525980253E-10  0.17130000000E+03  0.17130000000E+03 0.  1.
       11    1    1    2    0    0 -0.25771410858E-02  0.45937732124E-03  0.22522995793E+00  0.22524574991E+00  0.51109989000E-03 0.  1.
     -623    1    1    2    0    0 -0.43775565916E-03  0.45570193789E-03  0.70059411517E-04  0.17130000000E+03  0.17130000000E+03 0.  1.
      622    1    1    2    0    0  0.30148967450E-02 -0.91507925913E-03  0.37746999500E+01  0.37747542489E+01  0.20000000000E-01 0.  1.
</event>
<event>
 5   0  0.3603037E+08  0.9118800E+02  0.7818608E-02  0.1180000E+00
       11   -1    0    0    0    0  0.00000000000E+00  0.00000000000E+00  0.39999999673E+01  0.40000000000E+01  0.51109989000E-03 0.  1.
     -623   -1    0    0    0    0  0.00000000000E+00  0.00000000000E+00  0.12525980253E-10  0.17130000000E+03  0.17130000000E+03 0. -1.
       11    1    1    2    0    0 -0.17179077503E-01  0.88950230691E-02  0.35907126482E+00  0.35959237559E+00  0.51109989000E-03 0.  1.
     -623    1    1    2    0    0  0.10441787065E-02 -0.11156426537E-03  0.62237530224E-03  0.17130000000E+03  0.17130000000E+03 0. -1.
      622    1    1    2    0    0  0.16134898796E-01 -0.87834588037E-02  0.36403063272E+01  0.36404076201E+01  0.20000000000E-01 0.  0.
</event>
<event>
 5   0  0.3603037E+08  0.9118800E+02  0.7818608E-02  0.1180000E+00
       11   -1    0    0    0    0  0.00000000000E+00  0.00000000000E+00  0.39999999673E+01  0.40000000000E+01  0.51109989000E-03 0.  1.
     -623   -1    0    0    0    0  0.00000000000E+00  0.00000000000E+00  0.12525980253E-10  0.17130000000E+03  0.17130000000E+03 0. -1.
       11    1    1    2    0    0 -0.13005560593E-01 -0.12033596073E-01  0.18380833823E+01  0.18381688534E+01  0.51109989000E-03 0.  1.
     -623    1    1    2    0    0  0.15051339552E-01 -0.17526084068E-01  0.38259058263E-03  0.17130000156E+03  0.17130000000E+03 0. -1.
      622    1    1    2    0    0 -0.20457789592E-02  0.29559680141E-01  0.21615339945E+01  0.21618295884E+01  0.20000000000E-01 0.  0.
</event>
<event>
 5   0  0.3603037E+08  0.9118800E+02  0.7818608E-02  0.1180000E+00
       11   -1    0    0    0    0  0.00000000000E+00  0.00000000000E+00  0.39999999673E+01  0.40000000000E+01  0.51109989000E-03 0. -1.
     -623   -1    0    0    0    0  0.00000000000E+00  0.00000000000E+00  0.12525980253E-10  0.17130000000E+03  0.17130000000E+03 0.  1.
       11    1    1    2    0    0  0.93456021278E-03 -0.10073867073E-01  0.89963457719E+00  0.89969160822E+00  0.51109989000E-03 0. -1.
     -623    1    1    2    0    0  0.94549513482E-03 -0.14621163326E-03  0.13892705130E-03  0.17130000000E+03  0.17130000000E+03 0.  1.
      622    1    1    2    0    0 -0.18800553476E-02  0.10220078707E-01  0.31002264631E+01  0.31003083891E+01  0.20000000000E-01 0. -1.
</event>
<event>
 5   0  0.3603037E+08  0.9118800E+02  0.7818608E-02  0.1180000E+00
       11   -1    0    0    0    0  0.00000000000E+00  0.00000000000E+00  0.39999999673E+01  0.40000000000E+01  0.51109989000E-03 0. -1.
     -623   -1    0    0    0    0  0.00000000000E+00  0.00000000000E+00  0.12525980253E-10  0.17130000000E+03  0.17130000000E+03 0. -1.
       11    1    1    2    0    0  0.38925687355E-02  0.79874615577E-04  0.21664378535E+00  0.21667937010E+00  0.51109989000E-03 0. -1.
     -623    1    1    2    0    0  0.37020909325E-03  0.21011991694E-02  0.91459632442E-04  0.17130000001E+03  0.17130000000E+03 0. -1.
      622    1    1    2    0    0 -0.42627778288E-02 -0.21810737849E-02  0.37832647224E+01  0.37833206166E+01  0.20000000000E-01 0. -1.
</event>
<event>
 5   0  0.3603037E+08  0.9118800E+02  0.7818608E-02  0.1180000E+00
       11   -1    0    0    0    0  0.00000000000E+00  0.00000000000E+00  0.39999999673E+01  0.40000000000E+01  0.51109989000E-03 0.  1.
     -623   -1    0    0    0    0  0.00000000000E+00  0.00000000000E+00  0.12525980253E-10  0.17130000000E+03  0.17130000000E+03 0.  1.
       11    1    1    2    0    0 -0.42450930216E-02  0.85503064161E-02  0.16724612588E-01  0.19264019339E-01  0.51109989000E-03 0.  1.
     -623    1    1    2    0    0  0.10362857428E-01 -0.13990515468E-03  0.26035355541E-02  0.17130000033E+03  0.17130000000E+03 0.  1.
      622    1    1    2    0    0 -0.61177644061E-02 -0.84104012614E-02  0.39806718192E+01  0.39807356474E+01  0.20000000000E-01 0.  1.
</event>
<event>
 5   0  0.3603037E+08  0.9118800E+02  0.7818608E-02  0.1180000E+00
       11   -1    0    0    0    0  0.00000000000E+00  0.00000000000E+00  0.39999999673E+01  0.40000000000E+01  0.51109989000E-03 0.  1.
     -623   -1    0    0    0    0  0.00000000000E+00  0.00000000000E+00  0.12525980253E-10  0.17130000000E+03  0.17130000000E+03 0.  1.
       11    1    1    2    0    0  0.23150073052E-02 -0.32759443621E-03  0.59423300376E-01  0.59471475734E-01  0.51109989000E-03 0.  1.
     -623    1    1    2    0    0 -0.20286192406E-03 -0.38796064516E-03  0.99529284024E-04  0.17130000000E+03  0.17130000000E+03 0.  1.
      622    1    1    2    0    0 -0.21121453812E-02  0.71555508136E-03  0.39404771377E+01  0.39405285237E+01  0.20000000000E-01 0.  1.
</event>
<event>
 5   0  0.3603037E+08  0.9118800E+02  0.7818608E-02  0.1180000E+00
       11   -1    0    0    0    0  0.00000000000E+00  0.00000000000E+00  0.39999999673E+01  0.40000000000E+01  0.51109989000E-03 0. -1.
     -623   -1    0    0    0    0  0.00000000000E+00  0.00000000000E+00  0.12525980253E-10  0.17130000000E+03  0.17130000000E+03 0. -1.
       11    1    1    2    0    0  0.59135896731E-02 -0.22077884824E-02  0.79636761272E+00  0.79639279296E+00  0.51109989000E-03 0. -1.
     -623    1    1    2    0    0  0.36804048526E-03  0.51145366173E-03  0.94186777068E-04  0.17130000000E+03  0.17130000000E+03 0. -1.
      622    1    1    2    0    0 -0.62816301584E-02  0.16963348207E-02  0.32035381679E+01  0.32036072059E+01  0.20000000000E-01 0. -1.
</event>
<event>
 5   0  0.3603037E+08  0.9118800E+02  0.7818608E-02  0.1180000E+00
       11   -1    0    0    0    0  0.00000000000E+00  0.00000000000E+00  0.39999999673E+01  0.40000000000E+01  0.51109989000E-03 0.  1.
     -623   -1    0    0    0    0  0.00000000000E+00  0.00000000000E+00  0.12525980253E-10  0.17130000000E+03  0.17130000000E+03 0. -1.
       11    1    1    2    0    0 -0.11833409688E-03 -0.17698355943E-01  0.23973138636E+00  0.24038436853E+00  0.51109989000E-03 0.  1.
     -623    1    1    2    0    0  0.56849452834E-03  0.24212140664E-01  0.71353022189E-03  0.17130000171E+03  0.17130000000E+03 0. -1.
      622    1    1    2    0    0 -0.45016043146E-03 -0.65137847217E-02  0.37595550508E+01  0.37596139179E+01  0.20000000000E-01 0.  1.
</event>
<event>
 5   0  0.3603037E+08  0.9118800E+02  0.7818608E-02  0.1180000E+00
       11   -1    0    0    0    0  0.00000000000E+00  0.00000000000E+00  0.39999999673E+01  0.40000000000E+01  0.51109989000E-03 0.  1.
     -623   -1    0    0    0    0  0.00000000000E+00  0.00000000000E+00  0.12525980253E-10  0.17130000000E+03  0.17130000000E+03 0.  1.
       11    1    1    2    0    0  0.18957115513E-02 -0.31883825098E-03  0.11620463222E+00  0.11622165526E+00  0.51109989000E-03 0.  1.
     -623    1    1    2    0    0 -0.32958850132E-04 -0.40338380842E-04  0.68950331721E-04  0.17130000000E+03  0.17130000000E+03 0.  1.
      622    1    1    2    0    0 -0.18627527012E-02  0.35917663182E-03  0.38837263848E+01  0.38837783447E+01  0.20000000000E-01 0.  1.
</event>
<event>
 5   0  0.3603037E+08  0.9118800E+02  0.7818608E-02  0.1180000E+00
       11   -1    0    0    0    0  0.00000000000E+00  0.00000000000E+00  0.39999999673E+01  0.40000000000E+01  0.51109989000E-03 0.  1.
     -623   -1    0    0    0    0  0.00000000000E+00  0.00000000000E+00  0.12525980253E-10  0.17130000000E+03  0.17130000000E+03 0.  1.
       11    1    1    2    0    0 -0.10161277607E-02 -0.64917075822E-03  0.78893869234E-01  0.78904738530E-01  0.51109989000E-03 0.  1.
     -623    1    1    2    0    0  0.60942809136E-04 -0.33629776270E-03  0.62083678636E-04  0.17130000000E+03  0.17130000000E+03 0.  1.
      622    1    1    2    0    0  0.95518495157E-03  0.98546852092E-03  0.39210440144E+01  0.39210952611E+01  0.20000000000E-01 0.  1.
</event>
<event>
 5   0  0.3603037E+08  0.9118800E+02  0.7818608E-02  0.1180000E+00
       11   -1    0    0    0    0  0.00000000000E+00  0.00000000000E+00  0.39999999673E+01  0.40000000000E+01  0.51109989000E-03 0.  1.
     -623   -1    0    0    0    0  0.00000000000E+00  0.00000000000E+00  0.12525980253E-10  0.17130000000E+03  0.17130000000E+03 0.  1.
       11    1    1    2    0    0  0.10932867264E-02  0.55630110062E-03  0.10164820921E+00  0.10165689551E+00  0.51109989000E-03 0.  1.
     -623    1    1    2    0    0  0.12127899680E-03 -0.21902386175E-03  0.60161836337E-04  0.17130000000E+03  0.17130000000E+03 0.  1.
      622    1    1    2    0    0 -0.12145657232E-02 -0.33727723887E-03  0.38982915963E+01  0.38983431043E+01  0.20000000000E-01 0.  1.
</event>
<event>
 5   0  0.3603037E+08  0.9118800E+02  0.7818608E-02  0.1180000E+00
       11   -1    0    0    0    0  0.00000000000E+00  0.00000000000E+00  0.39999999673E+01  0.40000000000E+01  0.51109989000E-03 0.  1.
     -623   -1    0    0    0    0  0.00000000000E+00  0.00000000000E+00  0.12525980253E-10  0.17130000000E+03  0.17130000000E+03 0. -1.
       11    1    1    2    0    0 -0.22488311480E-02 -0.35575439554E-02  0.33973210519E-01  0.34236729037E-01  0.51109989000E-03 0.  1.
     -623    1    1    2    0    0  0.18047802509E-02  0.40219136091E-03  0.31520827413E-03  0.17130000001E+03  0.17130000000E+03 0. -1.
      622    1    1    2    0    0  0.44405089713E-03  0.31553525944E-02  0.39657115486E+01  0.39657632607E+01  0.20000000000E-01 0.  1.
</event>
<event>
 5   0  0.3603037E+08  0.9118800E+02  0.7818608E-02  0.1180000E+00
       11   -1    0    0    0    0  0.00000000000E+00  0.00000000000E+00  0.39999999673E+01  0.40000000000E+01  0.51109989000E-03 0. -1.
     -623   -1    0    0    0    0  0.00000000000E+00  0.00000000000E+00  0.12525980253E-10  0.17130000000E+03  0.17130000000E+03 0.  1.
       11    1    1    2    0    0  0.16728589767E-02 -0.56172527661E-02  0.52303219926E-01  0.52633069659E-01  0.51109989000E-03 0.  1.
     -623    1    1    2    0    0 -0.18121482307E-02  0.34612374200E-02  0.38112034485E-03  0.17130000004E+03  0.17130000000E+03 0.  1.
      622    1    1    2    0    0  0.13928925396E-03  0.21560153461E-02  0.39473156271E+01  0.39473668854E+01  0.20000000000E-01 0. -1.
</event>
<event>
 5   0  0.3603037E+08  0.9118800E+02  0.7818608E-02  0.1180000E+00
       11   -1    0    0    0    0  0.00000000000E+00  0.00000000000E+00  0.39999999673E+01  0.40000000000E+01  0.51109989000E-03 0. -1.
     -623   -1    0    0    0    0  0.00000000000E+00  0.00000000000E+00  0.12525980253E-10  0.17130000000E+03  0.17130000000E+03 0.  1.
       11    1    1    2    0    0  0.24270504043E-02 -0.14423190896E-02  0.19995923508E+00  0.19997981841E+00  0.51109989000E-03 0. -1.
     -623    1    1    2    0    0 -0.30845247579E-03  0.28614672356E-03  0.73949371372E-04  0.17130000000E+03  0.17130000000E+03 0.  1.
      622    1    1    2    0    0 -0.21185979285E-02  0.11561723661E-02  0.37999667829E+01  0.38000201811E+01  0.20000000000E-01 0. -1.
</event>
<event>
 5   0  0.3603037E+08  0.9118800E+02  0.7818608E-02  0.1180000E+00
       11   -1    0    0    0    0  0.00000000000E+00  0.00000000000E+00  0.39999999673E+01  0.40000000000E+01  0.51109989000E-03 0.  1.
     -623   -1    0    0    0    0  0.00000000000E+00  0.00000000000E+00  0.12525980253E-10  0.17130000000E+03  0.17130000000E+03 0.  1.
       11    1    1    2    0    0  0.11080762834E-01  0.22677906358E-01  0.11793815990E+01  0.11796517655E+01  0.51109989000E-03 0.  1.
     -623    1    1    2    0    0 -0.16210559946E-02 -0.35184447123E-02  0.42203789177E-03  0.17130000004E+03  0.17130000000E+03 0.  1.
      622    1    1    2    0    0 -0.94597068389E-02 -0.19159461646E-01  0.28201963305E+01  0.28203481901E+01  0.20000000000E-01 0.  1.
</event>
<event>
 5   0  0.3603037E+08  0.9118800E+02  0.7818608E-02  0.1180000E+00
       11   -1    0    0    0    0  0.00000000000E+00  0.00000000000E+00  0.39999999673E+01  0.40000000000E+01  0.51109989000E-03 0.  1.
     -623   -1    0    0    0    0  0.00000000000E+00  0.00000000000E+00  0.12525980253E-10  0.17130000000E+03  0.17130000000E+03 0. -1.
       11    1    1    2    0    0 -0.75578182098E-03  0.95741672504E-03  0.22275158587E-01  0.22314384683E-01  0.51109989000E-03 0.  1.
     -623    1    1    2    0    0 -0.78940421948E-03 -0.58046191466E-03  0.89795084555E-04  0.17130000000E+03  0.17130000000E+03 0. -1.
      622    1    1    2    0    0  0.15451860405E-02 -0.37695481038E-03  0.39776350137E+01  0.39776856125E+01  0.20000000000E-01 0.  1.
</event>
<event>
 5   0  0.3603037E+08  0.9118800E+02  0.7818608E-02  0.1180000E+00
       11   -1    0    0    0    0  0.00000000000E+00  0.00000000000E+00  0.39999999673E+01  0.40000000000E+01  0.51109989000E-03 0. -1.
     -623   -1    0    0    0    0  0.00000000000E+00  0.00000000000E+00  0.12525980253E-10  0.17130000000E+03  0.17130000000E+03 0. -1.
       11    1    1    2    0    0 -0.17069735447E-02 -0.19997080177E-03  0.31707638164E+00  0.31708145130E+00  0.51109989000E-03 0. -1.
     -623    1    1    2    0    0  0.50542320818E-02  0.80401754159E-03  0.60989300751E-04  0.17130000008E+03  0.17130000000E+03 0. -1.
      622    1    1    2    0    0 -0.33472585372E-02 -0.60404673982E-03  0.36828625964E+01  0.36829184722E+01  0.20000000000E-01 0. -1.
</event>
<event>
 5   0  0.3603037E+08  0.9118800E+02  0.7818608E-02  0.1180000E+00
       11   -1    0    0    0    0  0.00000000000E+00  0.00000000000E+00  0.39999999673E+01  0.40000000000E+01  0.51109989000E-03 0.  1.
     -623   -1    0    0    0    0  0.00000000000E+00  0.00000000000E+00  0.12525980253E-10  0.17130000000E+03  0.17130000000E+03 0. -1.
       11    1    1    2    0    0 -0.62830702457E-02  0.12899332321E-02  0.15150923039E+00  0.15164580117E+00  0.51109989000E-03 0.  1.
     -623    1    1    2    0    0  0.74705925144E-02  0.18242693407E-02  0.19012477987E-03  0.17130000017E+03  0.17130000000E+03 0. -1.
      622    1    1    2    0    0 -0.11875222687E-02 -0.31142025727E-02  0.38483006122E+01  0.38483540261E+01  0.20000000000E-01 0.  1.
</event>
<event>
 5   0  0.3603037E+08  0.9118800E+02  0.7818608E-02  0.1180000E+00
       11   -1    0    0    0    0  0.00000000000E+00  0.00000000000E+00  0.39999999673E+01  0.40000000000E+01  0.51109989000E-03 0. -1.
     -623   -1    0    0    0    0  0.00000000000E+00  0.00000000000E+00  0.12525980253E-10  0.17130000000E+03  0.17130000000E+03 0.  1.
       11    1    1    2    0    0  0.23867258749E-02  0.28383057122E-02  0.47581961264E+00  0.47583433823E+00  0.51109989000E-03 0. -1.
     -623    1    1    2    0    0 -0.19134675563E-02 -0.10460923537E-02  0.71945820020E-04  0.17130000001E+03  0.17130000000E+03 0.  1.
      622    1    1    2    0    0 -0.47325831864E-03 -0.17922133584E-02  0.35241084089E+01  0.35241656479E+01  0.20000000000E-01 0. -1.
</event>
<event>
 5   0  0.3603037E+08  0.9118800E+02  0.7818608E-02  0.1180000E+00
       11   -1    0    0    0    0  0.00000000000E+00  0.00000000000E+00  0.39999999673E+01  0.40000000000E+01  0.51109989000E-03 0.  1.
     -623   -1    0    0    0    0  0.00000000000E+00  0.00000000000E+00  0.12525980253E-10  0.17130000000E+03  0.17130000000E+03 0. -1.
       11    1    1    2    0    0 -0.22118294472E-01  0.95490432923E-02  0.83559657293E-01  0.86964824650E-01  0.51109989000E-03 0.  1.
     -623    1    1    2    0    0  0.58739402466E-03 -0.35123579552E-02  0.35202125543E-02  0.17130000007E+03  0.17130000000E+03 0. -1.
      622    1    1    2    0    0  0.21530900447E-01 -0.60366853371E-02  0.39129200975E+01  0.39130351022E+01  0.20000000000E-01 0.  1.
</event>
<event>
 5   0  0.3603037E+08  0.9118800E+02  0.7818608E-02  0.1180000E+00
       11   -1    0    0    0    0  0.00000000000E+00  0.00000000000E+00  0.39999999673E+01  0.40000000000E+01  0.51109989000E-03 0.  1.
     -623   -1    0    0    0    0  0.00000000000E+00  0.00000000000E+00  0.12525980253E-10  0.17130000000E+03  0.17130000000E+03 0.  1.
       11    1    1    2    0    0  0.22514974673E-02 -0.49115190810E-02  0.77475728420E-02  0.94593005777E-02  0.51109989000E-03 0.  1.
     -623    1    1    2    0    0 -0.13074141122E-02  0.15863937594E-02  0.17633323713E-02  0.17130000002E+03  0.17130000000E+03 0.  1.
      622    1    1    2    0    0 -0.94408335508E-03  0.33251253215E-02  0.39904890621E+01  0.39905406780E+01  0.20000000000E-01 0.  1.
</event>
<event>
 5   0  0.3603037E+08  0.9118800E+02  0.7818608E-02  0.1180000E+00
       11   -1    0    0    0    0  0.00000000000E+00  0.00000000000E+00  0.39999999673E+01  0.40000000000E+01  0.51109989000E-03 0. -1.
     -623   -1    0    0    0    0  0.00000000000E+00  0.00000000000E+00  0.12525980253E-10  0.17130000000E+03  0.17130000000E+03 0. -1.
       11    1    1    2    0    0  0.32993664320E-02  0.12535504343E-02  0.10403717983E+00  0.10409828632E+00  0.51109989000E-03 0. -1.
     -623    1    1    2    0    0 -0.33119451422E-02  0.13540864184E-02  0.11332030623E-03  0.17130000004E+03  0.17130000000E+03 0. -1.
      622    1    1    2    0    0  0.12578710191E-04 -0.26076368527E-02  0.38958494672E+01  0.38959016763E+01  0.20000000000E-01 0. -1.
</event>
<event>
 5   0  0.3603037E+08  0.9118800E+02  0.7818608E-02  0.1180000E+00
       11   -1    0    0    0    0  0.00000000000E+00  0.00000000000E+00  0.39999999673E+01  0.40000000000E+01  0.51109989000E-03 0. -1.
     -623   -1    0    0    0    0  0.00000000000E+00  0.00000000000E+00  0.12525980253E-10  0.17130000000E+03  0.17130000000E+03 0.  1.
       11    1    1    2    0    0  0.38358350771E-02 -0.54492999384E-02  0.35473210319E+00  0.35479506022E+00  0.51109989000E-03 0. -1.
     -623    1    1    2    0    0  0.24993867127E-03  0.30684659056E-01  0.21018314124E-03  0.17130000275E+03  0.17130000000E+03 0.  1.
      622    1    1    2    0    0 -0.40857737484E-02 -0.25235359118E-01  0.36450576810E+01  0.36452021912E+01  0.20000000000E-01 0. -1.
</event>
<event>
 5   0  0.3603037E+08  0.9118800E+02  0.7818608E-02  0.1180000E+00
       11   -1    0    0    0    0  0.00000000000E+00  0.00000000000E+00  0.39999999673E+01  0.40000000000E+01  0.51109989000E-03 0. -1.
     -623   -1    0    0    0    0  0.00000000000E+00  0.00000000000E+00  0.12525980253E-10  0.17130000000E+03  0.17130000000E+03 0.  1.
       11    1    1    2    0    0 -0.70069570522E-03 -0.72090656890E-03  0.22126088094E+00  0.22126375513E+00  0.51109989000E-03 0. -1.
     -623    1    1    2    0    0  0.54678873785E-03 -0.24875035378E-03  0.55898281067E-04  0.17130000000E+03  0.17130000000E+03 0.  1.
      622    1    1    2    0    0  0.15390696736E-03  0.96965692268E-03  0.37786831881E+01  0.37787362438E+01  0.20000000000E-01 0. -1.
</event>
<event>
 5   0  0.3603037E+08  0.9118800E+02  0.7818608E-02  0.1180000E+00
       11   -1    0    0    0    0  0.00000000000E+00  0.00000000000E+00  0.39999999673E+01  0.40000000000E+01  0.51109989000E-03 0.  1.
     -623   -1    0    0    0    0  0.00000000000E+00  0.00000000000E+00  0.12525980253E-10  0.17130000000E+03  0.17130000000E+03 0. -1.
       11    1    1    2    0    0 -0.35258311436E-04  0.41849787359E-03  0.83069765290E-01  0.83072399206E-01  0.51109989000E-03 0.  1.
     -623    1    1    2    0    0  0.22577291017E-03 -0.10926166347E-03  0.53679069104E-04  0.17130000000E+03  0.17130000000E+03 0. -1.
      622    1    1    2    0    0 -0.19051459874E-03 -0.30923621012E-03  0.39168765230E+01  0.39169276006E+01  0.20000000000E-01 0.  1.
</event>
<event>
 5   0  0.3603037E+08  0.9118800E+02  0.7818608E-02  0.1180000E+00
       11   -1    0    0    0    0  0.00000000000E+00  0.00000000000E+00  0.39999999673E+01  0.40000000000E+01  0.51109989000E-03 0. -1.
     -623   -1    0    0    0    0  0.00000000000E+00  0.00000000000E+00  0.12525980253E-10  0.17130000000E+03  0.17130000000E+03 0.  1.
       11    1    1    2    0    0 -0.14924537668E-02 -0.12446895291E-02  0.32758985185E-01  0.32820557601E-01  0.51109989000E-03 0. -1.
     -623    1    1    2    0    0  0.55878780940E-03 -0.50413756125E-04  0.11227597161E-03  0.17130000000E+03  0.17130000000E+03 0.  1.
      622    1    1    2    0    0  0.93366595739E-03  0.12951032852E-02  0.39671287062E+01  0.39671794414E+01  0.20000000000E-01 0. -1.
</event>
<event>
 5   0  0.3603037E+08  0.9118800E+02  0.7818608E-02  0.1180000E+00
       11   -1    0    0    0    0  0.00000000000E+00  0.00000000000E+00  0.39999999673E+01  0.40000000000E+01  0.51109989000E-03 0. -1.
     -623   -1    0    0    0    0  0.00000000000E+00  0.00000000000E+00  0.12525980253E-10  0.17130000000E+03  0.17130000000E+03 0.  1.
       11    1    1    2    0    0 -0.44309855103E-02  0.10539866603E-02  0.62676404131E+00  0.62678079839E+00  0.51109989000E-03 0. -1.
     -623    1    1    2    0    0  0.34180459080E-04  0.72566962822E-04  0.79069202669E-04  0.17130000000E+03  0.17130000000E+03 0.  1.
      622    1    1    2    0    0  0.43968050512E-02 -0.11265536231E-02  0.33731568568E+01  0.33732192016E+01  0.20000000000E-01 0. -1.
</event>
<event>
 5   0  0.3603037E+08  0.9118800E+02  0.7818608E-02  0.1180000E+00
       11   -1    0    0    0    0  0.00000000000E+00  0.00000000000E+00  0.39999999673E+01  0.40000000000E+01  0.51109989000E-03 0.  1.
     -623   -1    0    0    0    0  0.00000000000E+00  0.00000000000E+00  0.12525980253E-10  0.17130000000E+03  0.17130000000E+03 0. -1.
       11    1    1    2    0    0 -0.68509192082E-03 -0.10901635480E-02  0.27968739316E-01  0.28003024953E-01  0.51109989000E-03 0.  1.
     -623    1    1    2    0    0  0.73346919928E-03 -0.80904604296E-03  0.85063677298E-04  0.17130000000E+03  0.17130000000E+03 0. -1.
      622    1    1    2    0    0 -0.48377278466E-04  0.18992095910E-02  0.39719461644E+01  0.39719969715E+01  0.20000000000E-01 0.  1.
</event>
<event>
 5   0  0.3603037E+08  0.9118800E+02  0.7818608E-02  0.1180000E+00
       11   -1    0    0    0    0  0.00000000000E+00  0.00000000000E+00  0.39999999673E+01  0.40000000000E+01  0.51109989000E-03 0. -1.
     -623   -1    0    0    0    0  0.00000000000E+00  0.00000000000E+00  0.12525980253E-10  0.17130000000E+03  0.17130000000E+03 0. -1.
       11    1    1    2    0    0  0.45348074990E-02  0.22553498319E-02  0.96019996947E-01  0.96154834081E-01  0.51109989000E-03 0. -1.
     -623    1    1    2    0    0  0.11635815814E-02 -0.24553054708E-02  0.19022213294E-03  0.17130000002E+03  0.17130000000E+03 0. -1.
      622    1    1    2    0    0 -0.56983890803E-02  0.19995563888E-03  0.39037897483E+01  0.39038451443E+01  0.20000000000E-01 0. -1.
</event>
<event>
 5   0  0.3603037E+08  0.9118800E+02  0.7818608E-02  0.1180000E+00
       11   -1    0    0    0    0  0.00000000000E+00  0.00000000000E+00  0.39999999673E+01  0.40000000000E+01  0.51109989000E-03 0. -1.
     -623   -1    0    0    0    0  0.00000000000E+00  0.00000000000E+00  0.12525980253E-10  0.17130000000E+03  0.17130000000E+03 0. -1.
       11    1    1    2    0    0  0.38964365506E-03 -0.40318163542E-03  0.43508577359E-01  0.43515191629E-01  0.51109989000E-03 0. -1.
     -623    1    1    2    0    0  0.96192960806E-03  0.87262878790E-03  0.57395517777E-04  0.17130000000E+03  0.17130000000E+03 0. -1.
      622    1    1    2    0    0 -0.13515732631E-02 -0.46944715248E-03  0.39564339945E+01  0.39564848034E+01  0.20000000000E-01 0. -1.
</event>
<event>
 5   0  0.3603037E+08  0.9118800E+02  0.7818608E-02  0.1180000E+00
       11   -1    0    0    0    0  0.00000000000E+00  0.00000000000E+00  0.39999999673E+01  0.40000000000E+01  0.51109989000E-03 0.  1.
     -623   -1    0    0    0    0  0.00000000000E+00  0.00000000000E+00  0.12525980253E-10  0.17130000000E+03  0.17130000000E+03 0. -1.
       11    1    1    2    0    0  0.14668194283E-01 -0.24050740104E-01  0.35562227143E+01  0.35563343275E+01  0.51109989000E-03 0.  1.
     -623    1    1    2    0    0 -0.11962059647E-01  0.31374974828E-01  0.63467986482E-03  0.17130000329E+03  0.17130000000E+03 0. -1.
      622    1    1    2    0    0 -0.27061346365E-02 -0.73242347237E-02  0.44314257319E+00  0.44366238037E+00  0.20000000000E-01 0.  1.
</event>
<event>
 5   0  0.3603037E+08  0.9118800E+02  0.7818608E-02  0.1180000E+00
       11   -1    0    0    0    0  0.00000000000E+00  0.00000000000E+00  0.39999999673E+01  0.40000000000E+01  0.51109989000E-03 0.  1.
     -623   -1    0    0    0    0  0.00000000000E+00  0.00000000000E+00  0.12525980253E-10  0.17130000000E+03  0.17130000000E+03 0. -1.
       11    1    1    2    0    0 -0.85018666006E-05  0.40202540208E-02  0.73873956871E-01  0.73985033888E-01  0.51109989000E-03 0.  1.
     -623    1    1    2    0    0  0.42808155804E-03  0.39422583901E-03  0.16449232919E-03  0.17130000000E+03  0.17130000000E+03 0. -1.
      622    1    1    2    0    0 -0.41957969144E-03 -0.44144798598E-02  0.39259615182E+01  0.39260149650E+01  0.20000000000E-01 0.  1.
</event>
<event>
 5   0  0.3603037E+08  0.9118800E+02  0.7818608E-02  0.1180000E+00
       11   -1    0    0    0    0  0.00000000000E+00  0.00000000000E+00  0.39999999673E+01  0.40000000000E+01  0.51109989000E-03 0.  1.
     -623   -1    0    0    0    0  0.00000000000E+00  0.00000000000E+00  0.12525980253E-10  0.17130000000E+03  0.17130000000E+03 0. -1.
       11    1    1    2    0    0  0.25552521365E-02 -0.29437395443E-02  0.24202738408E+00  0.24205931253E+00  0.51109989000E-03 0.  1.
     -623    1    1    2    0    0  0.73655331143E-03  0.49675701280E-03  0.87357600801E-04  0.17130000000E+03  0.17130000000E+03 0. -1.
      622    1    1    2    0    0 -0.32918054479E-02  0.24469825315E-02  0.37578852257E+01  0.37579406851E+01  0.20000000000E-01 0.  1.
</event>
<event>
 5   0  0.3603037E+08  0.9118800E+02  0.7818608E-02  0.1180000E+00
       11   -1    0    0    0    0  0.00000000000E+00  0.00000000000E+00  0.39999999673E+01  0.40000000000E+01  0.51109989000E-03 0.  1.
     -623   -1    0    0    0    0  0.00000000000E+00  0.00000000000E+00  0.12525980253E-10  0.17130000000E+03  0.17130000000E+03 0. -1.
       11    1    1    2    0    0  0.24190672806E-02 -0.37740749133E-03  0.19095677693E+00  0.19097315571E+00  0.51109989000E-03 0.  1.
     -623    1    1    2    0    0 -0.58157227865E-03 -0.12154192139E-02  0.69634917172E-04  0.17130000001E+03  0.17130000000E+03 0. -1.
      622    1    1    2    0    0 -0.18374950019E-02  0.15928267053E-02  0.38089735555E+01  0.38090268390E+01  0.20000000000E-01 0.  1.
</event>
<event>
 5   0  0.3603037E+08  0.9118800E+02  0.7818608E-02  0.1180000E+00
       11   -1    0    0    0    0  0.00000000000E+00  0.00000000000E+00  0.39999999673E+01  0.40000000000E+01  0.51109989000E-03 0.  1.
     -623   -1    0    0    0    0  0.00000000000E+00  0.00000000000E+00  0.12525980253E-10  0.17130000000E+03  0.17130000000E+03 0.  1.
       11    1    1    2    0    0  0.56080132228E-03 -0.31261051063E-02  0.37726754723E+00  0.37728126172E+00  0.51109989000E-03 0.  1.
     -623    1    1    2    0    0  0.10246190736E-03 -0.41815054827E-04  0.70335325341E-04  0.17130000000E+03  0.17130000000E+03 0.  1.
      622    1    1    2    0    0 -0.66326322964E-03  0.31679201611E-02  0.36226620848E+01  0.36227187382E+01  0.20000000000E-01 0.  1.
</event>
<event>
 5   0  0.3603037E+08  0.9118800E+02  0.7818608E-02  0.1180000E+00
       11   -1    0    0    0    0  0.00000000000E+00  0.00000000000E+00  0.39999999673E+01  0.40000000000E+01  0.51109989000E-03 0.  1.
     -623   -1    0    0    0    0  0.00000000000E+00  0.00000000000E+00  0.12525980253E-10  0.17130000000E+03  0.17130000000E+03 0.  1.
       11    1    1    2    0    0 -0.33958521338E-01 -0.78293253785E-01  0.33269395266E+00  0.34346548898E+00  0.51109989000E-03 0.  1.
     -623    1    1    2    0    0  0.36621508960E-02  0.24519323832E-01  0.11349333352E-01  0.17130000217E+03  0.17130000000E+03 0.  1.
      622    1    1    2    0    0  0.30296370442E-01  0.53773929954E-01  0.36559566813E+01  0.36565323411E+01  0.20000000000E-01 0.  1.
</event>
<event>
 5   0  0.3603037E+08  0.9118800E+02  0.7818608E-02  0.1180000E+00
       11   -1    0    0    0    0  0.00000000000E+00  0.00000000000E+00  0.39999999673E+01  0.40000000000E+01  0.51109989000E-03 0.  1.
     -623   -1    0    0    0    0  0.00000000000E+00  0.00000000000E+00  0.12525980253E-10  0.17130000000E+03  0.17130000000E+03 0. -1.
       11    1    1    2    0    0  0.32773716675E-02  0.27765989485E-03  0.28029167068E+00  0.28031143418E+00  0.51109989000E-03 0.  1.
     -623    1    1    2    0    0 -0.11852879958E-03 -0.54578929892E-03  0.74851084304E-04  0.17130000000E+03  0.17130000000E+03 0. -1.
      622    1    1    2    0    0 -0.31588428679E-02  0.26812940407E-03  0.37196334456E+01  0.37196885649E+01  0.20000000000E-01 0.  1.
</event>
<event>
 5   0  0.3603037E+08  0.9118800E+02  0.7818608E-02  0.1180000E+00
       11   -1    0    0    0    0  0.00000000000E+00  0.00000000000E+00  0.39999999673E+01  0.40000000000E+01  0.51109989000E-03 0. -1.
     -623   -1    0    0    0    0  0.00000000000E+00  0.00000000000E+00  0.12525980253E-10  0.17130000000E+03  0.17130000000E+03 0. -1.
       11    1    1    2    0    0  0.20668658631E-03  0.20428251615E-03  0.22658781685E-01  0.22666408165E-01  0.51109989000E-03 0. -1.
     -623    1    1    2    0    0 -0.77915582310E-03 -0.40134530230E-03  0.57927435401E-04  0.17130000000E+03  0.17130000000E+03 0. -1.
      622    1    1    2    0    0  0.57246923679E-03  0.19706278616E-03  0.39772832582E+01  0.39773335896E+01  0.20000000000E-01 0. -1.
</event>
<event>
 5   0  0.3603037E+08  0.9118800E+02  0.7818608E-02  0.1180000E+00
       11   -1    0    0    0    0  0.00000000000E+00  0.00000000000E+00  0.39999999673E+01  0.40000000000E+01  0.51109989000E-03 0.  1.
     -623   -1    0    0    0    0  0.00000000000E+00  0.00000000000E+00  0.12525980253E-10  0.17130000000E+03  0.17130000000E+03 0.  1.
       11    1    1    2    0    0 -0.58646997634E-02 -0.27430706863E-02  0.40882947554E+00  0.40888105903E+00  0.51109989000E-03 0.  1.
     -623    1    1    2    0    0 -0.69466848216E-04  0.79282003140E-03  0.11267874349E-03  0.17130000000E+03  0.17130000000E+03 0.  1.
      622    1    1    2    0    0  0.59341666116E-02  0.19502506549E-02  0.35910578131E+01  0.35911189391E+01  0.20000000000E-01 0.  1.
</event>
<event>
 5   0  0.3603037E+08  0.9118800E+02  0.7818608E-02  0.1180000E+00
       11   -1    0    0    0    0  0.00000000000E+00  0.00000000000E+00  0.39999999673E+01  0.40000000000E+01  0.51109989000E-03 0.  1.
     -623   -1    0    0    0    0  0.00000000000E+00  0.00000000000E+00  0.12525980253E-10  0.17130000000E+03  0.17130000000E+03 0.  1.
       11    1    1    2    0    0  0.12287959706E-01 -0.32193912678E-02  0.51812787222E-01  0.53349644566E-01  0.51109989000E-03 0.  1.
     -623    1    1    2    0    0 -0.80148453439E-02  0.67100440069E-02  0.15916842485E-02  0.17130000033E+03  0.17130000000E+03 0.  1.
      622    1    1    2    0    0 -0.42731143620E-02 -0.34906527391E-02  0.39465954959E+01  0.39466500291E+01  0.20000000000E-01 0.  1.
</event>
<event>
 5   0  0.3603037E+08  0.9118800E+02  0.7818608E-02  0.1180000E+00
       11   -1    0    0    0    0  0.00000000000E+00  0.00000000000E+00  0.39999999673E+01  0.40000000000E+01  0.51109989000E-03 0. -1.
     -623   -1    0    0    0    0  0.00000000000E+00  0.00000000000E+00  0.12525980253E-10  0.17130000000E+03  0.17130000000E+03 0.  1.
       11    1    1    2    0    0  0.85459956126E-03 -0.10376368151E-01  0.20075100549E+01  0.20075371183E+01  0.51109989000E-03 0. -1.
     -623    1    1    2    0    0  0.22438909945E-02  0.24141640084E-01  0.17908984784E-03  0.17130000172E+03  0.17130000000E+03 0.  1.
      622    1    1    2    0    0 -0.30984905557E-02 -0.13765271932E-01  0.19923108226E+01  0.19924611658E+01  0.20000000000E-01 0. -1.
</event>
<event>
 5   0  0.3603037E+08  0.9118800E+02  0.7818608E-02  0.1180000E+00
       11   -1    0    0    0    0  0.00000000000E+00  0.00000000000E+00  0.39999999673E+01  0.40000000000E+01  0.51109989000E-03 0. -1.
     -623   -1    0    0    0    0  0.00000000000E+00  0.00000000000E+00  0.12525980253E-10  0.17130000000E+03  0.17130000000E+03 0.  1.
       11    1    1    2    0    0 -0.16324042342E-02 -0.27039849529E-02  0.82315823746E-01  0.82377984549E-01  0.51109989000E-03 0. -1.
     -623    1    1    2    0    0  0.22988424894E-02 -0.25581638915E-03  0.11437030704E-03  0.17130000002E+03  0.17130000000E+03 0.  1.
      622    1    1    2    0    0 -0.66643825521E-03  0.29598013420E-02  0.39175697733E+01  0.39176219998E+01  0.20000000000E-01 0. -1.
</event>
<event>
 5   0  0.3603037E+08  0.9118800E+02  0.7818608E-02  0.1180000E+00
       11   -1    0    0    0    0  0.00000000000E+00  0.00000000000E+00  0.39999999673E+01  0.40000000000E+01  0.51109989000E-03 0. -1.
     -623   -1    0    0    0    0  0.00000000000E+00  0.00000000000E+00  0.12525980253E-10  0.17130000000E+03  0.17130000000E+03 0.  1.
       11    1    1    2    0    0  0.19495872055E-02 -0.10965269858E-02  0.66417239771E-02  0.70268756477E-02  0.51109989000E-03 0.  1.
     -623    1    1    2    0    0 -0.13061956006E-02 -0.92325361641E-05  0.43541781353E-03  0.17130000001E+03  0.17130000000E+03 0.  1.
      622    1    1    2    0    0 -0.64339160488E-03  0.11057595219E-02  0.39929228256E+01  0.39929731188E+01  0.20000000000E-01 0. -1.
</event>
<event>
 5   0  0.3603037E+08  0.9118800E+02  0.7818608E-02  0.1180000E+00
       11   -1    0    0    0    0  0.00000000000E+00  0.00000000000E+00  0.39999999673E+01  0.40000000000E+01  0.51109989000E-03 0. -1.
     -623   -1    0    0    0    0  0.00000000000E+00  0.00000000000E+00  0.12525980253E-10  0.17130000000E+03  0.17130000000E+03 0.  1.
       11    1    1    2    0    0  0.11145147198E-02 -0.33723881551E-03  0.16878045680E+00  0.16878524726E+00  0.51109989000E-03 0. -1.
     -623    1    1    2    0    0 -0.32959895612E-03 -0.74815964981E-04  0.57063844818E-04  0.17130000000E+03  0.17130000000E+03 0.  1.
      622    1    1    2    0    0 -0.78491576370E-03  0.41205478049E-03  0.38311624467E+01  0.38312147524E+01  0.20000000000E-01 0. -1.
</event>
<event>
 5   0  0.3603037E+08  0.9118800E+02  0.7818608E-02  0.1180000E+00
       11   -1    0    0    0    0  0.00000000000E+00  0.00000000000E+00  0.39999999673E+01  0.40000000000E+01  0.51109989000E-03 0.  1.
     -623   -1    0    0    0    0  0.00000000000E+00  0.00000000000E+00  0.12525980253E-10  0.17130000000E+03  0.17130000000E+03 0.  1.
       11    1    1    2    0    0  0.55157005432E-03  0.58988601217E-04  0.40509282114E-01  0.40516303727E-01  0.51109989000E-03 0.  1.
     -623    1    1    2    0    0 -0.14628174954E-04 -0.28567970789E-04  0.57537468280E-04  0.17130000000E+03  0.17130000000E+03 0.  1.
      622    1    1    2    0    0 -0.53694187937E-03 -0.30420630428E-04  0.39594331478E+01  0.39594836963E+01  0.20000000000E-01 0.  1.
</event>
<event>
 5   0  0.3603037E+08  0.9118800E+02  0.7818608E-02  0.1180000E+00
       11   -1    0    0    0    0  0.00000000000E+00  0.00000000000E+00  0.39999999673E+01  0.40000000000E+01  0.51109989000E-03 0. -1.
     -623   -1    0    0    0    0  0.00000000000E+00  0.00000000000E+00  0.12525980253E-10  0.17130000000E+03  0.17130000000E+03 0. -1.
       11    1    1    2    0    0 -0.66949328955E-02 -0.40861843597E-02  0.98514381165E+00  0.98517516710E+00  0.51109989000E-03 0. -1.
     -623    1    1    2    0    0  0.23005461619E-03  0.24843181796E-04  0.10732989719E-03  0.17130000000E+03  0.17130000000E+03 0. -1.
      622    1    1    2    0    0  0.64648782793E-02  0.40613411779E-02  0.30147488258E+01  0.30148248327E+01  0.20000000000E-01 0.  0.
</event>
<event>
 5   0  0.3603037E+08  0.9118800E+02  0.7818608E-02  0.1180000E+00
       11   -1    0    0    0    0  0.00000000000E+00  0.00000000000E+00  0.39999999673E+01  0.40000000000E+01  0.51109989000E-03 0.  1.
     -623   -1    0    0    0    0  0.00000000000E+00  0.00000000000E+00  0.12525980253E-10  0.17130000000E+03  0.17130000000E+03 0.  1.
       11    1    1    2    0    0 -0.35651841264E-03 -0.75050711471E-03  0.68412987590E-02  0.69104960607E-02  0.51109989000E-03 0.  1.
     -623    1    1    2    0    0  0.12522694172E-02  0.58298797625E-04  0.11941660498E-03  0.17130000000E+03  0.17130000000E+03 0.  1.
      622    1    1    2    0    0 -0.89575100453E-03  0.69220831708E-03  0.39930392520E+01  0.39930894993E+01  0.20000000000E-01 0.  1.
</event>
<event>
 5   0  0.3603037E+08  0.9118800E+02  0.7818608E-02  0.1180000E+00
       11   -1    0    0    0    0  0.00000000000E+00  0.00000000000E+00  0.39999999673E+01  0.40000000000E+01  0.51109989000E-03 0. -1.
     -623   -1    0    0    0    0  0.00000000000E+00  0.00000000000E+00  0.12525980253E-10  0.17130000000E+03  0.17130000000E+03 0.  1.
       11    1    1    2    0    0 -0.51232325278E-02  0.93430712806E-03  0.87405867348E-01  0.87562362404E-01  0.51109989000E-03 0. -1.
     -623    1    1    2    0    0  0.31206199961E-03 -0.92025243222E-03  0.21054290177E-03  0.17130000000E+03  0.17130000000E+03 0.  1.
      622    1    1    2    0    0  0.48111705282E-02 -0.14054695844E-04  0.39123835571E+01  0.39124376347E+01  0.20000000000E-01 0. -1.
</event>
<event>
 5   0  0.3603037E+08  0.9118800E+02  0.7818608E-02  0.1180000E+00
       11   -1    0    0    0    0  0.00000000000E+00  0.00000000000E+00  0.39999999673E+01  0.40000000000E+01  0.51109989000E-03 0. -1.
     -623   -1    0    0    0    0  0.00000000000E+00  0.00000000000E+00  0.12525980253E-10  0.17130000000E+03  0.17130000000E+03 0.  1.
       11    1    1    2    0    0  0.60880375570E-02 -0.50479483827E-02  0.22854557059E+00  0.22868293561E+00  0.51109989000E-03 0. -1.
     -623    1    1    2    0    0  0.61781593443E-03 -0.14035885202E-02  0.20185197052E-03  0.17130000001E+03  0.17130000000E+03 0.  1.
      622    1    1    2    0    0 -0.67058534914E-02  0.64515369029E-02  0.37712525448E+01  0.37713170574E+01  0.20000000000E-01 0. -1.
</event>
<event>
 5   0  0.3603037E+08  0.9118800E+02  0.7818608E-02  0.1180000E+00
       11   -1    0    0    0    0  0.00000000000E+00  0.00000000000E+00  0.39999999673E+01  0.40000000000E+01  0.51109989000E-03 0. -1.
     -623   -1    0    0    0    0  0.00000000000E+00  0.00000000000E+00  0.12525980253E-10  0.17130000000E+03  0.17130000000E+03 0.  1.
       11    1    1    2    0    0 -0.66887799915E-03 -0.24180088550E-03  0.26425715873E-01  0.26440225921E-01  0.51109989000E-03 0. -1.
     -623    1    1    2    0    0 -0.10992217763E-03  0.61835567129E-03  0.64905756084E-04  0.17130000000E+03  0.17130000000E+03 0.  1.
      622    1    1    2    0    0  0.77880017678E-03 -0.37655478579E-03  0.39735093457E+01  0.39735597729E+01  0.20000000000E-01 0. -1.
</event>
<event>
 5   0  0.3603037E+08  0.9118800E+02  0.7818608E-02  0.1180000E+00
       11   -1    0    0    0    0  0.00000000000E+00  0.00000000000E+00  0.39999999673E+01  0.40000000000E+01  0.51109989000E-03 0. -1.
     -623   -1    0    0    0    0  0.00000000000E+00  0.00000000000E+00  0.12525980253E-10  0.17130000000E+03  0.17130000000E+03 0. -1.
       11    1    1    2    0    0 -0.72375933831E-02 -0.20413341163E-02  0.40662900642E-01  0.41355562066E-01  0.51109989000E-03 0. -1.
     -623    1    1    2    0    0  0.23319511227E-02  0.20547149197E-02  0.74622092651E-03  0.17130000003E+03  0.17130000000E+03 0. -1.
      622    1    1    2    0    0  0.49056422603E-02 -0.13380803406E-04  0.39585908458E+01  0.39586444081E+01  0.20000000000E-01 0. -1.
</event>
<event>
 5   0  0.3603037E+08  0.9118800E+02  0.7818608E-02  0.1180000E+00
       11   -1    0    0    0    0  0.00000000000E+00  0.00000000000E+00  0.39999999673E+01  0.40000000000E+01  0.51109989000E-03 0. -1.
     -623   -1    0    0    0    0  0.00000000000E+00  0.00000000000E+00  0.12525980253E-10  0.17130000000E+03  0.17130000000E+03 0.  1.
       11    1    1    2    0    0  0.60313802664E-02  0.10163486240E-01  0.10959734144E+01  0.10960372532E+01  0.51109989000E-03 0. -1.
     -623    1    1    2    0    0 -0.15992134600E-02 -0.19113870034E-03  0.15319158569E-03  0.17130000001E+03  0.17130000000E+03 0.  1.
      622    1    1    2    0    0 -0.44321668064E-02 -0.99723475395E-02  0.29038733613E+01  0.29039627392E+01  0.20000000000E-01 0. -1.
</event>
<event>
 5   0  0.3603037E+08  0.9118800E+02  0.7818608E-02  0.1180000E+00
       11   -1    0    0    0    0  0.00000000000E+00  0.00000000000E+00  0.39999999673E+01  0.40000000000E+01  0.51109989000E-03 0. -1.
     -623   -1    0    0    0    0  0.00000000000E+00  0.00000000000E+00  0.12525980253E-10  0.17130000000E+03  0.17130000000E+03 0.  1.
       11    1    1    2    0    0  0.81930921333E-03  0.21689790184E-03  0.12028699365E+00  0.12029106523E+00  0.51109989000E-03 0. -1.
     -623    1    1    2    0    0  0.62945989960E-05  0.72982488004E-04  0.55688246719E-04  0.17130000000E+03  0.17130000000E+03 0.  1.
      622    1    1    2    0    0 -0.82560381233E-03 -0.28988038984E-03  0.38796572855E+01  0.38797089347E+01  0.20000000000E-01 0. -1.
</event>
<event>
 5   0  0.3603037E+08  0.9118800E+02  0.7818608E-02  0.1180000E+00
       11   -1    0    0    0    0  0.00000000000E+00  0.00000000000E+00  0.39999999673E+01  0.40000000000E+01  0.51109989000E-03 0. -1.
     -623   -1    0    0    0    0  0.00000000000E+00  0.00000000000E+00  0.12525980253E-10  0.17130000000E+03  0.17130000000E+03 0. -1.
       11    1    1    2    0    0 -0.23899337050E-02  0.35132426816E-03  0.12269576395E+00  0.12272060513E+00  0.51109989000E-03 0. -1.
     -623    1    1    2    0    0 -0.99484671060E-04 -0.25452484246E-04  0.77204366125E-04  0.17130000000E+03  0.17130000000E+03 0. -1.
      622    1    1    2    0    0  0.24894183761E-02 -0.32587178392E-03  0.38772269990E+01  0.38772793948E+01  0.20000000000E-01 0. -1.
</event>
<event>
 5   0  0.3603037E+08  0.9118800E+02  0.7818608E-02  0.1180000E+00
       11   -1    0    0    0    0  0.00000000000E+00  0.00000000000E+00  0.39999999673E+01  0.40000000000E+01  0.51109989000E-03 0. -1.
     -623   -1    0    0    0    0  0.00000000000E+00  0.00000000000E+00  0.12525980253E-10  0.17130000000E+03  0.17130000000E+03 0. -1.
       11    1    1    2    0    0  0.35138219933E-02 -0.11221139943E-03  0.10413946725E-01  0.11003228844E-01  0.51109989000E-03 0. -1.
     -623    1    1    2    0    0 -0.47753648991E-03 -0.27139443563E-02  0.64156781345E-03  0.17130000002E+03  0.17130000000E+03 0. -1.
      622    1    1    2    0    0 -0.30362855034E-02  0.28261557557E-02  0.39889444528E+01  0.39889967478E+01  0.20000000000E-01 0. -1.
</event>
<event>
 5   0  0.3603037E+08  0.9118800E+02  0.7818608E-02  0.1180000E+00
       11   -1    0    0    0    0  0.00000000000E+00  0.00000000000E+00  0.39999999673E+01  0.40000000000E+01  0.51109989000E-03 0. -1.
     -623   -1    0    0    0    0  0.00000000000E+00  0.00000000000E+00  0.12525980253E-10  0.17130000000E+03  0.17130000000E+03 0.  1.
       11    1    1    2    0    0 -0.66927633323E-04  0.14485585709E-02  0.34766055657E-01  0.34800038052E-01  0.51109989000E-03 0. -1.
     -623    1    1    2    0    0 -0.17208653375E-04  0.59554014655E-04  0.84676618372E-04  0.17130000000E+03  0.17130000000E+03 0.  1.
      622    1    1    2    0    0  0.84136286698E-04 -0.15081125856E-02  0.39651492351E+01  0.39651999619E+01  0.20000000000E-01 0. -1.
</event>
<event>
 5   0  0.3603037E+08  0.9118800E+02  0.7818608E-02  0.1180000E+00
       11   -1    0    0    0    0  0.00000000000E+00  0.00000000000E+00  0.39999999673E+01  0.40000000000E+01  0.51109989000E-03 0.  1.
     -623   -1    0    0    0    0  0.00000000000E+00  0.00000000000E+00  0.12525980253E-10  0.17130000000E+03  0.17130000000E+03 0.  1.
       11    1    1    2    0    0 -0.58049689779E-02  0.76266411212E-02  0.76568946578E+00  0.76574962132E+00  0.51109989000E-03 0.  1.
     -623    1    1    2    0    0  0.10891333023E-02  0.23885872005E-02  0.14092692678E-03  0.17130000002E+03  0.17130000000E+03 0.  1.
      622    1    1    2    0    0  0.47158356755E-02 -0.10015228322E-01  0.32341695747E+01  0.32342503585E+01  0.20000000000E-01 0.  1.
</event>
<event>
 5   0  0.3603037E+08  0.9118800E+02  0.7818608E-02  0.1180000E+00
       11   -1    0    0    0    0  0.00000000000E+00  0.00000000000E+00  0.39999999673E+01  0.40000000000E+01  0.51109989000E-03 0. -1.
     -623   -1    0    0    0    0  0.00000000000E+00  0.00000000000E+00  0.12525980253E-10  0.17130000000E+03  0.17130000000E+03 0.  1.
       11    1    1    2    0    0 -0.31474182590E-03 -0.49534287738E-03  0.58587493693E-01  0.58592662210E-01  0.51109989000E-03 0. -1.
     -623    1    1    2    0    0  0.93297014891E-03  0.10532622460E-02  0.55973261911E-04  0.17130000001E+03  0.17130000000E+03 0.  1.
      622    1    1    2    0    0 -0.61822832301E-03 -0.55791936857E-03  0.39413565004E+01  0.39414073320E+01  0.20000000000E-01 0. -1.
</event>
<event>
 5   0  0.3603037E+08  0.9118800E+02  0.7818608E-02  0.1180000E+00
       11   -1    0    0    0    0  0.00000000000E+00  0.00000000000E+00  0.39999999673E+01  0.40000000000E+01  0.51109989000E-03 0. -1.
     -623   -1    0    0    0    0  0.00000000000E+00  0.00000000000E+00  0.12525980253E-10  0.17130000000E+03  0.17130000000E+03 0.  1.
       11    1    1    2    0    0  0.28463088546E-03 -0.53228866324E-04  0.31344059413E-01  0.31349563458E-01  0.51109989000E-03 0. -1.
     -623    1    1    2    0    0 -0.11075683015E-02  0.30120278599E-03  0.55963615378E-04  0.17130000000E+03  0.17130000000E+03 0.  1.
      622    1    1    2    0    0  0.82293741602E-03 -0.24797391966E-03  0.39685999443E+01  0.39686504327E+01  0.20000000000E-01 0. -1.
</event>
<event>
 5   0  0.3603037E+08  0.9118800E+02  0.7818608E-02  0.1180000E+00
       11   -1    0    0    0    0  0.00000000000E+00  0.00000000000E+00  0.39999999673E+01  0.40000000000E+01  0.51109989000E-03 0.  1.
     -623   -1    0    0    0    0  0.00000000000E+00  0.00000000000E+00  0.12525980253E-10  0.17130000000E+03  0.17130000000E+03 0.  1.
       11    1    1    2    0    0 -0.14283009383E-02  0.43141245442E-03  0.45585530440E-01  0.45612804856E-01  0.51109989000E-03 0.  1.
     -623    1    1    2    0    0  0.22111081739E-03 -0.47291197313E-03  0.78004134286E-04  0.17130000000E+03  0.17130000000E+03 0.  1.
      622    1    1    2    0    0  0.12071901209E-02  0.41499518706E-04  0.39543364328E+01  0.39543871943E+01  0.20000000000E-01 0.  1.
</event>
<event>
 5   0  0.3603037E+08  0.9118800E+02  0.7818608E-02  0.1180000E+00
       11   -1    0    0    0    0  0.00000000000E+00  0.00000000000E+00  0.39999999673E+01  0.40000000000E+01  0.51109989000E-03 0. -1.
     -623   -1    0    0    0    0  0.00000000000E+00  0.00000000000E+00  0.12525980253E-10  0.17130000000E+03  0.17130000000E+03 0.  1.
       11    1    1    2    0    0 -0.84469671349E-02 -0.13072303221E-01  0.67555894519E+00  0.67573840058E+00  0.51109989000E-03 0. -1.
     -623    1    1    2    0    0 -0.41110588539E-03 -0.80179602678E-03  0.28034494106E-03  0.17130000000E+03  0.17130000000E+03 0.  1.
      622    1    1    2    0    0  0.88580730203E-02  0.13874099247E-01  0.33241606772E+01  0.33242615968E+01  0.20000000000E-01 0. -1.
</event>
<event>
 5   0  0.3603037E+08  0.9118800E+02  0.7818608E-02  0.1180000E+00
       11   -1    0    0    0    0  0.00000000000E+00  0.00000000000E+00  0.39999999673E+01  0.40000000000E+01  0.51109989000E-03 0. -1.
     -623   -1    0    0    0    0  0.00000000000E+00  0.00000000000E+00  0.12525980253E-10  0.17130000000E+03  0.17130000000E+03 0. -1.
       11    1    1    2    0    0  0.45461256389E-02  0.13333006588E-01  0.59367408696E+00  0.59384140903E+00  0.51109989000E-03 0. -1.
     -623    1    1    2    0    0 -0.13116284580E-02 -0.81716597969E-03  0.25054507585E-03  0.17130000001E+03  0.17130000000E+03 0. -1.
      622    1    1    2    0    0 -0.32344971808E-02 -0.12515840608E-01  0.34060753353E+01  0.34061585838E+01  0.20000000000E-01 0.  0.
</event>
<event>
 5   0  0.3603037E+08  0.9118800E+02  0.7818608E-02  0.1180000E+00
       11   -1    0    0    0    0  0.00000000000E+00  0.00000000000E+00  0.39999999673E+01  0.40000000000E+01  0.51109989000E-03 0.  1.
     -623   -1    0    0    0    0  0.00000000000E+00  0.00000000000E+00  0.12525980253E-10  0.17130000000E+03  0.17130000000E+03 0. -1.
       11    1    1    2    0    0 -0.41294368966E-04 -0.20635419828E-02  0.40261632345E-01  0.40317740153E-01  0.51109989000E-03 0.  1.
     -623    1    1    2    0    0  0.46187607550E-03 -0.10765753147E-04  0.10715091297E-03  0.17130000000E+03  0.17130000000E+03 0. -1.
      622    1    1    2    0    0 -0.42058170654E-03  0.20743077360E-02  0.39596311841E+01  0.39596822592E+01  0.20000000000E-01 0.  1.
</event>
<event>
 5   0  0.3603037E+08  0.9118800E+02  0.7818608E-02  0.1180000E+00
       11   -1    0    0    0    0  0.00000000000E+00  0.00000000000E+00  0.39999999673E+01  0.40000000000E+01  0.51109989000E-03 0.  1.
     -623   -1    0    0    0    0  0.00000000000E+00  0.00000000000E+00  0.12525980253E-10  0.17130000000E+03  0.17130000000E+03 0.  1.
       11    1    1    2    0    0 -0.23858167976E-02 -0.73799401941E-03  0.69739687746E-01  0.69786259563E-01  0.51109989000E-03 0.  1.
     -623    1    1    2    0    0  0.73756952698E-04  0.16030888158E-03  0.98149975682E-04  0.17130000000E+03  0.17130000000E+03 0.  1.
      622    1    1    2    0    0  0.23120598449E-02  0.57768513782E-03  0.39301621296E+01  0.39302137403E+01  0.20000000000E-01 0.  1.
</event>
<event>
 5   0  0.3603037E+08  0.9118800E+02  0.7818608E-02  0.1180000E+00
       11   -1    0    0    0    0  0.00000000000E+00  0.00000000000E+00  0.39999999673E+01  0.40000000000E+01  0.51109989000E-03 0. -1.
     -623   -1    0    0    0    0  0.00000000000E+00  0.00000000000E+00  0.12525980253E-10  0.17130000000E+03  0.17130000000E+03 0. -1.
       11    1    1    2    0    0  0.69602728507E-03 -0.67814563136E-03  0.21834708539E-01  0.21862297544E-01  0.51109989000E-03 0. -1.
     -623    1    1    2    0    0  0.63266165691E-04 -0.46948496260E-03  0.78070138300E-04  0.17130000000E+03  0.17130000000E+03 0. -1.
      622    1    1    2    0    0 -0.75929345076E-03  0.11476305940E-02  0.39780871887E+01  0.39781377018E+01  0.20000000000E-01 0. -1.
</event>
<event>
 5   0  0.3603037E+08  0.9118800E+02  0.7818608E-02  0.1180000E+00
       11   -1    0    0    0    0  0.00000000000E+00  0.00000000000E+00  0.39999999673E+01  0.40000000000E+01  0.51109989000E-03 0.  1.
     -623   -1    0    0    0    0  0.00000000000E+00  0.00000000000E+00  0.12525980253E-10  0.17130000000E+03  0.17130000000E+03 0. -1.
       11    1    1    2    0    0 -0.41594032324E-04 -0.71282012276E-03  0.18988062715E-01  0.19008355786E-01  0.51109989000E-03 0.  1.
     -623    1    1    2    0    0 -0.78697358077E-03  0.53752143256E-03  0.70592238384E-04  0.17130000000E+03  0.17130000000E+03 0. -1.
      622    1    1    2    0    0  0.82856761310E-03  0.17529869020E-03  0.39809413124E+01  0.39809916415E+01  0.20000000000E-01 0.  1.
</event>
<event>
 5   0  0.3603037E+08  0.9118800E+02  0.7818608E-02  0.1180000E+00
       11   -1    0    0    0    0  0.00000000000E+00  0.00000000000E+00  0.39999999673E+01  0.40000000000E+01  0.51109989000E-03 0.  1.
     -623   -1    0    0    0    0  0.00000000000E+00  0.00000000000E+00  0.12525980253E-10  0.17130000000E+03  0.17130000000E+03 0.  1.
       11    1    1    2    0    0  0.37201883938E-02  0.19303036457E-02  0.13529358711E+01  0.13529424594E+01  0.51109989000E-03 0.  1.
     -623    1    1    2    0    0  0.26781539300E-03 -0.15436957802E-03  0.85712588154E-04  0.17130000000E+03  0.17130000000E+03 0.  1.
      622    1    1    2    0    0 -0.39880037868E-02 -0.17759340677E-02  0.26469783837E+01  0.26470575403E+01  0.20000000000E-01 0.  1.
</event>
<event>
 5   0  0.3603037E+08  0.9118800E+02  0.7818608E-02  0.1180000E+00
       11   -1    0    0    0    0  0.00000000000E+00  0.00000000000E+00  0.39999999673E+01  0.40000000000E+01  0.51109989000E-03 0. -1.
     -623   -1    0    0    0    0  0.00000000000E+00  0.00000000000E+00  0.12525980253E-10  0.17130000000E+03  0.17130000000E+03 0.  1.
       11    1    1    2    0    0 -0.33746067253E-02  0.72317101094E-03  0.33966178390E+00  0.33967970150E+00  0.51109989000E-03 0. -1.
     -623    1    1    2    0    0  0.37687285970E-02  0.37587804796E-02  0.75373375182E-04  0.17130000008E+03  0.17130000000E+03 0.  1.
      622    1    1    2    0    0 -0.39412187167E-03 -0.44819514905E-02  0.36602628101E+01  0.36603202158E+01  0.20000000000E-01 0. -1.
</event>
<event>
 5   0  0.3603037E+08  0.9118800E+02  0.7818608E-02  0.1180000E+00
       11   -1    0    0    0    0  0.00000000000E+00  0.00000000000E+00  0.39999999673E+01  0.40000000000E+01  0.51109989000E-03 0. -1.
     -623   -1    0    0    0    0  0.00000000000E+00  0.00000000000E+00  0.12525980253E-10  0.17130000000E+03  0.17130000000E+03 0. -1.
       11    1    1    2    0    0  0.22342226721E-02 -0.64448721309E-03  0.63284228756E-01  0.63328997667E-01  0.51109989000E-03 0. -1.
     -623    1    1    2    0    0 -0.80251169040E-03 -0.59247098749E-03  0.95998564571E-04  0.17130000000E+03  0.17130000000E+03 0. -1.
      622    1    1    2    0    0 -0.14317109817E-02  0.12369582006E-02  0.39366197400E+01  0.39366709994E+01  0.20000000000E-01 0. -1.
</event>
<event>
 5   0  0.3603037E+08  0.9118800E+02  0.7818608E-02  0.1180000E+00
       11   -1    0    0    0    0  0.00000000000E+00  0.00000000000E+00  0.39999999673E+01  0.40000000000E+01  0.51109989000E-03 0. -1.
     -623   -1    0    0    0    0  0.00000000000E+00  0.00000000000E+00  0.12525980253E-10  0.17130000000E+03  0.17130000000E+03 0.  1.
       11    1    1    2    0    0 -0.26810559715E-02  0.81195815409E-02  0.67932557165E+00  0.67937957667E+00  0.51109989000E-03 0. -1.
     -623    1    1    2    0    0 -0.45197058668E-02 -0.55243752040E-02  0.12317310476E-03  0.17130000015E+03  0.17130000000E+03 0.  1.
      622    1    1    2    0    0  0.72007618383E-02 -0.25952063369E-02  0.33205512226E+01  0.33206202746E+01  0.20000000000E-01 0. -1.
</event>
<event>
 5   0  0.3603037E+08  0.9118800E+02  0.7818608E-02  0.1180000E+00
       11   -1    0    0    0    0  0.00000000000E+00  0.00000000000E+00  0.39999999673E+01  0.40000000000E+01  0.51109989000E-03 0.  1.
     -623   -1    0    0    0    0  0.00000000000E+00  0.00000000000E+00  0.12525980253E-10  0.17130000000E+03  0.17130000000E+03 0.  1.
       11    1    1    2    0    0  0.71269040272E-02  0.90364420917E-02  0.25304112737E+01  0.25304374968E+01  0.51109989000E-03 0.  1.
     -623    1    1    2    0    0 -0.11110982517E-03 -0.38862456621E-03  0.20448833393E-03  0.17130000000E+03  0.17130000000E+03 0.  1.
      622    1    1    2    0    0 -0.70157942020E-02 -0.86478175255E-02  0.14693842053E+01  0.14695625026E+01  0.20000000000E-01 0.  1.
</event>
<event>
 5   0  0.3603037E+08  0.9118800E+02  0.7818608E-02  0.1180000E+00
       11   -1    0    0    0    0  0.00000000000E+00  0.00000000000E+00  0.39999999673E+01  0.40000000000E+01  0.51109989000E-03 0.  1.
     -623   -1    0    0    0    0  0.00000000000E+00  0.00000000000E+00  0.12525980253E-10  0.17130000000E+03  0.17130000000E+03 0. -1.
       11    1    1    2    0    0  0.85048283971E-03 -0.19188515671E-03  0.14938242811E-01  0.14972389984E-01  0.51109989000E-03 0.  1.
     -623    1    1    2    0    0 -0.34303120206E-03  0.11103357393E-03  0.84336237217E-04  0.17130000000E+03  0.17130000000E+03 0. -1.
      622    1    1    2    0    0 -0.50745163765E-03  0.80851582779E-04  0.39849773883E+01  0.39850276096E+01  0.20000000000E-01 0.  1.
</event>
<event>
 5   0  0.3603037E+08  0.9118800E+02  0.7818608E-02  0.1180000E+00
       11   -1    0    0    0    0  0.00000000000E+00  0.00000000000E+00  0.39999999673E+01  0.40000000000E+01  0.51109989000E-03 0. -1.
     -623   -1    0    0    0    0  0.00000000000E+00  0.00000000000E+00  0.12525980253E-10  0.17130000000E+03  0.17130000000E+03 0. -1.
       11    1    1    2    0    0  0.62119933027E-01  0.21522758643E-01  0.10387440530E+01  0.10408225517E+01  0.51109989000E-03 0. -1.
     -623    1    1    2    0    0 -0.14445106526E-01  0.11568094033E-01  0.27162013797E-02  0.17130000102E+03  0.17130000000E+03 0. -1.
      622    1    1    2    0    0 -0.47674826501E-01 -0.33090852676E-01  0.29585397130E+01  0.29591764271E+01  0.20000000000E-01 0. -1.
</event>
<event>
 5   0  0.3603037E+08  0.9118800E+02  0.7818608E-02  0.1180000E+00
       11   -1    0    0    0    0  0.00000000000E+00  0.00000000000E+00  0.39999999673E+01  0.40000000000E+01  0.51109989000E-03 0. -1.
     -623   -1    0    0    0    0  0.00000000000E+00  0.00000000000E+00  0.12525980253E-10  0.17130000000E+03  0.17130000000E+03 0. -1.
       11    1    1    2    0    0  0.10748639301E-02  0.17352997343E-02  0.15776669377E-01  0.15916378836E-01  0.51109989000E-03 0. -1.
     -623    1    1    2    0    0 -0.20367845750E-02 -0.67562856067E-03  0.19014748227E-03  0.17130000001E+03  0.17130000000E+03 0. -1.
      622    1    1    2    0    0  0.96192064495E-03 -0.10596711737E-02  0.39840331505E+01  0.39840836076E+01  0.20000000000E-01 0. -1.
</event>
<event>
 5   0  0.3603037E+08  0.9118800E+02  0.7818608E-02  0.1180000E+00
       11   -1    0    0    0    0  0.00000000000E+00  0.00000000000E+00  0.39999999673E+01  0.40000000000E+01  0.51109989000E-03 0. -1.
     -623   -1    0    0    0    0  0.00000000000E+00  0.00000000000E+00  0.12525980253E-10  0.17130000000E+03  0.17130000000E+03 0.  1.
       11    1    1    2    0    0 -0.67048528230E-03 -0.86180122460E-02  0.10115990716E+01  0.10116361315E+01  0.51109989000E-03 0. -1.
     -623    1    1    2    0    0  0.94801269831E-02 -0.80216496179E-02  0.16371783603E-03  0.17130000045E+03  0.17130000000E+03 0.  1.
      622    1    1    2    0    0 -0.88096417008E-02  0.16639661864E-01  0.29882371780E+01  0.29883634183E+01  0.20000000000E-01 0.  0.
</event>
<event>
 5   0  0.3603037E+08  0.9118800E+02  0.7818608E-02  0.1180000E+00
       11   -1    0    0    0    0  0.00000000000E+00  0.00000000000E+00  0.39999999673E+01  0.40000000000E+01  0.51109989000E-03 0.  1.
     -623   -1    0    0    0    0  0.00000000000E+00  0.00000000000E+00  0.12525980253E-10  0.17130000000E+03  0.17130000000E+03 0.  1.
       11    1    1    2    0    0  0.14443561239E-01  0.50215774281E-02  0.10459682856E+01  0.10460801826E+01  0.51109989000E-03 0.  1.
     -623    1    1    2    0    0  0.59164149381E-02  0.75969655359E-02  0.27696423847E-03  0.17130000027E+03  0.17130000000E+03 0.  1.
      622    1    1    2    0    0 -0.20359976177E-01 -0.12618542964E-01  0.29537547175E+01  0.29539195465E+01  0.20000000000E-01 0.  1.
</event>
<event>
 5   0  0.3603037E+08  0.9118800E+02  0.7818608E-02  0.1180000E+00
       11   -1    0    0    0    0  0.00000000000E+00  0.00000000000E+00  0.39999999673E+01  0.40000000000E+01  0.51109989000E-03 0.  1.
     -623   -1    0    0    0    0  0.00000000000E+00  0.00000000000E+00  0.12525980253E-10  0.17130000000E+03  0.17130000000E+03 0. -1.
       11    1    1    2    0    0 -0.77189940377E-02  0.54853691604E-02  0.21823314280E+00  0.21843909444E+00  0.51109989000E-03 0.  1.
     -623    1    1    2    0    0  0.36791750060E-02 -0.90071487265E-03  0.26378674884E-03  0.17130000004E+03  0.17130000000E+03 0. -1.
      622    1    1    2    0    0  0.40398190317E-02 -0.45846542878E-02  0.37815030378E+01  0.37815608635E+01  0.20000000000E-01 0.  1.
</event>
<event>
 5   0  0.3603037E+08  0.9118800E+02  0.7818608E-02  0.1180000E+00
       11   -1    0    0    0    0  0.00000000000E+00  0.00000000000E+00  0.39999999673E+01  0.40000000000E+01  0.51109989000E-03 0.  1.
     -623   -1    0    0    0    0  0.00000000000E+00  0.00000000000E+00  0.12525980253E-10  0.17130000000E+03  0.17130000000E+03 0. -1.
       11    1    1    2    0    0 -0.66274284394E-03 -0.59491476830E-03  0.84179218274E-02  0.84803173039E-02  0.51109989000E-03 0.  1.
     -623    1    1    2    0    0  0.48981893210E-04  0.21627367725E-03  0.11253470870E-03  0.17130000000E+03  0.17130000000E+03 0. -1.
      622    1    1    2    0    0  0.61376095073E-03  0.37864109105E-03  0.39914695108E+01  0.39915196825E+01  0.20000000000E-01 0.  1.
</event>
<event>
 5   0  0.3603037E+08  0.9118800E+02  0.7818608E-02  0.1180000E+00
       11   -1    0    0    0    0  0.00000000000E+00  0.00000000000E+00  0.39999999673E+01  0.40000000000E+01  0.51109989000E-03 0.  1.
     -623   -1    0    0    0    0  0.00000000000E+00  0.00000000000E+00  0.12525980253E-10  0.17130000000E+03  0.17130000000E+03 0.  1.
       11    1    1    2    0    0  0.21322234024E-02 -0.60199894717E-02  0.16377162238E+01  0.16377287558E+01  0.51109989000E-03 0.  1.
     -623    1    1    2    0    0  0.29381528147E-05 -0.13274594898E-03  0.10614318474E-03  0.17130000000E+03  0.17130000000E+03 0.  1.
      622    1    1    2    0    0 -0.21351615552E-02  0.61527354206E-02  0.23621776004E+01  0.23622712441E+01  0.20000000000E-01 0.  1.
</event>
<event>
 5   0  0.3603037E+08  0.9118800E+02  0.7818608E-02  0.1180000E+00
       11   -1    0    0    0    0  0.00000000000E+00  0.00000000000E+00  0.39999999673E+01  0.40000000000E+01  0.51109989000E-03 0. -1.
     -623   -1    0    0    0    0  0.00000000000E+00  0.00000000000E+00  0.12525980253E-10  0.17130000000E+03  0.17130000000E+03 0. -1.
       11    1    1    2    0    0  0.10192669965E-01  0.49946328358E-02  0.23392677770E+00  0.23420255214E+00  0.51109989000E-03 0. -1.
     -623    1    1    2    0    0 -0.15056896822E-01 -0.62128837944E-02  0.33296513325E-03  0.17130000077E+03  0.17130000000E+03 0. -1.
      622    1    1    2    0    0  0.48642268566E-02  0.12182509586E-02  0.37657402245E+01  0.37657966731E+01  0.20000000000E-01 0. -1.
</event>
<event>
 5   0  0.3603037E+08  0.9118800E+02  0.7818608E-02  0.1180000E+00
       11   -1    0    0    0    0  0.00000000000E+00  0.00000000000E+00  0.39999999673E+01  0.40000000000E+01  0.51109989000E-03 0.  1.
     -623   -1    0    0    0    0  0.00000000000E+00  0.00000000000E+00  0.12525980253E-10  0.17130000000E+03  0.17130000000E+03 0. -1.
       11    1    1    2    0    0 -0.43967054534E-02 -0.16912640110E-02  0.11703384404E+01  0.11703480327E+01  0.51109989000E-03 0.  1.
     -623    1    1    2    0    0  0.11862034020E-04 -0.49586780122E-04  0.84173652006E-04  0.17130000000E+03  0.17130000000E+03 0. -1.
      622    1    1    2    0    0  0.43848434194E-02  0.17408507911E-02  0.28295773534E+01  0.28296519673E+01  0.20000000000E-01 0.  1.
</event>
<event>
 5   0  0.3603037E+08  0.9118800E+02  0.7818608E-02  0.1180000E+00
       11   -1    0    0    0    0  0.00000000000E+00  0.00000000000E+00  0.39999999673E+01  0.40000000000E+01  0.51109989000E-03 0. -1.
     -623   -1    0    0    0    0  0.00000000000E+00  0.00000000000E+00  0.12525980253E-10  0.17130000000E+03  0.17130000000E+03 0. -1.
       11    1    1    2    0    0 -0.85430391400E-02  0.39741676085E-02  0.40874431148E+00  0.40885321439E+00  0.51109989000E-03 0. -1.
     -623    1    1    2    0    0  0.28595561448E-03 -0.94262289742E-04  0.17615241842E-03  0.17130000000E+03  0.17130000000E+03 0. -1.
      622    1    1    2    0    0  0.82570835255E-02 -0.38799053188E-02  0.35910795035E+01  0.35911467853E+01  0.20000000000E-01 0. -1.
</event>
<event>
 5   0  0.3603037E+08  0.9118800E+02  0.7818608E-02  0.1180000E+00
       11   -1    0    0    0    0  0.00000000000E+00  0.00000000000E+00  0.39999999673E+01  0.40000000000E+01  0.51109989000E-03 0.  1.
     -623   -1    0    0    0    0  0.00000000000E+00  0.00000000000E+00  0.12525980253E-10  0.17130000000E+03  0.17130000000E+03 0. -1.
       11    1    1    2    0    0 -0.59957602135E-03 -0.25640121707E-03  0.12217974413E+00  0.12218255330E+00  0.51109989000E-03 0.  1.
     -623    1    1    2    0    0 -0.48493170192E-03  0.83018256091E-03  0.54549081338E-04  0.17130000000E+03  0.17130000000E+03 0. -1.
      622    1    1    2    0    0  0.10845077233E-02 -0.57378134384E-03  0.38777656741E+01  0.38778174440E+01  0.20000000000E-01 0.  1.
</event>
<event>
 5   0  0.3603037E+08  0.9118800E+02  0.7818608E-02  0.1180000E+00
       11   -1    0    0    0    0  0.00000000000E+00  0.00000000000E+00  0.39999999673E+01  0.40000000000E+01  0.51109989000E-03 0.  1.
     -623   -1    0    0    0    0  0.00000000000E+00  0.00000000000E+00  0.12525980253E-10  0.17130000000E+03  0.17130000000E+03 0. -1.
       11    1    1    2    0    0 -0.90640036069E-02 -0.15185984936E-02  0.14579818933E+00  0.14608845107E+00  0.51109989000E-03 0.  1.
     -623    1    1    2    0    0 -0.10671379791E-02  0.91540399175E-03  0.35549467162E-03  0.17130000001E+03  0.17130000000E+03 0. -1.
      622    1    1    2    0    0  0.10131141586E-01  0.60319450186E-03  0.38538462834E+01  0.38539115428E+01  0.20000000000E-01 0.  1.
</event>
<event>
 5   0  0.3603037E+08  0.9118800E+02  0.7818608E-02  0.1180000E+00
       11   -1    0    0    0    0  0.00000000000E+00  0.00000000000E+00  0.39999999673E+01  0.40000000000E+01  0.51109989000E-03 0. -1.
     -623   -1    0    0    0    0  0.00000000000E+00  0.00000000000E+00  0.12525980253E-10  0.17130000000E+03  0.17130000000E+03 0.  1.
       11    1    1    2    0    0  0.36329573505E-02 -0.91970763588E-03  0.11102212582E+00  0.11108653332E+00  0.51109989000E-03 0. -1.
     -623    1    1    2    0    0 -0.29998849972E-02  0.19064287554E-02  0.11601707501E-03  0.17130000004E+03  0.17130000000E+03 0.  1.
      622    1    1    2    0    0 -0.63307235330E-03 -0.98672111954E-03  0.38888618245E+01  0.38889134298E+01  0.20000000000E-01 0. -1.
</event>
<event>
 5   0  0.3603037E+08  0.9118800E+02  0.7818608E-02  0.1180000E+00
       11   -1    0    0    0    0  0.00000000000E+00  0.00000000000E+00  0.39999999673E+01  0.40000000000E+01  0.51109989000E-03 0.  1.
     -623   -1    0    0    0    0  0.00000000000E+00  0.00000000000E+00  0.12525980253E-10  0.17130000000E+03  0.17130000000E+03 0. -1.
       11    1    1    2    0    0 -0.96802807685E-02 -0.39448931944E-02  0.19202452712E+00  0.19230951681E+00  0.51109989000E-03 0.  1.
     -623    1    1    2    0    0 -0.10102342113E-02  0.18199246998E-02  0.35309629403E-03  0.17130000001E+03  0.17130000000E+03 0. -1.
      622    1    1    2    0    0  0.10690514980E-01  0.21249684946E-02  0.38076223439E+01  0.38076904702E+01  0.20000000000E-01 0.  1.
</event>
<event>
 5   0  0.3603037E+08  0.9118800E+02  0.7818608E-02  0.1180000E+00
       11   -1    0    0    0    0  0.00000000000E+00  0.00000000000E+00  0.39999999673E+01  0.40000000000E+01  0.51109989000E-03 0.  1.
     -623   -1    0    0    0    0  0.00000000000E+00  0.00000000000E+00  0.12525980253E-10  0.17130000000E+03  0.17130000000E+03 0. -1.
       11    1    1    2    0    0 -0.52495910994E-02 -0.94846606230E-02  0.74811504768E+00  0.74819376019E+00  0.51109989000E-03 0.  1.
     -623    1    1    2    0    0 -0.16496158996E-01  0.95205246766E-02  0.21395614173E-03  0.17130000106E+03  0.17130000000E+03 0. -1.
      622    1    1    2    0    0  0.21745750096E-01 -0.35864053587E-04  0.32516709635E+01  0.32518051808E+01  0.20000000000E-01 0.  0.
</event>
<event>
 5   0  0.3603037E+08  0.9118800E+02  0.7818608E-02  0.1180000E+00
       11   -1    0    0    0    0  0.00000000000E+00  0.00000000000E+00  0.39999999673E+01  0.40000000000E+01  0.51109989000E-03 0.  1.
     -623   -1    0    0    0    0  0.00000000000E+00  0.00000000000E+00  0.12525980253E-10  0.17130000000E+03  0.17130000000E+03 0.  1.
       11    1    1    2    0    0 -0.66161661044E-03 -0.19729538244E-02  0.17860657948E+00  0.17861943270E+00  0.51109989000E-03 0.  1.
     -623    1    1    2    0    0 -0.18296081194E-02  0.76122877077E-03  0.66173684365E-04  0.17130000001E+03  0.17130000000E+03 0.  1.
      622    1    1    2    0    0  0.24912247298E-02  0.12117250536E-02  0.38213272142E+01  0.38213805558E+01  0.20000000000E-01 0.  1.
</event>
<event>
 5   0  0.3603037E+08  0.9118800E+02  0.7818608E-02  0.1180000E+00
       11   -1    0    0    0    0  0.00000000000E+00  0.00000000000E+00  0.39999999673E+01  0.40000000000E+01  0.51109989000E-03 0.  1.
     -623   -1    0    0    0    0  0.00000000000E+00  0.00000000000E+00  0.12525980253E-10  0.17130000000E+03  0.17130000000E+03 0. -1.
       11    1    1    2    0    0 -0.32514000797E-02 -0.30662876037E-03  0.13225182029E-01  0.13632031531E-01  0.51109989000E-03 0.  1.
     -623    1    1    2    0    0 -0.55010963397E-03 -0.16759125674E-02  0.45930348825E-03  0.17130000001E+03  0.17130000000E+03 0. -1.
      622    1    1    2    0    0  0.38015097137E-02  0.19825413277E-02  0.39863154818E+01  0.39863679588E+01  0.20000000000E-01 0.  1.
</event>
<event>
 5   0  0.3603037E+08  0.9118800E+02  0.7818608E-02  0.1180000E+00
       11   -1    0    0    0    0  0.00000000000E+00  0.00000000000E+00  0.39999999673E+01  0.40000000000E+01  0.51109989000E-03 0.  1.
     -623   -1    0    0    0    0  0.00000000000E+00  0.00000000000E+00  0.12525980253E-10  0.17130000000E+03  0.17130000000E+03 0.  1.
       11    1    1    2    0    0  0.14204526189E-02 -0.63599720738E-03  0.63060674900E-02  0.65153577825E-02  0.51109989000E-03 0.  1.
     -623    1    1    2    0    0 -0.31880572705E-03  0.68264964792E-03  0.25949362004E-03  0.17130000000E+03  0.17130000000E+03 0.  1.
      622    1    1    2    0    0 -0.11016468919E-02 -0.46652440544E-04  0.39934344062E+01  0.39934846404E+01  0.20000000000E-01 0.  1.
</event>
<event>
 5   0  0.3603037E+08  0.9118800E+02  0.7818608E-02  0.1180000E+00
       11   -1    0    0    0    0  0.00000000000E+00  0.00000000000E+00  0.39999999673E+01  0.40000000000E+01  0.51109989000E-03 0.  1.
     -623   -1    0    0    0    0  0.00000000000E+00  0.00000000000E+00  0.12525980253E-10  0.17130000000E+03  0.17130000000E+03 0. -1.
       11    1    1    2    0    0  0.12466198237E-01 -0.12690133974E-01  0.61061188246E+00  0.61087116303E+00  0.51109989000E-03 0.  1.
     -623    1    1    2    0    0 -0.24497999968E-01  0.49814591300E-02  0.35020986487E-03  0.17130000182E+03  0.17130000000E+03 0. -1.
      622    1    1    2    0    0  0.12031801732E-01  0.77086748443E-02  0.33890378750E+01  0.33891270124E+01  0.20000000000E-01 0.  1.
</event>
<event>
 5   0  0.3603037E+08  0.9118800E+02  0.7818608E-02  0.1180000E+00
       11   -1    0    0    0    0  0.00000000000E+00  0.00000000000E+00  0.39999999673E+01  0.40000000000E+01  0.51109989000E-03 0. -1.
     -623   -1    0    0    0    0  0.00000000000E+00  0.00000000000E+00  0.12525980253E-10  0.17130000000E+03  0.17130000000E+03 0. -1.
       11    1    1    2    0    0  0.91222798021E-04  0.48669260713E-02  0.45515663933E-01  0.45778075263E-01  0.51109989000E-03 0. -1.
     -623    1    1    2    0    0  0.80942903812E-03 -0.23900312294E-02  0.31385507352E-03  0.17130000002E+03  0.17130000000E+03 0. -1.
      622    1    1    2    0    0 -0.90065183614E-03 -0.24768948419E-02  0.39541704484E+01  0.39542219059E+01  0.20000000000E-01 0. -1.
</event>
<event>
 5   0  0.3603037E+08  0.9118800E+02  0.7818608E-02  0.1180000E+00
       11   -1    0    0    0    0  0.00000000000E+00  0.00000000000E+00  0.39999999673E+01  0.40000000000E+01  0.51109989000E-03 0.  1.
     -623   -1    0    0    0    0  0.00000000000E+00  0.00000000000E+00  0.12525980253E-10  0.17130000000E+03  0.17130000000E+03 0. -1.
       11    1    1    2    0    0 -0.51148330258E-02  0.24561893253E-02  0.35377241243E-01  0.35833012731E-01  0.51109989000E-03 0.  1.
     -623    1    1    2    0    0 -0.28092100290E-02 -0.17466371196E-03  0.51479145155E-03  0.17130000002E+03  0.17130000000E+03 0. -1.
      622    1    1    2    0    0  0.79240430548E-02 -0.22815256134E-02  0.39641079347E+01  0.39641669634E+01  0.20000000000E-01 0.  1.
</event>
<event>
 5   0  0.3603037E+08  0.9118800E+02  0.7818608E-02  0.1180000E+00
       11   -1    0    0    0    0  0.00000000000E+00  0.00000000000E+00  0.39999999673E+01  0.40000000000E+01  0.51109989000E-03 0. -1.
     -623   -1    0    0    0    0  0.00000000000E+00  0.00000000000E+00  0.12525980253E-10  0.17130000000E+03  0.17130000000E+03 0.  1.
       11    1    1    2    0    0 -0.52364587023E-03  0.99950801837E-03  0.10782564503E-01  0.10853485095E-01  0.51109989000E-03 0. -1.
     -623    1    1    2    0    0 -0.11532715982E-03 -0.11914865349E-02  0.12108432553E-03  0.17130000000E+03  0.17130000000E+03 0.  1.
      622    1    1    2    0    0  0.63897303005E-03  0.19197851648E-03  0.39890963185E+01  0.39891465107E+01  0.20000000000E-01 0. -1.
</event>
<event>
 5   0  0.3603037E+08  0.9118800E+02  0.7818608E-02  0.1180000E+00
       11   -1    0    0    0    0  0.00000000000E+00  0.00000000000E+00  0.39999999673E+01  0.40000000000E+01  0.51109989000E-03 0. -1.
     -623   -1    0    0    0    0  0.00000000000E+00  0.00000000000E+00  0.12525980253E-10  0.17130000000E+03  0.17130000000E+03 0.  1.
       11    1    1    2    0    0 -0.13416818507E-02 -0.39107378830E-02  0.40980268324E+00  0.40982385777E+00  0.51109989000E-03 0. -1.
     -623    1    1    2    0    0  0.39586489983E-04 -0.46645314111E-03  0.79755082614E-04  0.17130000000E+03  0.17130000000E+03 0.  1.
      622    1    1    2    0    0  0.13020953607E-02  0.43771910241E-02  0.35901175290E+01  0.35901761416E+01  0.20000000000E-01 0. -1.
</event>
<event>
 5   0  0.3603037E+08  0.9118800E+02  0.7818608E-02  0.1180000E+00
       11   -1    0    0    0    0  0.00000000000E+00  0.00000000000E+00  0.39999999673E+01  0.40000000000E+01  0.51109989000E-03 0. -1.
     -623   -1    0    0    0    0  0.00000000000E+00  0.00000000000E+00  0.12525980253E-10  0.17130000000E+03  0.17130000000E+03 0.  1.
       11    1    1    2    0    0 -0.45967226703E-02 -0.17667297998E-02  0.66608382476E-01  0.66792133010E-01  0.51109989000E-03 0. -1.
     -623    1    1    2    0    0  0.28804515662E-03 -0.31548054149E-03  0.23747918644E-03  0.17130000000E+03  0.17130000000E+03 0.  1.
      622    1    1    2    0    0  0.43086775137E-02  0.20822103413E-02  0.39331541057E+01  0.39332078663E+01  0.20000000000E-01 0. -1.
</event>
<event>
 5   0  0.3603037E+08  0.9118800E+02  0.7818608E-02  0.1180000E+00
       11   -1    0    0    0    0  0.00000000000E+00  0.00000000000E+00  0.39999999673E+01  0.40000000000E+01  0.51109989000E-03 0. -1.
     -623   -1    0    0    0    0  0.00000000000E+00  0.00000000000E+00  0.12525980253E-10  0.17130000000E+03  0.17130000000E+03 0. -1.
       11    1    1    2    0    0 -0.48238572865E-02 -0.43725189146E-02  0.51900976716E-01  0.52310239199E-01  0.51109989000E-03 0. -1.
     -623    1    1    2    0    0  0.55152061467E-02  0.46998700430E-02  0.46012069931E-03  0.17130000015E+03  0.17130000000E+03 0. -1.
      622    1    1    2    0    0 -0.69134886018E-03 -0.32735112839E-03  0.39476388699E+01  0.39476896069E+01  0.20000000000E-01 0. -1.
</event>
<event>
 5   0  0.3603037E+08  0.9118800E+02  0.7818608E-02  0.1180000E+00
       11   -1    0    0    0    0  0.00000000000E+00  0.00000000000E+00  0.39999999673E+01  0.40000000000E+01  0.51109989000E-03 0. -1.
     -623   -1    0    0    0    0  0.00000000000E+00  0.00000000000E+00  0.12525980253E-10  0.17130000000E+03  0.17130000000E+03 0. -1.
       11    1    1    2    0    0 -0.55504436815E-03 -0.10773400760E-02  0.49721237711E-01  0.49738631226E-01  0.51109989000E-03 0. -1.
     -623    1    1    2    0    0 -0.11169472402E-03 -0.19678080857E-03  0.68252672056E-04  0.17130000000E+03  0.17130000000E+03 0. -1.
      622    1    1    2    0    0  0.66673909217E-03  0.12741208845E-02  0.39502104770E+01  0.39502613686E+01  0.20000000000E-01 0. -1.
</event>
<event>
 5   0  0.3603037E+08  0.9118800E+02  0.7818608E-02  0.1180000E+00
       11   -1    0    0    0    0  0.00000000000E+00  0.00000000000E+00  0.39999999673E+01  0.40000000000E+01  0.51109989000E-03 0. -1.
     -623   -1    0    0    0    0  0.00000000000E+00  0.00000000000E+00  0.12525980253E-10  0.17130000000E+03  0.17130000000E+03 0. -1.
       11    1    1    2    0    0 -0.84049851501E-03 -0.12224800388E-02  0.17760498222E-01  0.17829677857E-01  0.51109989000E-03 0. -1.
     -623    1    1    2    0    0 -0.74257110023E-03  0.53058825774E-03  0.11974843243E-03  0.17130000000E+03  0.17130000000E+03 0. -1.
      622    1    1    2    0    0  0.15830696152E-02  0.69189178103E-03  0.39821197207E+01  0.39821703197E+01  0.20000000000E-01 0. -1.
</event>
<event>
 5   0  0.3603037E+08  0.9118800E+02  0.7818608E-02  0.1180000E+00
       11   -1    0    0    0    0  0.00000000000E+00  0.00000000000E+00  0.39999999673E+01  0.40000000000E+01  0.51109989000E-03 0.  1.
     -623   -1    0    0    0    0  0.00000000000E+00  0.00000000000E+00  0.12525980253E-10  0.17130000000E+03  0.17130000000E+03 0. -1.
       11    1    1    2    0    0 -0.29795626904E-02 -0.12047960778E-01  0.12665506358E+01  0.12666115448E+01  0.51109989000E-03 0.  1.
     -623    1    1    2    0    0 -0.10098774472E-01  0.16994328323E-01  0.17095178792E-03  0.17130000114E+03  0.17130000000E+03 0. -1.
      622    1    1    2    0    0  0.13078337163E-01 -0.49463675452E-02  0.27332783798E+01  0.27333873145E+01  0.20000000000E-01 0.  1.
</event>
<event>
 5   0  0.3603037E+08  0.9118800E+02  0.7818608E-02  0.1180000E+00
       11   -1    0    0    0    0  0.00000000000E+00  0.00000000000E+00  0.39999999673E+01  0.40000000000E+01  0.51109989000E-03 0.  1.
     -623   -1    0    0    0    0  0.00000000000E+00  0.00000000000E+00  0.12525980253E-10  0.17130000000E+03  0.17130000000E+03 0. -1.
       11    1    1    2    0    0  0.15736433609E-02 -0.14329843941E-01  0.96382873235E+00  0.96393667184E+00  0.51109989000E-03 0.  1.
     -623    1    1    2    0    0  0.51447216318E-02 -0.34956028451E-02  0.23365939924E-03  0.17130000011E+03  0.17130000000E+03 0. -1.
      622    1    1    2    0    0 -0.67183649927E-02  0.17825446786E-01  0.30359375756E+01  0.30360632151E+01  0.20000000000E-01 0.  1.
</event>
<event>
 5   0  0.3603037E+08  0.9118800E+02  0.7818608E-02  0.1180000E+00
       11   -1    0    0    0    0  0.00000000000E+00  0.00000000000E+00  0.39999999673E+01  0.40000000000E+01  0.51109989000E-03 0.  1.
     -623   -1    0    0    0    0  0.00000000000E+00  0.00000000000E+00  0.12525980253E-10  0.17130000000E+03  0.17130000000E+03 0. -1.
       11    1    1    2    0    0  0.74160731552E-03 -0.12288771721E-05  0.40521538958E-01  0.40531547255E-01  0.51109989000E-03 0.  1.
     -623    1    1    2    0    0 -0.12666027740E-02 -0.99254825298E-03  0.60654898981E-04  0.17130000001E+03  0.17130000000E+03 0. -1.
      622    1    1    2    0    0  0.52499545846E-03  0.99377713015E-03  0.39594177735E+01  0.39594684452E+01  0.20000000000E-01 0.  1.
</event>
<event>
 5   0  0.3603037E+08  0.9118800E+02  0.7818608E-02  0.1180000E+00
       11   -1    0    0    0    0  0.00000000000E+00  0.00000000000E+00  0.39999999673E+01  0.40000000000E+01  0.51109989000E-03 0. -1.
     -623   -1    0    0    0    0  0.00000000000E+00  0.00000000000E+00  0.12525980253E-10  0.17130000000E+03  0.17130000000E+03 0.  1.
       11    1    1    2    0    0 -0.20689972501E-02 -0.55688638474E-02  0.25541602945E-01  0.26228375812E-01  0.51109989000E-03 0. -1.
     -623    1    1    2    0    0 -0.22460087537E-03  0.25227130777E-03  0.74129106235E-03  0.17130000000E+03  0.17130000000E+03 0.  1.
      622    1    1    2    0    0  0.22935981255E-02  0.53165925396E-02  0.39737170734E+01  0.39737716223E+01  0.20000000000E-01 0. -1.
</event>
<event>
 5   0  0.3603037E+08  0.9118800E+02  0.7818608E-02  0.1180000E+00
       11   -1    0    0    0    0  0.00000000000E+00  0.00000000000E+00  0.39999999673E+01  0.40000000000E+01  0.51109989000E-03 0. -1.
     -623   -1    0    0    0    0  0.00000000000E+00  0.00000000000E+00  0.12525980253E-10  0.17130000000E+03  0.17130000000E+03 0. -1.
       11    1    1    2    0    0 -0.13685532719E-01  0.73315976053E-02  0.90099576904E+00  0.90112967057E+00  0.51109989000E-03 0. -1.
     -623    1    1    2    0    0  0.82245709091E-02  0.21525438132E-02  0.21794573405E-03  0.17130000021E+03  0.17130000000E+03 0. -1.
      622    1    1    2    0    0  0.54609618097E-02 -0.94841414185E-02  0.30987862526E+01  0.30988701183E+01  0.20000000000E-01 0. -1.
</event>
<event>
 5   0  0.3603037E+08  0.9118800E+02  0.7818608E-02  0.1180000E+00
       11   -1    0    0    0    0  0.00000000000E+00  0.00000000000E+00  0.39999999673E+01  0.40000000000E+01  0.51109989000E-03 0.  1.
     -623   -1    0    0    0    0  0.00000000000E+00  0.00000000000E+00  0.12525980253E-10  0.17130000000E+03  0.17130000000E+03 0. -1.
       11    1    1    2    0    0  0.43112516752E-02 -0.11644961231E-01  0.86501523588E+00  0.86510450903E+00  0.51109989000E-03 0.  1.
     -623    1    1    2    0    0 -0.32038654658E-02  0.10861550509E-01  0.15370700429E-03  0.17130000037E+03  0.17130000000E+03 0. -1.
      622    1    1    2    0    0 -0.11073862095E-02  0.78341072212E-03  0.31348310245E+01  0.31348951166E+01  0.20000000000E-01 0.  1.
</event>
<event>
 5   0  0.3603037E+08  0.9118800E+02  0.7818608E-02  0.1180000E+00
       11   -1    0    0    0    0  0.00000000000E+00  0.00000000000E+00  0.39999999673E+01  0.40000000000E+01  0.51109989000E-03 0. -1.
     -623   -1    0    0    0    0  0.00000000000E+00  0.00000000000E+00  0.12525980253E-10  0.17130000000E+03  0.17130000000E+03 0.  1.
       11    1    1    2    0    0 -0.11578908862E-02  0.13962760991E-02  0.24322402569E-01  0.24395302543E-01  0.51109989000E-03 0. -1.
     -623    1    1    2    0    0 -0.31978565731E-03 -0.85343619982E-03  0.12348861437E-03  0.17130000000E+03  0.17130000000E+03 0.  1.
      622    1    1    2    0    0  0.14776765436E-02 -0.54283989926E-03  0.39755540762E+01  0.39756046950E+01  0.20000000000E-01 0. -1.
</event>
<event>
 5   0  0.3603037E+08  0.9118800E+02  0.7818608E-02  0.1180000E+00
       11   -1    0    0    0    0  0.00000000000E+00  0.00000000000E+00  0.39999999673E+01  0.40000000000E+01  0.51109989000E-03 0. -1.
     -623   -1    0    0    0    0  0.00000000000E+00  0.00000000000E+00  0.12525980253E-10  0.17130000000E+03  0.17130000000E+03 0.  1.
       11    1    1    2    0    0 -0.62640273483E-02 -0.10385656893E-01  0.10535772285E+00  0.10605475422E+00  0.51109989000E-03 0. -1.
     -623    1    1    2    0    0  0.90628186903E-02  0.47519781017E-02  0.75374940754E-03  0.17130000031E+03  0.17130000000E+03 0.  1.
      622    1    1    2    0    0 -0.27987913421E-02  0.56336787914E-02  0.38938884951E+01  0.38939449385E+01  0.20000000000E-01 0. -1.
</event>
<event>
 5   0  0.3603037E+08  0.9118800E+02  0.7818608E-02  0.1180000E+00
       11   -1    0    0    0    0  0.00000000000E+00  0.00000000000E+00  0.39999999673E+01  0.40000000000E+01  0.51109989000E-03 0. -1.
     -623   -1    0    0    0    0  0.00000000000E+00  0.00000000000E+00  0.12525980253E-10  0.17130000000E+03  0.17130000000E+03 0. -1.
       11    1    1    2    0    0  0.24833916896E-02  0.19217686835E-01  0.17832558201E+00  0.17937603279E+00  0.51109989000E-03 0. -1.
     -623    1    1    2    0    0 -0.25959101440E-02 -0.19622355757E-03  0.11501426093E-02  0.17130000002E+03  0.17130000000E+03 0. -1.
      622    1    1    2    0    0  0.11251845443E-03 -0.19021463278E-01  0.38205242427E+01  0.38206239436E+01  0.20000000000E-01 0. -1.
</event>
<event>
 5   0  0.3603037E+08  0.9118800E+02  0.7818608E-02  0.1180000E+00
       11   -1    0    0    0    0  0.00000000000E+00  0.00000000000E+00  0.39999999673E+01  0.40000000000E+01  0.51109989000E-03 0. -1.
     -623   -1    0    0    0    0  0.00000000000E+00  0.00000000000E+00  0.12525980253E-10  0.17130000000E+03  0.17130000000E+03 0. -1.
       11    1    1    2    0    0 -0.21701402132E-01 -0.16233299949E-01  0.20455678857E+01  0.20457474691E+01  0.51109989000E-03 0. -1.
     -623    1    1    2    0    0  0.41343791819E-01  0.37210054081E-01  0.50224465106E-03  0.17130000903E+03  0.17130000000E+03 0. -1.
      622    1    1    2    0    0 -0.19642389687E-01 -0.20976754132E-01  0.19539298370E+01  0.19542434996E+01  0.20000000000E-01 0.  0.
</event>
<event>
 5   0  0.3603037E+08  0.9118800E+02  0.7818608E-02  0.1180000E+00
       11   -1    0    0    0    0  0.00000000000E+00  0.00000000000E+00  0.39999999673E+01  0.40000000000E+01  0.51109989000E-03 0.  1.
     -623   -1    0    0    0    0  0.00000000000E+00  0.00000000000E+00  0.12525980253E-10  0.17130000000E+03  0.17130000000E+03 0. -1.
       11    1    1    2    0    0 -0.50079157880E-03  0.34118966006E-02  0.13445366114E+00  0.13449884775E+00  0.51109989000E-03 0.  1.
     -623    1    1    2    0    0 -0.16197278244E-02 -0.14735530096E-02  0.97975710753E-04  0.17130000001E+03  0.17130000000E+03 0. -1.
      622    1    1    2    0    0  0.21205194032E-02 -0.19383435910E-02  0.38654483305E+01  0.38655011382E+01  0.20000000000E-01 0.  1.
</event>
<event>
 5   0  0.3603037E+08  0.9118800E+02  0.7818608E-02  0.1180000E+00
       11   -1    0    0    0    0  0.00000000000E+00  0.00000000000E+00  0.39999999673E+01  0.40000000000E+01  0.51109989000E-03 0. -1.
     -623   -1    0    0    0    0  0.00000000000E+00  0.00000000000E+00  0.12525980253E-10  0.17130000000E+03  0.17130000000E+03 0.  1.
       11    1    1    2    0    0  0.16269512732E-02 -0.39648283883E-03  0.32101894475E+00  0.32102371918E+00  0.51109989000E-03 0. -1.
     -623    1    1    2    0    0 -0.47665315868E-03 -0.30406830916E-03  0.59352623019E-04  0.17130000000E+03  0.17130000000E+03 0.  1.
      622    1    1    2    0    0 -0.11502981145E-02  0.70055114799E-03  0.36789216700E+01  0.36789762799E+01  0.20000000000E-01 0. -1.
</event>
<event>
 5   0  0.3603037E+08  0.9118800E+02  0.7818608E-02  0.1180000E+00
       11   -1    0    0    0    0  0.00000000000E+00  0.00000000000E+00  0.39999999673E+01  0.40000000000E+01  0.51109989000E-03 0. -1.
     -623   -1    0    0    0    0  0.00000000000E+00  0.00000000000E+00  0.12525980253E-10  0.17130000000E+03  0.17130000000E+03 0.  1.
       11    1    1    2    0    0 -0.24425812576E-02  0.14729289389E-02  0.62617750894E+00  0.62618421383E+00  0.51109989000E-03 0. -1.
     -623    1    1    2    0    0  0.86375992107E-02 -0.13768017376E-02  0.71865286935E-04  0.17130000022E+03  0.17130000000E+03 0.  1.
      622    1    1    2    0    0 -0.61950179531E-02 -0.96127201324E-04  0.33737505931E+01  0.33738155629E+01  0.20000000000E-01 0. -1.
</event>
<event>
 5   0  0.3603037E+08  0.9118800E+02  0.7818608E-02  0.1180000E+00
       11   -1    0    0    0    0  0.00000000000E+00  0.00000000000E+00  0.39999999673E+01  0.40000000000E+01  0.51109989000E-03 0.  1.
     -623   -1    0    0    0    0  0.00000000000E+00  0.00000000000E+00  0.12525980253E-10  0.17130000000E+03  0.17130000000E+03 0. -1.
       11    1    1    2    0    0  0.21589002880E-02 -0.13483472502E-02  0.17881120167E+00  0.17883004768E+00  0.51109989000E-03 0.  1.
     -623    1    1    2    0    0  0.17918464234E-03 -0.63396424577E-03  0.72384514451E-04  0.17130000000E+03  0.17130000000E+03 0. -1.
      622    1    1    2    0    0 -0.23380849303E-02  0.19823114959E-02  0.38211163812E+01  0.38211699510E+01  0.20000000000E-01 0.  1.
</event>
<event>
 5   0  0.3603037E+08  0.9118800E+02  0.7818608E-02  0.1180000E+00
       11   -1    0    0    0    0  0.00000000000E+00  0.00000000000E+00  0.39999999673E+01  0.40000000000E+01  0.51109989000E-03 0. -1.
     -623   -1    0    0    0    0  0.00000000000E+00  0.00000000000E+00  0.12525980253E-10  0.17130000000E+03  0.17130000000E+03 0.  1.
       11    1    1    2    0    0 -0.56104122860E-02  0.14532944619E-01  0.58886314474E+00  0.58906939121E+00  0.51109989000E-03 0. -1.
     -623    1    1    2    0    0 -0.54163203155E-03 -0.27803404570E-04  0.30124118896E-03  0.17130000000E+03  0.17130000000E+03 0.  1.
      622    1    1    2    0    0  0.61520443176E-02 -0.14505141214E-01  0.34108355814E+01  0.34109306077E+01  0.20000000000E-01 0. -1.
</event>
<event>
 5   0  0.3603037E+08  0.9118800E+02  0.7818608E-02  0.1180000E+00
       11   -1    0    0    0    0  0.00000000000E+00  0.00000000000E+00  0.39999999673E+01  0.40000000000E+01  0.51109989000E-03 0.  1.
     -623   -1    0    0    0    0  0.00000000000E+00  0.00000000000E+00  0.12525980253E-10  0.17130000000E+03  0.17130000000E+03 0.  1.
       11    1    1    2    0    0 -0.72789408146E-03 -0.14932764711E-01  0.91198691295E+00  0.91210959205E+00  0.51109989000E-03 0.  1.
     -623    1    1    2    0    0 -0.26642207949E-02 -0.14746218024E-02  0.23289795188E-03  0.17130000003E+03  0.17130000000E+03 0.  1.
      622    1    1    2    0    0  0.33921148763E-02  0.16407386513E-01  0.30877801565E+01  0.30878903807E+01  0.20000000000E-01 0.  1.
</event>
<event>
 5   0  0.3603037E+08  0.9118800E+02  0.7818608E-02  0.1180000E+00
       11   -1    0    0    0    0  0.00000000000E+00  0.00000000000E+00  0.39999999673E+01  0.40000000000E+01  0.51109989000E-03 0.  1.
     -623   -1    0    0    0    0  0.00000000000E+00  0.00000000000E+00  0.12525980253E-10  0.17130000000E+03  0.17130000000E+03 0.  1.
       11    1    1    2    0    0 -0.57138734344E-03 -0.10115666928E-02  0.20488721864E-01  0.20527997849E-01  0.51109989000E-03 0.  1.
     -623    1    1    2    0    0 -0.85567342424E-03  0.68081004811E-03  0.89774724787E-04  0.17130000000E+03  0.17130000000E+03 0.  1.
      622    1    1    2    0    0  0.14270607677E-02  0.33075664469E-03  0.39794214708E+01  0.39794719986E+01  0.20000000000E-01 0.  1.
</event>
<event>
 5   0  0.3603037E+08  0.9118800E+02  0.7818608E-02  0.1180000E+00
       11   -1    0    0    0    0  0.00000000000E+00  0.00000000000E+00  0.39999999673E+01  0.40000000000E+01  0.51109989000E-03 0.  1.
     -623   -1    0    0    0    0  0.00000000000E+00  0.00000000000E+00  0.12525980253E-10  0.17130000000E+03  0.17130000000E+03 0. -1.
       11    1    1    2    0    0  0.48990626987E-02 -0.42662802434E-02  0.22905176178E+00  0.22914443645E+00  0.51109989000E-03 0.  1.
     -623    1    1    2    0    0 -0.57598793623E-02  0.23721922882E-02  0.14636805576E-03  0.17130000011E+03  0.17130000000E+03 0. -1.
      622    1    1    2    0    0  0.86081666360E-03  0.18940879552E-02  0.37708018375E+01  0.37708554502E+01  0.20000000000E-01 0.  1.
</event>
<event>
 5   0  0.3603037E+08  0.9118800E+02  0.7818608E-02  0.1180000E+00
       11   -1    0    0    0    0  0.00000000000E+00  0.00000000000E+00  0.39999999673E+01  0.40000000000E+01  0.51109989000E-03 0.  1.
     -623   -1    0    0    0    0  0.00000000000E+00  0.00000000000E+00  0.12525980253E-10  0.17130000000E+03  0.17130000000E+03 0.  1.
       11    1    1    2    0    0 -0.51314992639E-03 -0.31506093029E-01  0.19717575120E+01  0.19720093419E+01  0.51109989000E-03 0.  1.
     -623    1    1    2    0    0 -0.20149639473E-02 -0.35684672709E-04  0.59732321677E-03  0.17130000001E+03  0.17130000000E+03 0.  1.
      622    1    1    2    0    0  0.25281138737E-02  0.31541777702E-01  0.20276451322E+01  0.20279906452E+01  0.20000000000E-01 0.  1.
</event>
<event>
 5   0  0.3603037E+08  0.9118800E+02  0.7818608E-02  0.1180000E+00
       11   -1    0    0    0    0  0.00000000000E+00  0.00000000000E+00  0.39999999673E+01  0.40000000000E+01  0.51109989000E-03 0.  1.
     -623   -1    0    0    0    0  0.00000000000E+00  0.00000000000E+00  0.12525980253E-10  0.17130000000E+03  0.17130000000E+03 0.  1.
       11    1    1    2    0    0  0.25316100757E-02  0.15080988876E-01  0.15159320142E+01  0.15160092276E+01  0.51109989000E-03 0.  1.
     -623    1    1    2    0    0 -0.61851834057E-03  0.15077908118E-03  0.20513806764E-03  0.17130000000E+03  0.17130000000E+03 0.  1.
      622    1    1    2    0    0 -0.19130917352E-02 -0.15231767957E-01  0.24838628151E+01  0.24839907711E+01  0.20000000000E-01 0.  1.
</event>
<event>
 5   0  0.3603037E+08  0.9118800E+02  0.7818608E-02  0.1180000E+00
       11   -1    0    0    0    0  0.00000000000E+00  0.00000000000E+00  0.39999999673E+01  0.40000000000E+01  0.51109989000E-03 0. -1.
     -623   -1    0    0    0    0  0.00000000000E+00  0.00000000000E+00  0.12525980253E-10  0.17130000000E+03  0.17130000000E+03 0. -1.
       11    1    1    2    0    0 -0.80424767681E-03  0.18013844242E-02  0.85219108054E-01  0.85243471302E-01  0.51109989000E-03 0. -1.
     -623    1    1    2    0    0 -0.33112575575E-02 -0.57540198223E-03  0.77807951794E-04  0.17130000003E+03  0.17130000000E+03 0. -1.
      622    1    1    2    0    0  0.41155052343E-02 -0.12259824420E-02  0.39147030514E+01  0.39147564957E+01  0.20000000000E-01 0. -1.
</event>
<event>
 5   0  0.3603037E+08  0.9118800E+02  0.7818608E-02  0.1180000E+00
       11   -1    0    0    0    0  0.00000000000E+00  0.00000000000E+00  0.39999999673E+01  0.40000000000E+01  0.51109989000E-03 0. -1.
     -623   -1    0    0    0    0  0.00000000000E+00  0.00000000000E+00  0.12525980253E-10  0.17130000000E+03  0.17130000000E+03 0. -1.
       11    1    1    2    0    0 -0.33647334845E-02 -0.42388398346E-02  0.16121137771E+01  0.16121229422E+01  0.51109989000E-03 0. -1.
     -623    1    1    2    0    0 -0.17079087403E-02 -0.10454575070E-02  0.10413745966E-03  0.17130000001E+03  0.17130000000E+03 0. -1.
      622    1    1    2    0    0  0.50726422248E-02  0.52842973416E-02  0.23877820528E+01  0.23878770461E+01  0.20000000000E-01 0.  0.
</event>
<event>
 5   0  0.3603037E+08  0.9118800E+02  0.7818608E-02  0.1180000E+00
       11   -1    0    0    0    0  0.00000000000E+00  0.00000000000E+00  0.39999999673E+01  0.40000000000E+01  0.51109989000E-03 0. -1.
     -623   -1    0    0    0    0  0.00000000000E+00  0.00000000000E+00  0.12525980253E-10  0.17130000000E+03  0.17130000000E+03 0.  1.
       11    1    1    2    0    0 -0.24787002488E-02 -0.59872313919E-02  0.68371001198E-01  0.68679297626E-01  0.51109989000E-03 0. -1.
     -623    1    1    2    0    0  0.37413417539E-02  0.87651555991E-03  0.36270586681E-03  0.17130000004E+03  0.17130000000E+03 0.  1.
      622    1    1    2    0    0 -0.12626415051E-02  0.51107158320E-02  0.39312662603E+01  0.39313206589E+01  0.20000000000E-01 0. -1.
</event>
<event>
 5   0  0.3603037E+08  0.9118800E+02  0.7818608E-02  0.1180000E+00
       11   -1    0    0    0    0  0.00000000000E+00  0.00000000000E+00  0.39999999673E+01  0.40000000000E+01  0.51109989000E-03 0. -1.
     -623   -1    0    0    0    0  0.00000000000E+00  0.00000000000E+00  0.12525980253E-10  0.17130000000E+03  0.17130000000E+03 0.  1.
       11    1    1    2    0    0  0.13418633645E-02  0.77490083815E-03  0.17992344345E-01  0.18066176861E-01  0.51109989000E-03 0. -1.
     -623    1    1    2    0    0 -0.12391718634E-02  0.49243610785E-03  0.12423528429E-03  0.17130000001E+03  0.17130000000E+03 0.  1.
      622    1    1    2    0    0 -0.10269150106E-03 -0.12673369460E-02  0.39818833877E+01  0.39819338179E+01  0.20000000000E-01 0. -1.
</event>
<event>
 5   0  0.3603037E+08  0.9118800E+02  0.7818608E-02  0.1180000E+00
       11   -1    0    0    0    0  0.00000000000E+00  0.00000000000E+00  0.39999999673E+01  0.40000000000E+01  0.51109989000E-03 0. -1.
     -623   -1    0    0    0    0  0.00000000000E+00  0.00000000000E+00  0.12525980253E-10  0.17130000000E+03  0.17130000000E+03 0.  1.
       11    1    1    2    0    0  0.17515777629E-02 -0.47040237202E-03  0.67443427472E-01  0.67469744580E-01  0.51109989000E-03 0. -1.
     -623    1    1    2    0    0 -0.81677685919E-04 -0.35859356252E-05  0.77525797071E-04  0.17130000000E+03  0.17130000000E+03 0.  1.
      622    1    1    2    0    0 -0.16699000770E-02  0.47398830764E-03  0.39324790141E+01  0.39325302554E+01  0.20000000000E-01 0. -1.
</event>
<event>
 5   0  0.3603037E+08  0.9118800E+02  0.7818608E-02  0.1180000E+00
       11   -1    0    0    0    0  0.00000000000E+00  0.00000000000E+00  0.39999999673E+01  0.40000000000E+01  0.51109989000E-03 0.  1.
     -623   -1    0    0    0    0  0.00000000000E+00  0.00000000000E+00  0.12525980253E-10  0.17130000000E+03  0.17130000000E+03 0.  1.
       11    1    1    2    0    0 -0.39226314911E-02  0.58451030835E-02  0.41005740785E-01  0.41608704207E-01  0.51109989000E-03 0. -1.
     -623    1    1    2    0    0  0.24431085602E-02 -0.45507098160E-02  0.65402393781E-03  0.17130000008E+03  0.17130000000E+03 0.  1.
      622    1    1    2    0    0  0.14795229309E-02 -0.12943932675E-02  0.39583402026E+01  0.39583912167E+01  0.20000000000E-01 0.  1.
</event>
<event>
 5   0  0.3603037E+08  0.9118800E+02  0.7818608E-02  0.1180000E+00
       11   -1    0    0    0    0  0.00000000000E+00  0.00000000000E+00  0.39999999673E+01  0.40000000000E+01  0.51109989000E-03 0. -1.
     -623   -1    0    0    0    0  0.00000000000E+00  0.00000000000E+00  0.12525980253E-10  0.17130000000E+03  0.17130000000E+03 0. -1.
       11    1    1    2    0    0 -0.72719792453E-03 -0.32651605963E-02  0.45152120653E-01  0.45278751209E-01  0.51109989000E-03 0. -1.
     -623    1    1    2    0    0  0.27217913447E-02 -0.65496135704E-03  0.17963961238E-03  0.17130000002E+03  0.17130000000E+03 0. -1.
      622    1    1    2    0    0 -0.19945934202E-02  0.39201219534E-02  0.39546682071E+01  0.39547212258E+01  0.20000000000E-01 0. -1.
</event>
<event>
 5   0  0.3603037E+08  0.9118800E+02  0.7818608E-02  0.1180000E+00
       11   -1    0    0    0    0  0.00000000000E+00  0.00000000000E+00  0.39999999673E+01  0.40000000000E+01  0.51109989000E-03 0.  1.
     -623   -1    0    0    0    0  0.00000000000E+00  0.00000000000E+00  0.12525980253E-10  0.17130000000E+03  0.17130000000E+03 0. -1.
       11    1    1    2    0    0  0.21391337294E-03 -0.13736134288E-02  0.80526335607E-01  0.80539956052E-01  0.51109989000E-03 0.  1.
     -623    1    1    2    0    0 -0.17139589670E-02 -0.32858168446E-05  0.65153065947E-04  0.17130000001E+03  0.17130000000E+03 0. -1.
      622    1    1    2    0    0  0.15000455941E-02  0.13768992457E-02  0.39194084787E+01  0.39194600354E+01  0.20000000000E-01 0.  1.
</event>
<event>
 5   0  0.3603037E+08  0.9118800E+02  0.7818608E-02  0.1180000E+00
       11   -1    0    0    0    0  0.00000000000E+00  0.00000000000E+00  0.39999999673E+01  0.40000000000E+01  0.51109989000E-03 0. -1.
     -623   -1    0    0    0    0  0.00000000000E+00  0.00000000000E+00  0.12525980253E-10  0.17130000000E+03  0.17130000000E+03 0. -1.
       11    1    1    2    0    0 -0.75815975308E-02 -0.62296822279E-02  0.15192639109E+00  0.15224381463E+00  0.51109989000E-03 0. -1.
     -623    1    1    2    0    0 -0.78656206564E-02 -0.11748032863E-02  0.40768710259E-03  0.17130000019E+03  0.17130000000E+03 0. -1.
      622    1    1    2    0    0  0.15447218187E-01  0.74044855142E-02  0.38476658892E+01  0.38477560003E+01  0.20000000000E-01 0. -1.
</event>
<event>
 5   0  0.3603037E+08  0.9118800E+02  0.7818608E-02  0.1180000E+00
       11   -1    0    0    0    0  0.00000000000E+00  0.00000000000E+00  0.39999999673E+01  0.40000000000E+01  0.51109989000E-03 0.  1.
     -623   -1    0    0    0    0  0.00000000000E+00  0.00000000000E+00  0.12525980253E-10  0.17130000000E+03  0.17130000000E+03 0.  1.
       11    1    1    2    0    0  0.71890505966E-03  0.42500213648E-03  0.67181529857E-01  0.67188664416E-01  0.51109989000E-03 0.  1.
     -623    1    1    2    0    0  0.33404345198E-03 -0.39271121925E-03  0.58098328667E-04  0.17130000000E+03  0.17130000000E+03 0.  1.
      622    1    1    2    0    0 -0.10529485116E-02 -0.32290917236E-04  0.39327603392E+01  0.39328113348E+01  0.20000000000E-01 0.  1.
</event>
<event>
 5   0  0.3603037E+08  0.9118800E+02  0.7818608E-02  0.1180000E+00
       11   -1    0    0    0    0  0.00000000000E+00  0.00000000000E+00  0.39999999673E+01  0.40000000000E+01  0.51109989000E-03 0. -1.
     -623   -1    0    0    0    0  0.00000000000E+00  0.00000000000E+00  0.12525980253E-10  0.17130000000E+03  0.17130000000E+03 0. -1.
       11    1    1    2    0    0 -0.67367980275E-02  0.13038535115E-02  0.97850299683E-01  0.98091930613E-01  0.51109989000E-03 0. -1.
     -623    1    1    2    0    0  0.11123789062E-01 -0.42633057894E-02  0.29685864711E-03  0.17130000041E+03  0.17130000000E+03 0. -1.
      622    1    1    2    0    0 -0.43869910349E-02  0.29594522779E-02  0.39018528090E+01  0.39019076549E+01  0.20000000000E-01 0. -1.
</event>
<event>
 5   0  0.3603037E+08  0.9118800E+02  0.7818608E-02  0.1180000E+00
       11   -1    0    0    0    0  0.00000000000E+00  0.00000000000E+00  0.39999999673E+01  0.40000000000E+01  0.51109989000E-03 0. -1.
     -623   -1    0    0    0    0  0.00000000000E+00  0.00000000000E+00  0.12525980253E-10  0.17130000000E+03  0.17130000000E+03 0. -1.
       11    1    1    2    0    0  0.41006641146E-02 -0.51572108428E-02  0.18474060767E+00  0.18485877208E+00  0.51109989000E-03 0. -1.
     -623    1    1    2    0    0  0.10053094955E-02  0.17383814808E-02  0.17551537753E-03  0.17130000001E+03  0.17130000000E+03 0. -1.
      622    1    1    2    0    0 -0.51059736101E-02  0.34188293620E-02  0.38150838443E+01  0.38151412161E+01  0.20000000000E-01 0. -1.
</event>
<event>
 5   0  0.3603037E+08  0.9118800E+02  0.7818608E-02  0.1180000E+00
       11   -1    0    0    0    0  0.00000000000E+00  0.00000000000E+00  0.39999999673E+01  0.40000000000E+01  0.51109989000E-03 0. -1.
     -623   -1    0    0    0    0  0.00000000000E+00  0.00000000000E+00  0.12525980253E-10  0.17130000000E+03  0.17130000000E+03 0. -1.
       11    1    1    2    0    0 -0.18193890891E-03  0.28445256090E-02  0.21689716253E+00  0.21691649260E+00  0.51109989000E-03 0. -1.
     -623    1    1    2    0    0 -0.18205436471E-02 -0.16970185810E-02  0.72886849380E-04  0.17130000002E+03  0.17130000000E+03 0. -1.
      622    1    1    2    0    0  0.20024825560E-02 -0.11475070280E-02  0.37830299180E+01  0.37830834893E+01  0.20000000000E-01 0. -1.
</event>
<event>
 5   0  0.3603037E+08  0.9118800E+02  0.7818608E-02  0.1180000E+00
       11   -1    0    0    0    0  0.00000000000E+00  0.00000000000E+00  0.39999999673E+01  0.40000000000E+01  0.51109989000E-03 0.  1.
     -623   -1    0    0    0    0  0.00000000000E+00  0.00000000000E+00  0.12525980253E-10  0.17130000000E+03  0.17130000000E+03 0. -1.
       11    1    1    2    0    0 -0.19859631226E-02  0.25865086984E-02  0.12613392781E+01  0.12613435970E+01  0.51109989000E-03 0.  1.
     -623    1    1    2    0    0  0.11932947721E-02  0.12893414086E-03  0.78780967340E-04  0.17130000000E+03  0.17130000000E+03 0. -1.
      622    1    1    2    0    0  0.79266835052E-03 -0.27154428392E-02  0.27385819083E+01  0.27386563987E+01  0.20000000000E-01 0.  1.
</event>
<event>
 5   0  0.3603037E+08  0.9118800E+02  0.7818608E-02  0.1180000E+00
       11   -1    0    0    0    0  0.00000000000E+00  0.00000000000E+00  0.39999999673E+01  0.40000000000E+01  0.51109989000E-03 0.  1.
     -623   -1    0    0    0    0  0.00000000000E+00  0.00000000000E+00  0.12525980253E-10  0.17130000000E+03  0.17130000000E+03 0. -1.
       11    1    1    2    0    0  0.24417573327E-01  0.21542165408E-01  0.12456516178E+01  0.12460772436E+01  0.51109989000E-03 0.  1.
     -623    1    1    2    0    0  0.58855712256E-02  0.36590581729E-02  0.78041245536E-03  0.17130000014E+03  0.17130000000E+03 0. -1.
      622    1    1    2    0    0 -0.30303144552E-01 -0.25201223581E-01  0.27535679371E+01  0.27539226144E+01  0.20000000000E-01 0.  1.
</event>
<event>
 5   0  0.3603037E+08  0.9118800E+02  0.7818608E-02  0.1180000E+00
       11   -1    0    0    0    0  0.00000000000E+00  0.00000000000E+00  0.39999999673E+01  0.40000000000E+01  0.51109989000E-03 0.  1.
     -623   -1    0    0    0    0  0.00000000000E+00  0.00000000000E+00  0.12525980253E-10  0.17130000000E+03  0.17130000000E+03 0.  1.
       11    1    1    2    0    0 -0.34418439077E-03  0.38249103685E-03  0.71371101669E-02  0.71738640851E-02  0.51109989000E-03 0.  1.
     -623    1    1    2    0    0  0.10297071920E-02  0.29796425662E-03  0.86931633983E-04  0.17130000000E+03  0.17130000000E+03 0.  1.
      622    1    1    2    0    0 -0.68552280122E-03 -0.68045529348E-03  0.39927759256E+01  0.39928261325E+01  0.20000000000E-01 0.  1.
</event>
<event>
 5   0  0.3603037E+08  0.9118800E+02  0.7818608E-02  0.1180000E+00
       11   -1    0    0    0    0  0.00000000000E+00  0.00000000000E+00  0.39999999673E+01  0.40000000000E+01  0.51109989000E-03 0. -1.
     -623   -1    0    0    0    0  0.00000000000E+00  0.00000000000E+00  0.12525980253E-10  0.17130000000E+03  0.17130000000E+03 0.  1.
       11    1    1    2    0    0  0.25423686789E-02  0.24565408637E-02  0.21615344462E+00  0.21618295741E+00  0.51109989000E-03 0. -1.
     -623    1    1    2    0    0  0.42277281336E-04 -0.69907254584E-03  0.83629571956E-04  0.17130000000E+03  0.17130000000E+03 0.  1.
      622    1    1    2    0    0 -0.25846459602E-02 -0.17574683179E-02  0.37837628932E+01  0.37838170411E+01  0.20000000000E-01 0. -1.
</event>
<event>
 5   0  0.3603037E+08  0.9118800E+02  0.7818608E-02  0.1180000E+00
       11   -1    0    0    0    0  0.00000000000E+00  0.00000000000E+00  0.39999999673E+01  0.40000000000E+01  0.51109989000E-03 0.  1.
     -623   -1    0    0    0    0  0.00000000000E+00  0.00000000000E+00  0.12525980253E-10  0.17130000000E+03  0.17130000000E+03 0.  1.
       11    1    1    2    0    0 -0.39469865837E-02  0.67696765323E-02  0.19342990178E+01  0.19343149585E+01  0.51109989000E-03 0.  1.
     -623    1    1    2    0    0  0.86083841638E-04  0.77785531737E-04  0.12768870012E-03  0.17130000000E+03  0.17130000000E+03 0.  1.
      622    1    1    2    0    0  0.38609027421E-02 -0.68474620640E-02  0.20655732609E+01  0.20656850414E+01  0.20000000000E-01 0.  1.
</event>
<event>
 5   0  0.3603037E+08  0.9118800E+02  0.7818608E-02  0.1180000E+00
       11   -1    0    0    0    0  0.00000000000E+00  0.00000000000E+00  0.39999999673E+01  0.40000000000E+01  0.51109989000E-03 0.  1.
     -623   -1    0    0    0    0  0.00000000000E+00  0.00000000000E+00  0.12525980253E-10  0.17130000000E+03  0.17130000000E+03 0. -1.
       11    1    1    2    0    0  0.35644939122E-03 -0.77311776625E-03  0.65718140828E+00  0.65718215845E+00  0.51109989000E-03 0.  1.
     -623    1    1    2    0    0  0.61315024117E-03  0.48192474691E-03  0.60702912339E-04  0.17130000000E+03  0.17130000000E+03 0. -1.
      622    1    1    2    0    0 -0.96959963238E-03  0.29119301935E-03  0.33427578562E+01  0.33428178398E+01  0.20000000000E-01 0.  1.
</event>
<event>
 5   0  0.3603037E+08  0.9118800E+02  0.7818608E-02  0.1180000E+00
       11   -1    0    0    0    0  0.00000000000E+00  0.00000000000E+00  0.39999999673E+01  0.40000000000E+01  0.51109989000E-03 0. -1.
     -623   -1    0    0    0    0  0.00000000000E+00  0.00000000000E+00  0.12525980253E-10  0.17130000000E+03  0.17130000000E+03 0. -1.
       11    1    1    2    0    0 -0.17614523566E-01  0.16108081005E-01  0.48897488642E+00  0.48955739448E+00  0.51109989000E-03 0. -1.
     -623    1    1    2    0    0  0.30803583578E-01 -0.13193840262E-01  0.66871425656E-03  0.17130000328E+03  0.17130000000E+03 0. -1.
      622    1    1    2    0    0 -0.13189060013E-01 -0.29142407428E-02  0.35103563667E+01  0.35104393265E+01  0.20000000000E-01 0. -1.
</event>
<event>
 5   0  0.3603037E+08  0.9118800E+02  0.7818608E-02  0.1180000E+00
       11   -1    0    0    0    0  0.00000000000E+00  0.00000000000E+00  0.39999999673E+01  0.40000000000E+01  0.51109989000E-03 0. -1.
     -623   -1    0    0    0    0  0.00000000000E+00  0.00000000000E+00  0.12525980253E-10  0.17130000000E+03  0.17130000000E+03 0. -1.
       11    1    1    2    0    0  0.42130893571E-04 -0.12434324499E-02  0.14589186955E-01  0.14651057857E-01  0.51109989000E-03 0. -1.
     -623    1    1    2    0    0 -0.14549312623E-03 -0.59627647185E-04  0.11223686743E-03  0.17130000000E+03  0.17130000000E+03 0. -1.
      622    1    1    2    0    0  0.10336223266E-03  0.13030600971E-02  0.39852985435E+01  0.39853489420E+01  0.20000000000E-01 0. -1.
</event>
<event>
 5   0  0.3603037E+08  0.9118800E+02  0.7818608E-02  0.1180000E+00
       11   -1    0    0    0    0  0.00000000000E+00  0.00000000000E+00  0.39999999673E+01  0.40000000000E+01  0.51109989000E-03 0.  1.
     -623   -1    0    0    0    0  0.00000000000E+00  0.00000000000E+00  0.12525980253E-10  0.17130000000E+03  0.17130000000E+03 0.  1.
       11    1    1    2    0    0 -0.38314024317E-02 -0.15750773907E-02  0.30366655410E-01  0.30652169508E-01  0.51109989000E-03 0.  1.
     -623    1    1    2    0    0  0.28391445339E-02 -0.38814800932E-02  0.33981029587E-03  0.17130000007E+03  0.17130000000E+03 0.  1.
      622    1    1    2    0    0  0.99225789782E-03  0.54565574840E-02  0.39692935017E+01  0.39693477627E+01  0.20000000000E-01 0.  1.
</event>
<event>
 5   0  0.3603037E+08  0.9118800E+02  0.7818608E-02  0.1180000E+00
       11   -1    0    0    0    0  0.00000000000E+00  0.00000000000E+00  0.39999999673E+01  0.40000000000E+01  0.51109989000E-03 0.  1.
     -623   -1    0    0    0    0  0.00000000000E+00  0.00000000000E+00  0.12525980253E-10  0.17130000000E+03  0.17130000000E+03 0. -1.
       11    1    1    2    0    0  0.14876184055E-02  0.86391711935E-03  0.59464553815E-01  0.59491627506E-01  0.51109989000E-03 0.  1.
     -623    1    1    2    0    0 -0.30537573596E-04  0.20906059168E-03  0.78211878536E-04  0.17130000000E+03  0.17130000000E+03 0. -1.
      622    1    1    2    0    0 -0.14570808319E-02 -0.10729777110E-02  0.39404572017E+01  0.39405083723E+01  0.20000000000E-01 0.  1.
</event>
<event>
 5   0  0.3603037E+08  0.9118800E+02  0.7818608E-02  0.1180000E+00
       11   -1    0    0    0    0  0.00000000000E+00  0.00000000000E+00  0.39999999673E+01  0.40000000000E+01  0.51109989000E-03 0. -1.
     -623   -1    0    0    0    0  0.00000000000E+00  0.00000000000E+00  0.12525980253E-10  0.17130000000E+03  0.17130000000E+03 0.  1.
       11    1    1    2    0    0 -0.66979355381E-03  0.24301006614E-02  0.73067837950E+00  0.73068290626E+00  0.51109989000E-03 0. -1.
     -623    1    1    2    0    0  0.73602258636E-03 -0.47368094306E-03  0.66257859066E-04  0.17130000000E+03  0.17130000000E+03 0.  1.
      622    1    1    2    0    0 -0.66229032549E-04 -0.19564197184E-02  0.32692553300E+01  0.32693170915E+01  0.20000000000E-01 0. -1.
</event>
<event>
 5   0  0.3603037E+08  0.9118800E+02  0.7818608E-02  0.1180000E+00
       11   -1    0    0    0    0  0.00000000000E+00  0.00000000000E+00  0.39999999673E+01  0.40000000000E+01  0.51109989000E-03 0. -1.
     -623   -1    0    0    0    0  0.00000000000E+00  0.00000000000E+00  0.12525980253E-10  0.17130000000E+03  0.17130000000E+03 0. -1.
       11    1    1    2    0    0 -0.79594019170E-02  0.68128512905E-02  0.78670547735E+00  0.78677540400E+00  0.51109989000E-03 0. -1.
     -623    1    1    2    0    0  0.16603124249E-01 -0.48422533859E-02  0.14524105209E-03  0.17130000087E+03  0.17130000000E+03 0. -1.
      622    1    1    2    0    0 -0.86437223319E-02 -0.19705979046E-02  0.32131492490E+01  0.32132237229E+01  0.20000000000E-01 0. -1.
</event>
<event>
 5   0  0.3603037E+08  0.9118800E+02  0.7818608E-02  0.1180000E+00
       11   -1    0    0    0    0  0.00000000000E+00  0.00000000000E+00  0.39999999673E+01  0.40000000000E+01  0.51109989000E-03 0. -1.
     -623   -1    0    0    0    0  0.00000000000E+00  0.00000000000E+00  0.12525980253E-10  0.17130000000E+03  0.17130000000E+03 0. -1.
       11    1    1    2    0    0 -0.40981797490E-02 -0.52794895108E-02  0.25209139840E+00  0.25218049579E+00  0.51109989000E-03 0. -1.
     -623    1    1    2    0    0 -0.59809211598E-03  0.29395147678E-03  0.14868932652E-03  0.17130000000E+03  0.17130000000E+03 0. -1.
      622    1    1    2    0    0  0.46962718649E-02  0.49855380340E-02  0.37477598796E+01  0.37478195029E+01  0.20000000000E-01 0. -1.
</event>
<event>
 5   0  0.3603037E+08  0.9118800E+02  0.7818608E-02  0.1180000E+00
       11   -1    0    0    0    0  0.00000000000E+00  0.00000000000E+00  0.39999999673E+01  0.40000000000E+01  0.51109989000E-03 0. -1.
     -623   -1    0    0    0    0  0.00000000000E+00  0.00000000000E+00  0.12525980253E-10  0.17130000000E+03  0.17130000000E+03 0. -1.
       11    1    1    2    0    0  0.80602164462E-02  0.26150953190E-02  0.94718786130E-01  0.95098451508E-01  0.51109989000E-03 0. -1.
     -623    1    1    2    0    0 -0.64178507100E-02 -0.55324341303E-02  0.43249603535E-03  0.17130000021E+03  0.17130000000E+03 0. -1.
      622    1    1    2    0    0 -0.16423657362E-02  0.29173388113E-02  0.39048486852E+01  0.39049013384E+01  0.20000000000E-01 0. -1.
</event>
<event>
 5   0  0.3603037E+08  0.9118800E+02  0.7818608E-02  0.1180000E+00
       11   -1    0    0    0    0  0.00000000000E+00  0.00000000000E+00  0.39999999673E+01  0.40000000000E+01  0.51109989000E-03 0.  1.
     -623   -1    0    0    0    0  0.00000000000E+00  0.00000000000E+00  0.12525980253E-10  0.17130000000E+03  0.17130000000E+03 0. -1.
       11    1    1    2    0    0 -0.27526344555E-01  0.31575292060E-02  0.12435371376E+01  0.12438458680E+01  0.51109989000E-03 0.  1.
     -623    1    1    2    0    0  0.85398594786E-02 -0.12616360516E-01  0.46357266480E-03  0.17130000068E+03  0.17130000000E+03 0. -1.
      622    1    1    2    0    0  0.18986485077E-01  0.94588313097E-02  0.27559992571E+01  0.27561534539E+01  0.20000000000E-01 0.  1.
</event>
<event>
 5   0  0.3603037E+08  0.9118800E+02  0.7818608E-02  0.1180000E+00
       11   -1    0    0    0    0  0.00000000000E+00  0.00000000000E+00  0.39999999673E+01  0.40000000000E+01  0.51109989000E-03 0. -1.
     -623   -1    0    0    0    0  0.00000000000E+00  0.00000000000E+00  0.12525980253E-10  0.17130000000E+03  0.17130000000E+03 0.  1.
       11    1    1    2    0    0 -0.10218734774E-02 -0.19695404714E-02  0.13499500259E+00  0.13501420393E+00  0.51109989000E-03 0. -1.
     -623    1    1    2    0    0 -0.10764695317E-02  0.24070638958E-02  0.71530362154E-04  0.17130000002E+03  0.17130000000E+03 0.  1.
      622    1    1    2    0    0  0.20983430091E-02 -0.43752342445E-03  0.38649334344E+01  0.38649857758E+01  0.20000000000E-01 0. -1.
</event>
<event>
 5   0  0.3603037E+08  0.9118800E+02  0.7818608E-02  0.1180000E+00
       11   -1    0    0    0    0  0.00000000000E+00  0.00000000000E+00  0.39999999673E+01  0.40000000000E+01  0.51109989000E-03 0.  1.
     -623   -1    0    0    0    0  0.00000000000E+00  0.00000000000E+00  0.12525980253E-10  0.17130000000E+03  0.17130000000E+03 0. -1.
       11    1    1    2    0    0  0.27555756558E-01 -0.19581901767E-01  0.27167645747E+01  0.27169749329E+01  0.51109989000E-03 0.  1.
     -623    1    1    2    0    0  0.70085224930E-03 -0.87355363892E-03  0.84058354343E-03  0.17130000001E+03  0.17130000000E+03 0. -1.
      622    1    1    2    0    0 -0.28256608807E-01  0.20455455406E-01  0.12823948091E+01  0.12830250613E+01  0.20000000000E-01 0. -1.
</event>
<event>
 5   0  0.3603037E+08  0.9118800E+02  0.7818608E-02  0.1180000E+00
       11   -1    0    0    0    0  0.00000000000E+00  0.00000000000E+00  0.39999999673E+01  0.40000000000E+01  0.51109989000E-03 0.  1.
     -623   -1    0    0    0    0  0.00000000000E+00  0.00000000000E+00  0.12525980253E-10  0.17130000000E+03  0.17130000000E+03 0. -1.
       11    1    1    2    0    0  0.14803424925E-01 -0.86217237262E-02  0.16423019231E+00  0.16512205424E+00  0.51109989000E-03 0.  1.
     -623    1    1    2    0    0 -0.72587108416E-03  0.19104892278E-02  0.97570940962E-03  0.17130000001E+03  0.17130000000E+03 0. -1.
      622    1    1    2    0    0 -0.14077553841E-01  0.67112344984E-02  0.38347940656E+01  0.38348779308E+01  0.20000000000E-01 0.  1.
</event>
<event>
 5   0  0.3603037E+08  0.9118800E+02  0.7818608E-02  0.1180000E+00
       11   -1    0    0    0    0  0.00000000000E+00  0.00000000000E+00  0.39999999673E+01  0.40000000000E+01  0.51109989000E-03 0. -1.
     -623   -1    0    0    0    0  0.00000000000E+00  0.00000000000E+00  0.12525980253E-10  0.17130000000E+03  0.17130000000E+03 0.  1.
       11    1    1    2    0    0 -0.11752220968E-02  0.19448817285E-04  0.71076713970E-01  0.71088269175E-01  0.51109989000E-03 0. -1.
     -623    1    1    2    0    0 -0.61793948095E-04 -0.88467305393E-04  0.62622967571E-04  0.17130000000E+03  0.17130000000E+03 0.  1.
      622    1    1    2    0    0  0.12370160449E-02  0.69018488108E-04  0.39288606304E+01  0.39289117308E+01  0.20000000000E-01 0. -1.
</event>
<event>
 5   0  0.3603037E+08  0.9118800E+02  0.7818608E-02  0.1180000E+00
       11   -1    0    0    0    0  0.00000000000E+00  0.00000000000E+00  0.39999999673E+01  0.40000000000E+01  0.51109989000E-03 0.  1.
     -623   -1    0    0    0    0  0.00000000000E+00  0.00000000000E+00  0.12525980253E-10  0.17130000000E+03  0.17130000000E+03 0. -1.
       11    1    1    2    0    0 -0.45509513808E-03 -0.39390522855E-02  0.11268726504E+00  0.11275816675E+00  0.51109989000E-03 0.  1.
     -623    1    1    2    0    0  0.23564230328E-02 -0.22931061915E-02  0.12781224764E-03  0.17130000003E+03  0.17130000000E+03 0. -1.
      622    1    1    2    0    0 -0.19013278947E-02  0.62321584770E-02  0.38871848901E+01  0.38872418016E+01  0.20000000000E-01 0.  1.
</event>
<event>
 5   0  0.3603037E+08  0.9118800E+02  0.7818608E-02  0.1180000E+00
       11   -1    0    0    0    0  0.00000000000E+00  0.00000000000E+00  0.39999999673E+01  0.40000000000E+01  0.51109989000E-03 0. -1.
     -623   -1    0    0    0    0  0.00000000000E+00  0.00000000000E+00  0.12525980253E-10  0.17130000000E+03  0.17130000000E+03 0. -1.
       11    1    1    2    0    0 -0.66616073395E-02  0.44005409492E-02  0.22531667732E+01  0.22531809761E+01  0.51109989000E-03 0. -1.
     -623    1    1    2    0    0  0.87004137040E-03  0.18628348552E-02  0.14951158457E-03  0.17130000001E+03  0.17130000000E+03 0. -1.
      622    1    1    2    0    0  0.57915659691E-02 -0.62633758044E-02  0.17466836826E+01  0.17468190115E+01  0.20000000000E-01 0. -1.
</event>
<event>
 5   0  0.3603037E+08  0.9118800E+02  0.7818608E-02  0.1180000E+00
       11   -1    0    0    0    0  0.00000000000E+00  0.00000000000E+00  0.39999999673E+01  0.40000000000E+01  0.51109989000E-03 0. -1.
     -623   -1    0    0    0    0  0.00000000000E+00  0.00000000000E+00  0.12525980253E-10  0.17130000000E+03  0.17130000000E+03 0. -1.
       11    1    1    2    0    0 -0.66221289100E-02 -0.13765242897E-02  0.97414038337E+00  0.97416399807E+00  0.51109989000E-03 0. -1.
     -623    1    1    2    0    0  0.19200599053E-03 -0.45311445556E-04  0.96846828243E-04  0.17130000000E+03  0.17130000000E+03 0. -1.
      622    1    1    2    0    0  0.64301229195E-02  0.14218357352E-02  0.30257627372E+01  0.30258360018E+01  0.20000000000E-01 0. -1.
</event>
<event>
 5   0  0.3603037E+08  0.9118800E+02  0.7818608E-02  0.1180000E+00
       11   -1    0    0    0    0  0.00000000000E+00  0.00000000000E+00  0.39999999673E+01  0.40000000000E+01  0.51109989000E-03 0. -1.
     -623   -1    0    0    0    0  0.00000000000E+00  0.00000000000E+00  0.12525980253E-10  0.17130000000E+03  0.17130000000E+03 0. -1.
       11    1    1    2    0    0  0.22776585331E-03 -0.28207340717E-04  0.43184852396E-01  0.43188486563E-01  0.51109989000E-03 0. -1.
     -623    1    1    2    0    0 -0.33382237840E-03 -0.88864600139E-03  0.54257883897E-04  0.17130000000E+03  0.17130000000E+03 0. -1.
      622    1    1    2    0    0  0.10605652509E-03  0.91685334211E-03  0.39567608571E+01  0.39568115108E+01  0.20000000000E-01 0. -1.
</event>
<event>
 5   0  0.3603037E+08  0.9118800E+02  0.7818608E-02  0.1180000E+00
       11   -1    0    0    0    0  0.00000000000E+00  0.00000000000E+00  0.39999999673E+01  0.40000000000E+01  0.51109989000E-03 0. -1.
     -623   -1    0    0    0    0  0.00000000000E+00  0.00000000000E+00  0.12525980253E-10  0.17130000000E+03  0.17130000000E+03 0. -1.
       11    1    1    2    0    0 -0.54353358222E-03 -0.33666848146E-02  0.10242415963E+00  0.10248219208E+00  0.51109989000E-03 0. -1.
     -623    1    1    2    0    0 -0.37554686497E-03 -0.14860275864E-03  0.11100902790E-03  0.17130000000E+03  0.17130000000E+03 0. -1.
      622    1    1    2    0    0  0.91908044718E-03  0.35152875732E-02  0.38974647987E+01  0.38975178074E+01  0.20000000000E-01 0.  0.
</event>
<event>
 5   0  0.3603037E+08  0.9118800E+02  0.7818608E-02  0.1180000E+00
       11   -1    0    0    0    0  0.00000000000E+00  0.00000000000E+00  0.39999999673E+01  0.40000000000E+01  0.51109989000E-03 0.  1.
     -623   -1    0    0    0    0  0.00000000000E+00  0.00000000000E+00  0.12525980253E-10  0.17130000000E+03  0.17130000000E+03 0. -1.
       11    1    1    2    0    0 -0.79778240808E-03 -0.15252878257E-03  0.10875040862E-01  0.10917300800E-01  0.51109989000E-03 0.  1.
     -623    1    1    2    0    0  0.18879708119E-02  0.57527300880E-03  0.92547219549E-04  0.17130000001E+03  0.17130000000E+03 0. -1.
      622    1    1    2    0    0 -0.10901884038E-02 -0.42274422623E-03  0.39890323793E+01  0.39890826878E+01  0.20000000000E-01 0.  1.
</event>
<event>
 5   0  0.3603037E+08  0.9118800E+02  0.7818608E-02  0.1180000E+00
       11   -1    0    0    0    0  0.00000000000E+00  0.00000000000E+00  0.39999999673E+01  0.40000000000E+01  0.51109989000E-03 0. -1.
     -623   -1    0    0    0    0  0.00000000000E+00  0.00000000000E+00  0.12525980253E-10  0.17130000000E+03  0.17130000000E+03 0. -1.
       11    1    1    2    0    0 -0.30348439014E-02  0.27705876236E-02  0.13150787810E+00  0.13157305824E+00  0.51109989000E-03 0. -1.
     -623    1    1    2    0    0  0.18676862197E-03  0.43131668208E-03  0.11922271300E-03  0.17130000000E+03  0.17130000000E+03 0. -1.
      622    1    1    2    0    0  0.28480752794E-02 -0.32019043056E-02  0.38683728666E+01  0.38684269411E+01  0.20000000000E-01 0. -1.
</event>
<event>
 5   0  0.3603037E+08  0.9118800E+02  0.7818608E-02  0.1180000E+00
       11   -1    0    0    0    0  0.00000000000E+00  0.00000000000E+00  0.39999999673E+01  0.40000000000E+01  0.51109989000E-03 0.  1.
     -623   -1    0    0    0    0  0.00000000000E+00  0.00000000000E+00  0.12525980253E-10  0.17130000000E+03  0.17130000000E+03 0.  1.
       11    1    1    2    0    0  0.37156577829E-01  0.13589832279E-02  0.20380925042E+00  0.20717367084E+00  0.51109989000E-03 0.  1.
     -623    1    1    2    0    0 -0.10714195640E-01  0.84300332845E-02  0.35225072471E-02  0.17130000058E+03  0.17130000000E+03 0.  1.
      622    1    1    2    0    0 -0.26442382189E-01 -0.97890165124E-02  0.37926682097E+01  0.37928257504E+01  0.20000000000E-01 0.  1.
</event>
<event>
 5   0  0.3603037E+08  0.9118800E+02  0.7818608E-02  0.1180000E+00
       11   -1    0    0    0    0  0.00000000000E+00  0.00000000000E+00  0.39999999673E+01  0.40000000000E+01  0.51109989000E-03 0.  1.
     -623   -1    0    0    0    0  0.00000000000E+00  0.00000000000E+00  0.12525980253E-10  0.17130000000E+03  0.17130000000E+03 0.  1.
       11    1    1    2    0    0 -0.10006852752E-03 -0.91288035077E-03  0.46966607092E-02  0.48128169066E-02  0.51109989000E-03 0.  1.
     -623    1    1    2    0    0 -0.84411238210E-03  0.14431420998E-02  0.16633910378E-03  0.17130000001E+03  0.17130000000E+03 0.  1.
      622    1    1    2    0    0  0.94418090962E-03 -0.53026174903E-03  0.39951369675E+01  0.39951871749E+01  0.20000000000E-01 0.  1.
</event>
<event>
 5   0  0.3603037E+08  0.9118800E+02  0.7818608E-02  0.1180000E+00
       11   -1    0    0    0    0  0.00000000000E+00  0.00000000000E+00  0.39999999673E+01  0.40000000000E+01  0.51109989000E-03 0. -1.
     -623   -1    0    0    0    0  0.00000000000E+00  0.00000000000E+00  0.12525980253E-10  0.17130000000E+03  0.17130000000E+03 0. -1.
       11    1    1    2    0    0 -0.17944673443E-01  0.76634171401E-02  0.13618963170E+01  0.13620361884E+01  0.51109989000E-03 0. -1.
     -623    1    1    2    0    0 -0.44683654433E-03  0.59126844155E-03  0.29268791320E-03  0.17130000000E+03  0.17130000000E+03 0. -1.
      622    1    1    2    0    0  0.18391509987E-01 -0.82546855817E-02  0.26378109625E+01  0.26379638097E+01  0.20000000000E-01 0.  0.
</event>
<event>
 5   0  0.3603037E+08  0.9118800E+02  0.7818608E-02  0.1180000E+00
       11   -1    0    0    0    0  0.00000000000E+00  0.00000000000E+00  0.39999999673E+01  0.40000000000E+01  0.51109989000E-03 0. -1.
     -623   -1    0    0    0    0  0.00000000000E+00  0.00000000000E+00  0.12525980253E-10  0.17130000000E+03  0.17130000000E+03 0.  1.
       11    1    1    2    0    0 -0.96700678189E-03 -0.92459679055E-03  0.92207968875E-01  0.92219090896E-01  0.51109989000E-03 0. -1.
     -623    1    1    2    0    0  0.13442440034E-02 -0.97794503880E-03  0.62759085521E-04  0.17130000001E+03  0.17130000000E+03 0.  1.
      622    1    1    2    0    0 -0.37723722150E-03  0.19025418294E-02  0.39077292394E+01  0.39077809010E+01  0.20000000000E-01 0. -1.
</event>
<event>
 5   0  0.3603037E+08  0.9118800E+02  0.7818608E-02  0.1180000E+00
       11   -1    0    0    0    0  0.00000000000E+00  0.00000000000E+00  0.39999999673E+01  0.40000000000E+01  0.51109989000E-03 0.  1.
     -623   -1    0    0    0    0  0.00000000000E+00  0.00000000000E+00  0.12525980253E-10  0.17130000000E+03  0.17130000000E+03 0. -1.
       11    1    1    2    0    0 -0.37605490800E-03 -0.42662489137E-03  0.13617694676E-01  0.13639144267E-01  0.51109989000E-03 0.  1.
     -623    1    1    2    0    0 -0.40551341275E-03  0.35442712606E-03  0.71666472909E-04  0.17130000000E+03  0.17130000000E+03 0. -1.
      622    1    1    2    0    0  0.78156832076E-03  0.72197765302E-04  0.39863106062E+01  0.39863608549E+01  0.20000000000E-01 0.  1.
</event>
<event>
 5   0  0.3603037E+08  0.9118800E+02  0.7818608E-02  0.1180000E+00
       11   -1    0    0    0    0  0.00000000000E+00  0.00000000000E+00  0.39999999673E+01  0.40000000000E+01  0.51109989000E-03 0. -1.
     -623   -1    0    0    0    0  0.00000000000E+00  0.00000000000E+00  0.12525980253E-10  0.17130000000E+03  0.17130000000E+03 0.  1.
       11    1    1    2    0    0  0.15272870430E-02  0.43651049576E-02  0.27101760935E+00  0.27105754471E+00  0.51109989000E-03 0. -1.
     -623    1    1    2    0    0 -0.34861011113E-02  0.19584592931E-02  0.99460658335E-04  0.17130000005E+03  0.17130000000E+03 0.  1.
      622    1    1    2    0    0  0.19588140683E-02 -0.63235642507E-02  0.37288828974E+01  0.37289424086E+01  0.20000000000E-01 0. -1.
</event>
<event>
 5   0  0.3603037E+08  0.9118800E+02  0.7818608E-02  0.1180000E+00
       11   -1    0    0    0    0  0.00000000000E+00  0.00000000000E+00  0.39999999673E+01  0.40000000000E+01  0.51109989000E-03 0. -1.
     -623   -1    0    0    0    0  0.00000000000E+00  0.00000000000E+00  0.12525980253E-10  0.17130000000E+03  0.17130000000E+03 0.  1.
       11    1    1    2    0    0 -0.38641188477E-02  0.30566172131E-02  0.16298002167E+00  0.16305527593E+00  0.51109989000E-03 0. -1.
     -623    1    1    2    0    0  0.53566986889E-03  0.73015592932E-03  0.13066156888E-03  0.17130000000E+03  0.17130000000E+03 0.  1.
      622    1    1    2    0    0  0.33284489788E-02 -0.37867731424E-02  0.38368892841E+01  0.38369447216E+01  0.20000000000E-01 0. -1.
</event>
<event>
 5   0  0.3603037E+08  0.9118800E+02  0.7818608E-02  0.1180000E+00
       11   -1    0    0    0    0  0.00000000000E+00  0.00000000000E+00  0.39999999673E+01  0.40000000000E+01  0.51109989000E-03 0. -1.
     -623   -1    0    0    0    0  0.00000000000E+00  0.00000000000E+00  0.12525980253E-10  0.17130000000E+03  0.17130000000E+03 0. -1.
       11    1    1    2    0    0 -0.21281315956E-02 -0.40716687911E-02  0.89196775111E-01  0.89316478553E-01  0.51109989000E-03 0. -1.
     -623    1    1    2    0    0  0.98137500538E-03  0.26267036431E-03  0.17283933233E-03  0.17130000000E+03  0.17130000000E+03 0. -1.
      622    1    1    2    0    0  0.11467565902E-02  0.38089984268E-02  0.39106303529E+01  0.39106835183E+01  0.20000000000E-01 0. -1.
</event>
<event>
 5   0  0.3603037E+08  0.9118800E+02  0.7818608E-02  0.1180000E+00
       11   -1    0    0    0    0  0.00000000000E+00  0.00000000000E+00  0.39999999673E+01  0.40000000000E+01  0.51109989000E-03 0. -1.
     -623   -1    0    0    0    0  0.00000000000E+00  0.00000000000E+00  0.12525980253E-10  0.17130000000E+03  0.17130000000E+03 0.  1.
       11    1    1    2    0    0  0.94581047474E-03 -0.81296966429E-03  0.88252325853E-02  0.89275656292E-02  0.51109989000E-03 0. -1.
     -623    1    1    2    0    0 -0.99835141352E-04  0.24822450927E-03  0.15254245707E-03  0.17130000000E+03  0.17130000000E+03 0.  1.
      622    1    1    2    0    0 -0.84597533339E-03  0.56474515502E-03  0.39910221923E+01  0.39910724341E+01  0.20000000000E-01 0. -1.
</event>
<event>
 5   0  0.3603037E+08  0.9118800E+02  0.7818608E-02  0.1180000E+00
       11   -1    0    0    0    0  0.00000000000E+00  0.00000000000E+00  0.39999999673E+01  0.40000000000E+01  0.51109989000E-03 0. -1.
     -623   -1    0    0    0    0  0.00000000000E+00  0.00000000000E+00  0.12525980253E-10  0.17130000000E+03  0.17130000000E+03 0.  1.
       11    1    1    2    0    0 -0.68025944163E-02  0.19631887233E-02  0.31236913559E+00  0.31244978396E+00  0.51109989000E-03 0. -1.
     -623    1    1    2    0    0  0.15811043242E-03  0.14056698375E-03  0.14143930893E-03  0.17130000000E+03  0.17130000000E+03 0.  1.
      622    1    1    2    0    0  0.66444839839E-02 -0.21037557071E-02  0.36874893925E+01  0.36875502159E+01  0.20000000000E-01 0. -1.
</event>
<event>
 5   0  0.3603037E+08  0.9118800E+02  0.7818608E-02  0.1180000E+00
       11   -1    0    0    0    0  0.00000000000E+00  0.00000000000E+00  0.39999999673E+01  0.40000000000E+01  0.51109989000E-03 0.  1.
     -623   -1    0    0    0    0  0.00000000000E+00  0.00000000000E+00  0.12525980253E-10  0.17130000000E+03  0.17130000000E+03 0.  1.
       11    1    1    2    0    0  0.31041778238E-03 -0.12578409957E-01  0.20270850951E+01  0.20271242085E+01  0.51109989000E-03 0.  1.
     -623    1    1    2    0    0  0.33515025317E-03  0.15849596980E-03  0.17966051832E-03  0.17130000000E+03  0.17130000000E+03 0.  1.
      622    1    1    2    0    0 -0.64556803555E-03  0.12419913987E-01  0.19727352117E+01  0.19728757910E+01  0.20000000000E-01 0. -1.
</event>
<event>
 5   0  0.3603037E+08  0.9118800E+02  0.7818608E-02  0.1180000E+00
       11   -1    0    0    0    0  0.00000000000E+00  0.00000000000E+00  0.39999999673E+01  0.40000000000E+01  0.51109989000E-03 0.  1.
     -623   -1    0    0    0    0  0.00000000000E+00  0.00000000000E+00  0.12525980253E-10  0.17130000000E+03  0.17130000000E+03 0.  1.
       11    1    1    2    0    0 -0.67003604650E-03  0.35129481127E-04  0.10940943893E-01  0.10973406745E-01  0.51109989000E-03 0.  1.
     -623    1    1    2    0    0  0.15783586857E-02 -0.22840335936E-04  0.82678799958E-04  0.17130000001E+03  0.17130000000E+03 0.  1.
      622    1    1    2    0    0 -0.90832263918E-03 -0.12289145192E-04  0.39889763447E+01  0.39890265860E+01  0.20000000000E-01 0.  1.
</event>
<event>
 5   0  0.3603037E+08  0.9118800E+02  0.7818608E-02  0.1180000E+00
       11   -1    0    0    0    0  0.00000000000E+00  0.00000000000E+00  0.39999999673E+01  0.40000000000E+01  0.51109989000E-03 0. -1.
     -623   -1    0    0    0    0  0.00000000000E+00  0.00000000000E+00  0.12525980253E-10  0.17130000000E+03  0.17130000000E+03 0. -1.
       11    1    1    2    0    0  0.44717447750E-03 -0.12302469357E-02  0.67210769361E-02  0.68664087258E-02  0.51109989000E-03 0. -1.
     -623    1    1    2    0    0  0.36900545930E-03 -0.33641095943E-03  0.19577702741E-03  0.17130000000E+03  0.17130000000E+03 0. -1.
      622    1    1    2    0    0 -0.81617993680E-03  0.15666578951E-02  0.39930831134E+01  0.39931335904E+01  0.20000000000E-01 0. -1.
</event>
<event>
 5   0  0.3603037E+08  0.9118800E+02  0.7818608E-02  0.1180000E+00
       11   -1    0    0    0    0  0.00000000000E+00  0.00000000000E+00  0.39999999673E+01  0.40000000000E+01  0.51109989000E-03 0.  1.
     -623   -1    0    0    0    0  0.00000000000E+00  0.00000000000E+00  0.12525980253E-10  0.17130000000E+03  0.17130000000E+03 0.  1.
       11    1    1    2    0    0 -0.69739801121E-02  0.79684182262E-02  0.12164617765E+00  0.12210727188E+00  0.51109989000E-03 0.  1.
     -623    1    1    2    0    0 -0.27967536413E-02 -0.11745553674E-02  0.53092471260E-03  0.17130000003E+03  0.17130000000E+03 0.  1.
      622    1    1    2    0    0  0.97707337534E-02 -0.67938628589E-02  0.38778228650E+01  0.38778927004E+01  0.20000000000E-01 0.  1.
</event>
<event>
 5   0  0.3603037E+08  0.9118800E+02  0.7818608E-02  0.1180000E+00
       11   -1    0    0    0    0  0.00000000000E+00  0.00000000000E+00  0.39999999673E+01  0.40000000000E+01  0.51109989000E-03 0. -1.
     -623   -1    0    0    0    0  0.00000000000E+00  0.00000000000E+00  0.12525980253E-10  0.17130000000E+03  0.17130000000E+03 0.  1.
       11    1    1    2    0    0  0.47969113503E-03 -0.64505455822E-03  0.30786632231E-01  0.30801365938E-01  0.51109989000E-03 0.  1.
     -623    1    1    2    0    0  0.57002202778E-04 -0.24196711780E-03  0.65224984091E-04  0.17130000000E+03  0.17130000000E+03 0.  1.
      622    1    1    2    0    0 -0.53669333781E-03  0.88702167602E-03  0.39691481101E+01  0.39691986339E+01  0.20000000000E-01 0. -1.
</event>
<event>
 5   0  0.3603037E+08  0.9118800E+02  0.7818608E-02  0.1180000E+00
       11   -1    0    0    0    0  0.00000000000E+00  0.00000000000E+00  0.39999999673E+01  0.40000000000E+01  0.51109989000E-03 0. -1.
     -623   -1    0    0    0    0  0.00000000000E+00  0.00000000000E+00  0.12525980253E-10  0.17130000000E+03  0.17130000000E+03 0.  1.
       11    1    1    2    0    0 -0.15890432542E-02  0.37670125602E-02  0.74221844220E+00  0.74222987855E+00  0.51109989000E-03 0. -1.
     -623    1    1    2    0    0 -0.42042285625E-04 -0.28413573671E-03  0.75066361879E-04  0.17130000000E+03  0.17130000000E+03 0.  1.
      622    1    1    2    0    0  0.16310855398E-02 -0.34828768235E-02  0.32577064588E+01  0.32577701212E+01  0.20000000000E-01 0. -1.
</event>
<event>
 5   0  0.3603037E+08  0.9118800E+02  0.7818608E-02  0.1180000E+00
       11   -1    0    0    0    0  0.00000000000E+00  0.00000000000E+00  0.39999999673E+01  0.40000000000E+01  0.51109989000E-03 0. -1.
     -623   -1    0    0    0    0  0.00000000000E+00  0.00000000000E+00  0.12525980253E-10  0.17130000000E+03  0.17130000000E+03 0. -1.
       11    1    1    2    0    0 -0.70084780981E-03  0.10422704921E-02  0.95529287450E-02  0.96486882972E-02  0.51109989000E-03 0. -1.
     -623    1    1    2    0    0  0.15324491579E-04 -0.76763784908E-03  0.14591824628E-03  0.17130000000E+03  0.17130000000E+03 0. -1.
      622    1    1    2    0    0  0.68552331823E-03 -0.27463264306E-03  0.39903011204E+01  0.39903513099E+01  0.20000000000E-01 0. -1.
</event>
<event>
 5   0  0.3603037E+08  0.9118800E+02  0.7818608E-02  0.1180000E+00
       11   -1    0    0    0    0  0.00000000000E+00  0.00000000000E+00  0.39999999673E+01  0.40000000000E+01  0.51109989000E-03 0. -1.
     -623   -1    0    0    0    0  0.00000000000E+00  0.00000000000E+00  0.12525980253E-10  0.17130000000E+03  0.17130000000E+03 0. -1.
       11    1    1    2    0    0 -0.39472124837E-03 -0.21489188808E-02  0.23700250057E-01  0.23806233062E-01  0.51109989000E-03 0. -1.
     -623    1    1    2    0    0 -0.83878102845E-04  0.12782138433E-03  0.15679265459E-03  0.17130000000E+03  0.17130000000E+03 0. -1.
      622    1    1    2    0    0  0.47859935122E-03  0.20210974964E-02  0.39761429246E+01  0.39761937668E+01  0.20000000000E-01 0. -1.
</event>
<event>
 5   0  0.3603037E+08  0.9118800E+02  0.7818608E-02  0.1180000E+00
       11   -1    0    0    0    0  0.00000000000E+00  0.00000000000E+00  0.39999999673E+01  0.40000000000E+01  0.51109989000E-03 0.  1.
     -623   -1    0    0    0    0  0.00000000000E+00  0.00000000000E+00  0.12525980253E-10  0.17130000000E+03  0.17130000000E+03 0. -1.
       11    1    1    2    0    0  0.58491412233E-02 -0.12687824995E-02  0.10369116903E+00  0.10386501826E+00  0.51109989000E-03 0.  1.
     -623    1    1    2    0    0 -0.18560547579E-01  0.30615403250E-02  0.24733164680E-03  0.17130000103E+03  0.17130000000E+03 0. -1.
      622    1    1    2    0    0  0.12711406356E-01 -0.17927578255E-02  0.38960614667E+01  0.38961339487E+01  0.20000000000E-01 0.  1.
</event>
<event>
 5   0  0.3603037E+08  0.9118800E+02  0.7818608E-02  0.1180000E+00
       11   -1    0    0    0    0  0.00000000000E+00  0.00000000000E+00  0.39999999673E+01  0.40000000000E+01  0.51109989000E-03 0. -1.
     -623   -1    0    0    0    0  0.00000000000E+00  0.00000000000E+00  0.12525980253E-10  0.17130000000E+03  0.17130000000E+03 0. -1.
       11    1    1    2    0    0  0.32296248989E-02 -0.16269222957E-02  0.11538003298E+00  0.11543782130E+00  0.51109989000E-03 0. -1.
     -623    1    1    2    0    0  0.16807076983E-04 -0.33058840763E-03  0.11109203636E-03  0.17130000000E+03  0.17130000000E+03 0. -1.
      622    1    1    2    0    0 -0.32464319759E-02  0.19575107033E-02  0.38845088423E+01  0.38845621783E+01  0.20000000000E-01 0. -1.
</event>
<event>
 5   0  0.3603037E+08  0.9118800E+02  0.7818608E-02  0.1180000E+00
       11   -1    0    0    0    0  0.00000000000E+00  0.00000000000E+00  0.39999999673E+01  0.40000000000E+01  0.51109989000E-03 0. -1.
     -623   -1    0    0    0    0  0.00000000000E+00  0.00000000000E+00  0.12525980253E-10  0.17130000000E+03  0.17130000000E+03 0. -1.
       11    1    1    2    0    0  0.31337234152E-02 -0.32614999617E-02  0.76652768241E+00  0.76654119702E+00  0.51109989000E-03 0. -1.
     -623    1    1    2    0    0 -0.21049983177E-04 -0.65782498327E-03  0.79210726775E-04  0.17130000000E+03  0.17130000000E+03 0. -1.
      622    1    1    2    0    0 -0.31126734320E-02  0.39193249449E-02  0.32333930742E+01  0.32334588017E+01  0.20000000000E-01 0. -1.
</event>
<event>
 5   0  0.3603037E+08  0.9118800E+02  0.7818608E-02  0.1180000E+00
       11   -1    0    0    0    0  0.00000000000E+00  0.00000000000E+00  0.39999999673E+01  0.40000000000E+01  0.51109989000E-03 0. -1.
     -623   -1    0    0    0    0  0.00000000000E+00  0.00000000000E+00  0.12525980253E-10  0.17130000000E+03  0.17130000000E+03 0.  1.
       11    1    1    2    0    0 -0.66542857759E-02 -0.20205739385E-01  0.13916937108E+01  0.13918563853E+01  0.51109989000E-03 0. -1.
     -623    1    1    2    0    0  0.17193584192E-02  0.15195562648E-02  0.31095244807E-03  0.17130000002E+03  0.17130000000E+03 0.  1.
      622    1    1    2    0    0  0.49349273567E-02  0.18686183120E-01  0.26079953041E+01  0.26081435991E+01  0.20000000000E-01 0. -1.
</event>
<event>
 5   0  0.3603037E+08  0.9118800E+02  0.7818608E-02  0.1180000E+00
       11   -1    0    0    0    0  0.00000000000E+00  0.00000000000E+00  0.39999999673E+01  0.40000000000E+01  0.51109989000E-03 0.  1.
     -623   -1    0    0    0    0  0.00000000000E+00  0.00000000000E+00  0.12525980253E-10  0.17130000000E+03  0.17130000000E+03 0.  1.
       11    1    1    2    0    0 -0.89558287197E-02  0.11671009748E-02  0.24744775762E+01  0.24744941110E+01  0.51109989000E-03 0.  1.
     -623    1    1    2    0    0  0.16640384359E-02 -0.23843450774E-02  0.16555094894E-03  0.17130000002E+03  0.17130000000E+03 0.  1.
      622    1    1    2    0    0  0.72917902838E-02  0.12172441027E-02  0.15253568402E+01  0.15255058643E+01  0.20000000000E-01 0.  1.
</event>
<event>
 5   0  0.3603037E+08  0.9118800E+02  0.7818608E-02  0.1180000E+00
       11   -1    0    0    0    0  0.00000000000E+00  0.00000000000E+00  0.39999999673E+01  0.40000000000E+01  0.51109989000E-03 0. -1.
     -623   -1    0    0    0    0  0.00000000000E+00  0.00000000000E+00  0.12525980253E-10  0.17130000000E+03  0.17130000000E+03 0.  1.
       11    1    1    2    0    0 -0.40453558489E-03 -0.29861222982E-02  0.41801008850E+00  0.41802126248E+00  0.51109989000E-03 0. -1.
     -623    1    1    2    0    0  0.78801038429E-04 -0.51089273691E-04  0.68279354625E-04  0.17130000000E+03  0.17130000000E+03 0.  1.
      622    1    1    2    0    0  0.32573454647E-03  0.30372115719E-02  0.35819215995E+01  0.35819787375E+01  0.20000000000E-01 0. -1.
</event>
<event>
 5   0  0.3603037E+08  0.9118800E+02  0.7818608E-02  0.1180000E+00
       11   -1    0    0    0    0  0.00000000000E+00  0.00000000000E+00  0.39999999673E+01  0.40000000000E+01  0.51109989000E-03 0. -1.
     -623   -1    0    0    0    0  0.00000000000E+00  0.00000000000E+00  0.12525980253E-10  0.17130000000E+03  0.17130000000E+03 0. -1.
       11    1    1    2    0    0 -0.20467251455E-03  0.12103183817E-02  0.44369818213E-01  0.44389736991E-01  0.51109989000E-03 0. -1.
     -623    1    1    2    0    0  0.25077744532E-03 -0.54531640229E-03  0.70504794532E-04  0.17130000000E+03  0.17130000000E+03 0. -1.
      622    1    1    2    0    0 -0.46104930765E-04 -0.66500197942E-03  0.39555596444E+01  0.39556102619E+01  0.20000000000E-01 0.  0.
</event>
<event>
 5   0  0.3603037E+08  0.9118800E+02  0.7818608E-02  0.1180000E+00
       11   -1    0    0    0    0  0.00000000000E+00  0.00000000000E+00  0.39999999673E+01  0.40000000000E+01  0.51109989000E-03 0.  1.
     -623   -1    0    0    0    0  0.00000000000E+00  0.00000000000E+00  0.12525980253E-10  0.17130000000E+03  0.17130000000E+03 0.  1.
       11    1    1    2    0    0 -0.76791380667E-02  0.25928158185E-02  0.39877336806E+00  0.39885605442E+00  0.51109989000E-03 0.  1.
     -623    1    1    2    0    0  0.61286281527E-02  0.15075359630E-01  0.18264229745E-03  0.17130000077E+03  0.17130000000E+03 0.  1.
      622    1    1    2    0    0  0.15505099140E-02 -0.17668175448E-01  0.36010439570E+01  0.36011431725E+01  0.20000000000E-01 0.  1.
</event>
<event>
 5   0  0.3603037E+08  0.9118800E+02  0.7818608E-02  0.1180000E+00
       11   -1    0    0    0    0  0.00000000000E+00  0.00000000000E+00  0.39999999673E+01  0.40000000000E+01  0.51109989000E-03 0. -1.
     -623   -1    0    0    0    0  0.00000000000E+00  0.00000000000E+00  0.12525980253E-10  0.17130000000E+03  0.17130000000E+03 0. -1.
       11    1    1    2    0    0 -0.52156008130E-02 -0.30375548380E-02  0.11941295996E-01  0.13389734991E-01  0.51109989000E-03 0. -1.
     -623    1    1    2    0    0  0.61825224398E-02  0.28794293159E-02  0.14988373314E-02  0.17130000014E+03  0.17130000000E+03 0. -1.
      622    1    1    2    0    0 -0.96692162687E-03  0.15812552214E-03  0.39865598340E+01  0.39866101227E+01  0.20000000000E-01 0. -1.
</event>
<event>
 5   0  0.3603037E+08  0.9118800E+02  0.7818608E-02  0.1180000E+00
       11   -1    0    0    0    0  0.00000000000E+00  0.00000000000E+00  0.39999999673E+01  0.40000000000E+01  0.51109989000E-03 0.  1.
     -623   -1    0    0    0    0  0.00000000000E+00  0.00000000000E+00  0.12525980253E-10  0.17130000000E+03  0.17130000000E+03 0.  1.
       11    1    1    2    0    0 -0.19244664765E-03  0.19063874819E-04  0.12767207679E+00  0.12767324626E+00  0.51109989000E-03 0.  1.
     -623    1    1    2    0    0 -0.70514006311E-03 -0.22210823205E-04  0.52891208385E-04  0.17130000000E+03  0.17130000000E+03 0.  1.
      622    1    1    2    0    0  0.89758671075E-03  0.31469483861E-05  0.38722749994E+01  0.38723267523E+01  0.20000000000E-01 0.  1.
</event>
<event>
 5   0  0.3603037E+08  0.9118800E+02  0.7818608E-02  0.1180000E+00
       11   -1    0    0    0    0  0.00000000000E+00  0.00000000000E+00  0.39999999673E+01  0.40000000000E+01  0.51109989000E-03 0. -1.
     -623   -1    0    0    0    0  0.00000000000E+00  0.00000000000E+00  0.12525980253E-10  0.17130000000E+03  0.17130000000E+03 0.  1.
       11    1    1    2    0    0  0.16878594428E-02  0.14108819167E-02  0.55598066483E-02  0.60010106178E-02  0.51109989000E-03 0. -1.
     -623    1    1    2    0    0 -0.75796041495E-03 -0.12591988130E-03  0.49156415379E-03  0.17130000000E+03  0.17130000000E+03 0.  1.
      622    1    1    2    0    0 -0.92989902780E-03 -0.12849620354E-02  0.39939485966E+01  0.39939989870E+01  0.20000000000E-01 0. -1.
</event>
<event>
 5   0  0.3603037E+08  0.9118800E+02  0.7818608E-02  0.1180000E+00
       11   -1    0    0    0    0  0.00000000000E+00  0.00000000000E+00  0.39999999673E+01  0.40000000000E+01  0.51109989000E-03 0. -1.
     -623   -1    0    0    0    0  0.00000000000E+00  0.00000000000E+00  0.12525980253E-10  0.17130000000E+03  0.17130000000E+03 0.  1.
       11    1    1    2    0    0  0.34321469082E-01  0.43781232782E-02  0.66056080525E+00  0.66146652966E+00  0.51109989000E-03 0. -1.
     -623    1    1    2    0    0 -0.17746026341E-01 -0.20987174240E-01  0.10502717501E-02  0.17130000221E+03  0.17130000000E+03 0.  1.
      622    1    1    2    0    0 -0.16575442741E-01  0.16609050962E-01  0.33383888904E+01  0.33385312623E+01  0.20000000000E-01 0. -1.
</event>
<event>
 5   0  0.3603037E+08  0.9118800E+02  0.7818608E-02  0.1180000E+00
       11   -1    0    0    0    0  0.00000000000E+00  0.00000000000E+00  0.39999999673E+01  0.40000000000E+01  0.51109989000E-03 0.  1.
     -623   -1    0    0    0    0  0.00000000000E+00  0.00000000000E+00  0.12525980253E-10  0.17130000000E+03  0.17130000000E+03 0.  1.
       11    1    1    2    0    0 -0.96818248026E-04  0.35685469723E-02  0.90972158451E+00  0.90972873234E+00  0.51109989000E-03 0.  1.
     -623    1    1    2    0    0  0.53596187924E-03 -0.30869519912E-03  0.73586846462E-04  0.17130000000E+03  0.17130000000E+03 0.  1.
      622    1    1    2    0    0 -0.43914363122E-03 -0.32598517732E-02  0.30902047960E+01  0.30902712665E+01  0.20000000000E-01 0.  1.
</event>
<event>
 5   0  0.3603037E+08  0.9118800E+02  0.7818608E-02  0.1180000E+00
       11   -1    0    0    0    0  0.00000000000E+00  0.00000000000E+00  0.39999999673E+01  0.40000000000E+01  0.51109989000E-03 0.  1.
     -623   -1    0    0    0    0  0.00000000000E+00  0.00000000000E+00  0.12525980253E-10  0.17130000000E+03  0.17130000000E+03 0. -1.
       11    1    1    2    0    0  0.34963536741E-02  0.36489766718E-03  0.12973629561E+00  0.12978491923E+00  0.51109989000E-03 0.  1.
     -623    1    1    2    0    0  0.38211184798E-04 -0.14949402710E-03  0.10188816682E-03  0.17130000000E+03  0.17130000000E+03 0. -1.
      622    1    1    2    0    0 -0.35345648589E-02 -0.21540364008E-03  0.38701617836E+01  0.38702150807E+01  0.20000000000E-01 0.  1.
</event>
<event>
 5   0  0.3603037E+08  0.9118800E+02  0.7818608E-02  0.1180000E+00
       11   -1    0    0    0    0  0.00000000000E+00  0.00000000000E+00  0.39999999673E+01  0.40000000000E+01  0.51109989000E-03 0.  1.
     -623   -1    0    0    0    0  0.00000000000E+00  0.00000000000E+00  0.12525980253E-10  0.17130000000E+03  0.17130000000E+03 0. -1.
       11    1    1    2    0    0  0.95993759914E-04  0.29063292684E-03  0.60306183222E-01  0.60309125663E-01  0.51109989000E-03 0.  1.
     -623    1    1    2    0    0  0.78386910021E-03 -0.12690480145E-03  0.53779036771E-04  0.17130000000E+03  0.17130000000E+03 0. -1.
      622    1    1    2    0    0 -0.87986286012E-03 -0.16372812539E-03  0.39396400051E+01  0.39396908725E+01  0.20000000000E-01 0.  1.
</event>
<event>
 5   0  0.3603037E+08  0.9118800E+02  0.7818608E-02  0.1180000E+00
       11   -1    0    0    0    0  0.00000000000E+00  0.00000000000E+00  0.39999999673E+01  0.40000000000E+01  0.51109989000E-03 0.  1.
     -623   -1    0    0    0    0  0.00000000000E+00  0.00000000000E+00  0.12525980253E-10  0.17130000000E+03  0.17130000000E+03 0. -1.
       11    1    1    2    0    0 -0.10742381695E-02 -0.99314740964E-03  0.61841375525E-01  0.61860789505E-01  0.51109989000E-03 0.  1.
     -623    1    1    2    0    0 -0.81206051825E-05 -0.48182994925E-04  0.70453511927E-04  0.17130000000E+03  0.17130000000E+03 0. -1.
      622    1    1    2    0    0  0.10823587746E-02  0.10413304046E-02  0.39380881383E+01  0.39381392105E+01  0.20000000000E-01 0.  1.
</event>
<event>
 5   0  0.3603037E+08  0.9118800E+02  0.7818608E-02  0.1180000E+00
       11   -1    0    0    0    0  0.00000000000E+00  0.00000000000E+00  0.39999999673E+01  0.40000000000E+01  0.51109989000E-03 0. -1.
     -623   -1    0    0    0    0  0.00000000000E+00  0.00000000000E+00  0.12525980253E-10  0.17130000000E+03  0.17130000000E+03 0.  1.
       11    1    1    2    0    0 -0.40348544388E-02 -0.10488268722E-02  0.15505685606E+01  0.15505742492E+01  0.51109989000E-03 0. -1.
     -623    1    1    2    0    0  0.76697910485E-04 -0.13522490918E-03  0.90793655747E-04  0.17130000000E+03  0.17130000000E+03 0.  1.
      622    1    1    2    0    0  0.39581565284E-02  0.11840517814E-02  0.24493406131E+01  0.24494257507E+01  0.20000000000E-01 0. -1.
</event>
<event>
 5   0  0.3603037E+08  0.9118800E+02  0.7818608E-02  0.1180000E+00
       11   -1    0    0    0    0  0.00000000000E+00  0.00000000000E+00  0.39999999673E+01  0.40000000000E+01  0.51109989000E-03 0.  1.
     -623   -1    0    0    0    0  0.00000000000E+00  0.00000000000E+00  0.12525980253E-10  0.17130000000E+03  0.17130000000E+03 0. -1.
       11    1    1    2    0    0  0.32714617111E-02  0.26854864489E-02  0.22043931032E+00  0.22048053214E+00  0.51109989000E-03 0.  1.
     -623    1    1    2    0    0  0.13181458478E-03 -0.32532623786E-02  0.95712220059E-04  0.17130000003E+03  0.17130000000E+03 0. -1.
      622    1    1    2    0    0 -0.34032762959E-02  0.56777592969E-03  0.37794649448E+01  0.37795194369E+01  0.20000000000E-01 0.  1.
</event>
<event>
 5   0  0.3603037E+08  0.9118800E+02  0.7818608E-02  0.1180000E+00
       11   -1    0    0    0    0  0.00000000000E+00  0.00000000000E+00  0.39999999673E+01  0.40000000000E+01  0.51109989000E-03 0.  1.
     -623   -1    0    0    0    0  0.00000000000E+00  0.00000000000E+00  0.12525980253E-10  0.17130000000E+03  0.17130000000E+03 0.  1.
       11    1    1    2    0    0  0.28647777321E-01 -0.10222189862E-01  0.15169693551E+00  0.15471719289E+00  0.51109989000E-03 0.  1.
     -623    1    1    2    0    0 -0.21116449414E-01  0.10744607091E-01  0.30813140930E-02  0.17130000167E+03  0.17130000000E+03 0.  1.
      622    1    1    2    0    0 -0.75313279064E-02 -0.52241722879E-03  0.38452217178E+01  0.38452811409E+01  0.20000000000E-01 0.  1.
</event>
<event>
 5   0  0.3603037E+08  0.9118800E+02  0.7818608E-02  0.1180000E+00
       11   -1    0    0    0    0  0.00000000000E+00  0.00000000000E+00  0.39999999673E+01  0.40000000000E+01  0.51109989000E-03 0.  1.
     -623   -1    0    0    0    0  0.00000000000E+00  0.00000000000E+00  0.12525980253E-10  0.17130000000E+03  0.17130000000E+03 0. -1.
       11    1    1    2    0    0 -0.90767382846E-02  0.85033115937E-02  0.12486263132E+01  0.12486883617E+01  0.51109989000E-03 0.  1.
     -623    1    1    2    0    0  0.63728107490E-02 -0.32936772551E-02  0.14112082075E-03  0.17130000015E+03  0.17130000000E+03 0. -1.
      622    1    1    2    0    0  0.27039275357E-02 -0.52096343386E-02  0.27512325334E+01  0.27513114880E+01  0.20000000000E-01 0.  1.
</event>
<event>
 5   0  0.3603037E+08  0.9118800E+02  0.7818608E-02  0.1180000E+00
       11   -1    0    0    0    0  0.00000000000E+00  0.00000000000E+00  0.39999999673E+01  0.40000000000E+01  0.51109989000E-03 0.  1.
     -623   -1    0    0    0    0  0.00000000000E+00  0.00000000000E+00  0.12525980253E-10  0.17130000000E+03  0.17130000000E+03 0.  1.
       11    1    1    2    0    0 -0.11433269218E-02  0.86362340941E-03  0.28390021934E+00  0.28390429515E+00  0.51109989000E-03 0.  1.
     -623    1    1    2    0    0  0.24639020436E-04 -0.90273016619E-03  0.58034469274E-04  0.17130000000E+03  0.17130000000E+03 0.  1.
      622    1    1    2    0    0  0.11186879014E-02  0.39106756779E-04  0.37160417136E+01  0.37160957025E+01  0.20000000000E-01 0.  1.
</event>
<event>
 5   0  0.3603037E+08  0.9118800E+02  0.7818608E-02  0.1180000E+00
       11   -1    0    0    0    0  0.00000000000E+00  0.00000000000E+00  0.39999999673E+01  0.40000000000E+01  0.51109989000E-03 0. -1.
     -623   -1    0    0    0    0  0.00000000000E+00  0.00000000000E+00  0.12525980253E-10  0.17130000000E+03  0.17130000000E+03 0.  1.
       11    1    1    2    0    0 -0.42520602542E-02  0.20624240481E-02  0.13929176669E+00  0.13937284921E+00  0.51109989000E-03 0. -1.
     -623    1    1    2    0    0 -0.82805405701E-03 -0.14239764789E-02  0.13625850847E-03  0.17130000001E+03  0.17130000000E+03 0.  1.
      622    1    1    2    0    0  0.50801143112E-02 -0.63844756915E-03  0.38605719422E+01  0.38606271428E+01  0.20000000000E-01 0. -1.
</event>
<event>
 5   0  0.3603037E+08  0.9118800E+02  0.7818608E-02  0.1180000E+00
       11   -1    0    0    0    0  0.00000000000E+00  0.00000000000E+00  0.39999999673E+01  0.40000000000E+01  0.51109989000E-03 0.  1.
     -623   -1    0    0    0    0  0.00000000000E+00  0.00000000000E+00  0.12525980253E-10  0.17130000000E+03  0.17130000000E+03 0.  1.
       11    1    1    2    0    0 -0.13517179314E-02  0.21163776230E-02  0.78214306159E-02  0.82305646408E-02  0.51109989000E-03 0.  1.
     -623    1    1    2    0    0  0.19467413677E-02 -0.13992187203E-02  0.45933095750E-03  0.17130000002E+03  0.17130000000E+03 0.  1.
      622    1    1    2    0    0 -0.59502343633E-03 -0.71715890264E-03  0.39917192058E+01  0.39917694180E+01  0.20000000000E-01 0.  1.
</event>
<event>
 5   0  0.3603037E+08  0.9118800E+02  0.7818608E-02  0.1180000E+00
       11   -1    0    0    0    0  0.00000000000E+00  0.00000000000E+00  0.39999999673E+01  0.40000000000E+01  0.51109989000E-03 0.  1.
     -623   -1    0    0    0    0  0.00000000000E+00  0.00000000000E+00  0.12525980253E-10  0.17130000000E+03  0.17130000000E+03 0. -1.
       11    1    1    2    0    0  0.70492983354E-03 -0.50608030816E-02  0.17148420440E+00  0.17156107435E+00  0.51109989000E-03 0.  1.
     -623    1    1    2    0    0  0.96008972308E-03  0.19809933149E-02  0.13069335081E-03  0.17130000001E+03  0.17130000000E+03 0. -1.
      622    1    1    2    0    0 -0.16650195566E-02  0.30798097667E-02  0.38283850696E+01  0.38284389115E+01  0.20000000000E-01 0.  1.
</event>
<event>
 5   0  0.3603037E+08  0.9118800E+02  0.7818608E-02  0.1180000E+00
       11   -1    0    0    0    0  0.00000000000E+00  0.00000000000E+00  0.39999999673E+01  0.40000000000E+01  0.51109989000E-03 0. -1.
     -623   -1    0    0    0    0  0.00000000000E+00  0.00000000000E+00  0.12525980253E-10  0.17130000000E+03  0.17130000000E+03 0.  1.
       11    1    1    2    0    0 -0.17020477140E-02  0.13035368360E-02  0.76680715610E-01  0.76712381943E-01  0.51109989000E-03 0. -1.
     -623    1    1    2    0    0  0.57072267102E-02 -0.42882038052E-02  0.85940185617E-04  0.17130000015E+03  0.17130000000E+03 0.  1.
      622    1    1    2    0    0 -0.40051789962E-02  0.29846669691E-02  0.39232333116E+01  0.39232874693E+01  0.20000000000E-01 0. -1.
</event>
<event>
 5   0  0.3603037E+08  0.9118800E+02  0.7818608E-02  0.1180000E+00
       11   -1    0    0    0    0  0.00000000000E+00  0.00000000000E+00  0.39999999673E+01  0.40000000000E+01  0.51109989000E-03 0. -1.
     -623   -1    0    0    0    0  0.00000000000E+00  0.00000000000E+00  0.12525980253E-10  0.17130000000E+03  0.17130000000E+03 0. -1.
       11    1    1    2    0    0  0.10352388039E-01 -0.10117162189E-01  0.70339608285E+00  0.70354519364E+00  0.51109989000E-03 0. -1.
     -623    1    1    2    0    0 -0.56277175313E-02 -0.49636958753E-02  0.24779774207E-03  0.17130000016E+03  0.17130000000E+03 0. -1.
      622    1    1    2    0    0 -0.47246705080E-02  0.15080858065E-01  0.32963560868E+01  0.32964546418E+01  0.20000000000E-01 0. -1.
</event>
<event>
 5   0  0.3603037E+08  0.9118800E+02  0.7818608E-02  0.1180000E+00
       11   -1    0    0    0    0  0.00000000000E+00  0.00000000000E+00  0.39999999673E+01  0.40000000000E+01  0.51109989000E-03 0. -1.
     -623   -1    0    0    0    0  0.00000000000E+00  0.00000000000E+00  0.12525980253E-10  0.17130000000E+03  0.17130000000E+03 0.  1.
       11    1    1    2    0    0 -0.29074615819E-03 -0.34482402792E-03  0.19849456985E-01  0.19861158106E-01  0.51109989000E-03 0. -1.
     -623    1    1    2    0    0 -0.28157085830E-04  0.75649974784E-04  0.61940209782E-04  0.17130000000E+03  0.17130000000E+03 0.  1.
      622    1    1    2    0    0  0.31890324402E-03  0.26917405314E-03  0.39800885702E+01  0.39801388419E+01  0.20000000000E-01 0. -1.
</event>
<event>
 5   0  0.3603037E+08  0.9118800E+02  0.7818608E-02  0.1180000E+00
       11   -1    0    0    0    0  0.00000000000E+00  0.00000000000E+00  0.39999999673E+01  0.40000000000E+01  0.51109989000E-03 0.  1.
     -623   -1    0    0    0    0  0.00000000000E+00  0.00000000000E+00  0.12525980253E-10  0.17130000000E+03  0.17130000000E+03 0.  1.
       11    1    1    2    0    0 -0.92152483458E-03  0.59371688433E-03  0.94871305146E-02  0.95639204006E-02  0.51109989000E-03 0.  1.
     -623    1    1    2    0    0  0.13597308107E-02  0.11796051300E-03  0.12697040458E-03  0.17130000001E+03  0.17130000000E+03 0.  1.
      622    1    1    2    0    0 -0.43820597612E-03 -0.71167739732E-03  0.39903858664E+01  0.39904360741E+01  0.20000000000E-01 0.  1.
</event>
<event>
 5   0  0.3603037E+08  0.9118800E+02  0.7818608E-02  0.1180000E+00
       11   -1    0    0    0    0  0.00000000000E+00  0.00000000000E+00  0.39999999673E+01  0.40000000000E+01  0.51109989000E-03 0.  1.
     -623   -1    0    0    0    0  0.00000000000E+00  0.00000000000E+00  0.12525980253E-10  0.17130000000E+03  0.17130000000E+03 0. -1.
       11    1    1    2    0    0  0.25463967788E-02  0.42192147912E-02  0.11781003520E+00  0.11791417016E+00  0.51109989000E-03 0.  1.
     -623    1    1    2    0    0  0.27007503133E-03  0.55972225111E-03  0.15958578857E-03  0.17130000000E+03  0.17130000000E+03 0. -1.
      622    1    1    2    0    0 -0.28164718101E-02 -0.47789370423E-02  0.38820303464E+01  0.38820858286E+01  0.20000000000E-01 0.  1.
</event>
<event>
 5   0  0.3603037E+08  0.9118800E+02  0.7818608E-02  0.1180000E+00
       11   -1    0    0    0    0  0.00000000000E+00  0.00000000000E+00  0.39999999673E+01  0.40000000000E+01  0.51109989000E-03 0.  1.
     -623   -1    0    0    0    0  0.00000000000E+00  0.00000000000E+00  0.12525980253E-10  0.17130000000E+03  0.17130000000E+03 0.  1.
       11    1    1    2    0    0  0.44920971376E-03 -0.31104384018E-03  0.14524701742E-01  0.14543958192E-01  0.51109989000E-03 0.  1.
     -623    1    1    2    0    0 -0.17945698591E-03 -0.20970828828E-03  0.69449976732E-04  0.17130000000E+03  0.17130000000E+03 0.  1.
      622    1    1    2    0    0 -0.26975272785E-03  0.52075212846E-03  0.39854058156E+01  0.39854560416E+01  0.20000000000E-01 0.  1.
</event>
<event>
 5   0  0.3603037E+08  0.9118800E+02  0.7818608E-02  0.1180000E+00
       11   -1    0    0    0    0  0.00000000000E+00  0.00000000000E+00  0.39999999673E+01  0.40000000000E+01  0.51109989000E-03 0. -1.
     -623   -1    0    0    0    0  0.00000000000E+00  0.00000000000E+00  0.12525980253E-10  0.17130000000E+03  0.17130000000E+03 0. -1.
       11    1    1    2    0    0 -0.25964522015E-01 -0.71592340751E-02  0.21236729461E+00  0.21406900775E+00  0.51109989000E-03 0. -1.
     -623    1    1    2    0    0  0.16437765270E-01  0.33151146595E-02  0.17692761226E-02  0.17130000083E+03  0.17130000000E+03 0. -1.
      622    1    1    2    0    0  0.95267567447E-02  0.38441194156E-02  0.37858633966E+01  0.37859301624E+01  0.20000000000E-01 0. -1.
</event>
<event>
 5   0  0.3603037E+08  0.9118800E+02  0.7818608E-02  0.1180000E+00
       11   -1    0    0    0    0  0.00000000000E+00  0.00000000000E+00  0.39999999673E+01  0.40000000000E+01  0.51109989000E-03 0. -1.
     -623   -1    0    0    0    0  0.00000000000E+00  0.00000000000E+00  0.12525980253E-10  0.17130000000E+03  0.17130000000E+03 0. -1.
       11    1    1    2    0    0  0.77116571153E-03  0.15634263227E-02  0.53232110620E-02  0.56246597147E-02  0.51109989000E-03 0. -1.
     -623    1    1    2    0    0 -0.45237836235E-03  0.58063965795E-04  0.35182954423E-03  0.17130000000E+03  0.17130000000E+03 0. -1.
      622    1    1    2    0    0 -0.31878734918E-03 -0.16214902885E-02  0.39943249268E+01  0.39943753393E+01  0.20000000000E-01 0. -1.
</event>
<event>
 5   0  0.3603037E+08  0.9118800E+02  0.7818608E-02  0.1180000E+00
       11   -1    0    0    0    0  0.00000000000E+00  0.00000000000E+00  0.39999999673E+01  0.40000000000E+01  0.51109989000E-03 0. -1.
     -623   -1    0    0    0    0  0.00000000000E+00  0.00000000000E+00  0.12525980253E-10  0.17130000000E+03  0.17130000000E+03 0.  1.
       11    1    1    2    0    0 -0.17859565482E-02  0.44756684928E-03  0.41999321944E+00  0.41999756613E+00  0.51109989000E-03 0. -1.
     -623    1    1    2    0    0 -0.44029475278E-03 -0.69800569338E-03  0.60883343712E-04  0.17130000000E+03  0.17130000000E+03 0.  1.
      622    1    1    2    0    0  0.22262513010E-02  0.25043884410E-03  0.35799458646E+01  0.35800024319E+01  0.20000000000E-01 0. -1.
</event>
<event>
 5   0  0.3603037E+08  0.9118800E+02  0.7818608E-02  0.1180000E+00
       11   -1    0    0    0    0  0.00000000000E+00  0.00000000000E+00  0.39999999673E+01  0.40000000000E+01  0.51109989000E-03 0. -1.
     -623   -1    0    0    0    0  0.00000000000E+00  0.00000000000E+00  0.12525980253E-10  0.17130000000E+03  0.17130000000E+03 0. -1.
       11    1    1    2    0    0  0.26417621012E-02 -0.11098089092E-02  0.27701134272E-01  0.27853628915E-01  0.51109989000E-03 0. -1.
     -623    1    1    2    0    0  0.25618969815E-03  0.12997612296E-02  0.20387985956E-03  0.17130000001E+03  0.17130000000E+03 0. -1.
      622    1    1    2    0    0 -0.28979517994E-02 -0.18995232042E-03  0.39720949532E+01  0.39721463658E+01  0.20000000000E-01 0. -1.
</event>
<event>
 5   0  0.3603037E+08  0.9118800E+02  0.7818608E-02  0.1180000E+00
       11   -1    0    0    0    0  0.00000000000E+00  0.00000000000E+00  0.39999999673E+01  0.40000000000E+01  0.51109989000E-03 0. -1.
     -623   -1    0    0    0    0  0.00000000000E+00  0.00000000000E+00  0.12525980253E-10  0.17130000000E+03  0.17130000000E+03 0.  1.
       11    1    1    2    0    0 -0.94625153734E-02 -0.94959796427E-02  0.13817848093E+00  0.13882819109E+00  0.51109989000E-03 0. -1.
     -623    1    1    2    0    0  0.86441190628E-02  0.36449346737E-02  0.70625394942E-03  0.17130000026E+03  0.17130000000E+03 0.  1.
      622    1    1    2    0    0  0.81839631059E-03  0.58510449690E-02  0.38611152325E+01  0.38611715506E+01  0.20000000000E-01 0. -1.
</event>
<event>
 5   0  0.3603037E+08  0.9118800E+02  0.7818608E-02  0.1180000E+00
       11   -1    0    0    0    0  0.00000000000E+00  0.00000000000E+00  0.39999999673E+01  0.40000000000E+01  0.51109989000E-03 0. -1.
     -623   -1    0    0    0    0  0.00000000000E+00  0.00000000000E+00  0.12525980253E-10  0.17130000000E+03  0.17130000000E+03 0. -1.
       11    1    1    2    0    0  0.25813847026E-02 -0.23160394915E-02  0.81594574482E+00  0.81595327519E+00  0.51109989000E-03 0. -1.
     -623    1    1    2    0    0 -0.17193586295E-01  0.88556668808E-02  0.11164927714E-03  0.17130000109E+03  0.17130000000E+03 0. -1.
      622    1    1    2    0    0  0.14612201593E-01 -0.65396273892E-02  0.31839425733E+01  0.31840456330E+01  0.20000000000E-01 0. -1.
</event>
<event>
 5   0  0.3603037E+08  0.9118800E+02  0.7818608E-02  0.1180000E+00
       11   -1    0    0    0    0  0.00000000000E+00  0.00000000000E+00  0.39999999673E+01  0.40000000000E+01  0.51109989000E-03 0. -1.
     -623   -1    0    0    0    0  0.00000000000E+00  0.00000000000E+00  0.12525980253E-10  0.17130000000E+03  0.17130000000E+03 0. -1.
       11    1    1    2    0    0  0.10902969837E-02  0.48951589394E-03  0.64598299563E+00  0.64598430340E+00  0.51109989000E-03 0. -1.
     -623    1    1    2    0    0  0.53420857903E-04 -0.30775864854E-04  0.61132074395E-04  0.17130000000E+03  0.17130000000E+03 0. -1.
      622    1    1    2    0    0 -0.11437178416E-02 -0.45874002909E-03  0.33539558397E+01  0.33540156966E+01  0.20000000000E-01 0. -1.
</event>
<event>
 5   0  0.3603037E+08  0.9118800E+02  0.7818608E-02  0.1180000E+00
       11   -1    0    0    0    0  0.00000000000E+00  0.00000000000E+00  0.39999999673E+01  0.40000000000E+01  0.51109989000E-03 0. -1.
     -623   -1    0    0    0    0  0.00000000000E+00  0.00000000000E+00  0.12525980253E-10  0.17130000000E+03  0.17130000000E+03 0. -1.
       11    1    1    2    0    0 -0.14418850473E-02  0.73756482657E-03  0.26297338648E-01  0.26352120867E-01  0.51109989000E-03 0. -1.
     -623    1    1    2    0    0  0.18232210768E-03  0.39784689143E-03  0.10544392187E-03  0.17130000000E+03  0.17130000000E+03 0. -1.
      622    1    1    2    0    0  0.12595629396E-02 -0.11354117180E-02  0.39735971848E+01  0.39736478785E+01  0.20000000000E-01 0. -1.
</event>
<event>
 5   0  0.3603037E+08  0.9118800E+02  0.7818608E-02  0.1180000E+00
       11   -1    0    0    0    0  0.00000000000E+00  0.00000000000E+00  0.39999999673E+01  0.40000000000E+01  0.51109989000E-03 0. -1.
     -623   -1    0    0    0    0  0.00000000000E+00  0.00000000000E+00  0.12525980253E-10  0.17130000000E+03  0.17130000000E+03 0.  1.
       11    1    1    2    0    0 -0.11768486028E-02 -0.15470304953E-02  0.18476221741E+00  0.18477314870E+00  0.51109989000E-03 0. -1.
     -623    1    1    2    0    0 -0.64539939294E-03  0.45145101251E-03  0.63914838942E-04  0.17130000000E+03  0.17130000000E+03 0.  1.
      622    1    1    2    0    0  0.18222479957E-02  0.10955794828E-02  0.38151738351E+01  0.38152268495E+01  0.20000000000E-01 0. -1.
</event>
<event>
 5   0  0.3603037E+08  0.9118800E+02  0.7818608E-02  0.1180000E+00
       11   -1    0    0    0    0  0.00000000000E+00  0.00000000000E+00  0.39999999673E+01  0.40000000000E+01  0.51109989000E-03 0. -1.
     -623   -1    0    0    0    0  0.00000000000E+00  0.00000000000E+00  0.12525980253E-10  0.17130000000E+03  0.17130000000E+03 0. -1.
       11    1    1    2    0    0  0.24869866467E-02  0.31829270787E-02  0.31191624053E+00  0.31194281280E+00  0.51109989000E-03 0. -1.
     -623    1    1    2    0    0  0.34007728756E-03 -0.13409836572E-03  0.83113299004E-04  0.17130000000E+03  0.17130000000E+03 0. -1.
      622    1    1    2    0    0 -0.28270639343E-02 -0.30488287130E-02  0.36880006135E+01  0.36880571868E+01  0.20000000000E-01 0. -1.
</event>
<event>
 5   0  0.3603037E+08  0.9118800E+02  0.7818608E-02  0.1180000E+00
       11   -1    0    0    0    0  0.00000000000E+00  0.00000000000E+00  0.39999999673E+01  0.40000000000E+01  0.51109989000E-03 0.  1.
     -623   -1    0    0    0    0  0.00000000000E+00  0.00000000000E+00  0.12525980253E-10  0.17130000000E+03  0.17130000000E+03 0. -1.
       11    1    1    2    0    0  0.13948203810E-02 -0.23252074060E-02  0.10242074528E+00  0.10245790550E+00  0.51109989000E-03 0.  1.
     -623    1    1    2    0    0  0.11737333759E-02  0.11226478813E-02  0.89481924682E-04  0.17130000001E+03  0.17130000000E+03 0. -1.
      622    1    1    2    0    0 -0.25685537569E-02  0.12025595248E-02  0.38974897402E+01  0.38975420868E+01  0.20000000000E-01 0.  1.
</event>
<event>
 5   0  0.3603037E+08  0.9118800E+02  0.7818608E-02  0.1180000E+00
       11   -1    0    0    0    0  0.00000000000E+00  0.00000000000E+00  0.39999999673E+01  0.40000000000E+01  0.51109989000E-03 0. -1.
     -623   -1    0    0    0    0  0.00000000000E+00  0.00000000000E+00  0.12525980253E-10  0.17130000000E+03  0.17130000000E+03 0.  1.
       11    1    1    2    0    0  0.92214952408E-03 -0.44595254550E-02  0.31885790713E+00  0.31889083381E+00  0.51109989000E-03 0. -1.
     -623    1    1    2    0    0 -0.26518318690E-03 -0.42460693554E-04  0.90037749214E-04  0.17130000000E+03  0.17130000000E+03 0.  1.
      622    1    1    2    0    0 -0.65696633718E-03  0.45019861486E-02  0.36810520225E+01  0.36811091660E+01  0.20000000000E-01 0. -1.
</event>
<event>
 5   0  0.3603037E+08  0.9118800E+02  0.7818608E-02  0.1180000E+00
       11   -1    0    0    0    0  0.00000000000E+00  0.00000000000E+00  0.39999999673E+01  0.40000000000E+01  0.51109989000E-03 0. -1.
     -623   -1    0    0    0    0  0.00000000000E+00  0.00000000000E+00  0.12525980253E-10  0.17130000000E+03  0.17130000000E+03 0. -1.
       11    1    1    2    0    0  0.14289517628E-02  0.35463004717E-02  0.22514008371E+00  0.22517312599E+00  0.51109989000E-03 0. -1.
     -623    1    1    2    0    0  0.49938273126E-02  0.11834471445E-02  0.94496823768E-04  0.17130000008E+03  0.17130000000E+03 0. -1.
      622    1    1    2    0    0 -0.64227790754E-02 -0.47297476162E-02  0.37747653868E+01  0.37748267971E+01  0.20000000000E-01 0.  0.
</event>
<event>
 5   0  0.3603037E+08  0.9118800E+02  0.7818608E-02  0.1180000E+00
       11   -1    0    0    0    0  0.00000000000E+00  0.00000000000E+00  0.39999999673E+01  0.40000000000E+01  0.51109989000E-03 0.  1.
     -623   -1    0    0    0    0  0.00000000000E+00  0.00000000000E+00  0.12525980253E-10  0.17130000000E+03  0.17130000000E+03 0. -1.
       11    1    1    2    0    0  0.70031664690E-02  0.10803431395E-01  0.11502168832E+00  0.11574112699E+00  0.51109989000E-03 0.  1.
     -623    1    1    2    0    0  0.17810169267E-02 -0.40357714278E-03  0.79476332527E-03  0.17130000001E+03  0.17130000000E+03 0. -1.
      622    1    1    2    0    0 -0.87841833956E-02 -0.10399854252E-01  0.38841835157E+01  0.38842588614E+01  0.20000000000E-01 0.  1.
</event>
<event>
 5   0  0.3603037E+08  0.9118800E+02  0.7818608E-02  0.1180000E+00
       11   -1    0    0    0    0  0.00000000000E+00  0.00000000000E+00  0.39999999673E+01  0.40000000000E+01  0.51109989000E-03 0.  1.
     -623   -1    0    0    0    0  0.00000000000E+00  0.00000000000E+00  0.12525980253E-10  0.17130000000E+03  0.17130000000E+03 0. -1.
       11    1    1    2    0    0 -0.19874610910E-02 -0.22796972979E-01  0.26855201046E+00  0.26952568620E+00  0.51109989000E-03 0.  1.
     -623    1    1    2    0    0  0.18178215896E-01  0.55489783105E-02  0.11033242037E-02  0.17130000106E+03  0.17130000000E+03 0. -1.
      622    1    1    2    0    0 -0.16190754805E-01  0.17247994668E-01  0.37303446327E+01  0.37304732558E+01  0.20000000000E-01 0.  1.
</event>
<event>
 5   0  0.3603037E+08  0.9118800E+02  0.7818608E-02  0.1180000E+00
       11   -1    0    0    0    0  0.00000000000E+00  0.00000000000E+00  0.39999999673E+01  0.40000000000E+01  0.51109989000E-03 0. -1.
     -623   -1    0    0    0    0  0.00000000000E+00  0.00000000000E+00  0.12525980253E-10  0.17130000000E+03  0.17130000000E+03 0. -1.
       11    1    1    2    0    0 -0.13679950440E-03  0.71833529530E-03  0.40564133774E-01  0.40573943500E-01  0.51109989000E-03 0. -1.
     -623    1    1    2    0    0  0.10820272931E-03  0.21040794315E-03  0.60398983540E-04  0.17130000000E+03  0.17130000000E+03 0. -1.
      622    1    1    2    0    0  0.28596775087E-04 -0.92874323845E-03  0.39593754346E+01  0.39594260563E+01  0.20000000000E-01 0. -1.
</event>
<event>
 5   0  0.3603037E+08  0.9118800E+02  0.7818608E-02  0.1180000E+00
       11   -1    0    0    0    0  0.00000000000E+00  0.00000000000E+00  0.39999999673E+01  0.40000000000E+01  0.51109989000E-03 0. -1.
     -623   -1    0    0    0    0  0.00000000000E+00  0.00000000000E+00  0.12525980253E-10  0.17130000000E+03  0.17130000000E+03 0. -1.
       11    1    1    2    0    0 -0.54778272057E-03  0.37087434582E-02  0.35715821549E+00  0.35717825656E+00  0.51109989000E-03 0. -1.
     -623    1    1    2    0    0  0.10419479433E-02  0.23556040728E-04  0.76860060597E-04  0.17130000000E+03  0.17130000000E+03 0. -1.
      622    1    1    2    0    0 -0.49416522272E-03 -0.37322994990E-02  0.36427648918E+01  0.36428217403E+01  0.20000000000E-01 0. -1.
</event>
<event>
 5   0  0.3603037E+08  0.9118800E+02  0.7818608E-02  0.1180000E+00
       11   -1    0    0    0    0  0.00000000000E+00  0.00000000000E+00  0.39999999673E+01  0.40000000000E+01  0.51109989000E-03 0. -1.
     -623   -1    0    0    0    0  0.00000000000E+00  0.00000000000E+00  0.12525980253E-10  0.17130000000E+03  0.17130000000E+03 0.  1.
       11    1    1    2    0    0  0.52241033667E-02 -0.33282219049E-02  0.11027255995E-01  0.12658195516E-01  0.51109989000E-03 0. -1.
     -623    1    1    2    0    0 -0.39224534530E-02  0.50311634812E-02  0.16817690940E-02  0.17130000013E+03  0.17130000000E+03 0.  1.
      622    1    1    2    0    0 -0.13016499137E-02 -0.17029415763E-02  0.39872909423E+01  0.39873416774E+01  0.20000000000E-01 0. -1.
</event>
<event>
 5   0  0.3603037E+08  0.9118800E+02  0.7818608E-02  0.1180000E+00
       11   -1    0    0    0    0  0.00000000000E+00  0.00000000000E+00  0.39999999673E+01  0.40000000000E+01  0.51109989000E-03 0.  1.
     -623   -1    0    0    0    0  0.00000000000E+00  0.00000000000E+00  0.12525980253E-10  0.17130000000E+03  0.17130000000E+03 0.  1.
       11    1    1    2    0    0  0.34616923049E-03 -0.19833316887E-02  0.28574618817E+00  0.28575373788E+00  0.51109989000E-03 0.  1.
     -623    1    1    2    0    0  0.19869157775E-03  0.88436976166E-03  0.61569141620E-04  0.17130000000E+03  0.17130000000E+03 0.  1.
      622    1    1    2    0    0 -0.54486080824E-03  0.10989619270E-02  0.37141922101E+01  0.37142462597E+01  0.20000000000E-01 0.  1.
</event>
<event>
 5   0  0.3603037E+08  0.9118800E+02  0.7818608E-02  0.1180000E+00
       11   -1    0    0    0    0  0.00000000000E+00  0.00000000000E+00  0.39999999673E+01  0.40000000000E+01  0.51109989000E-03 0.  1.
     -623   -1    0    0    0    0  0.00000000000E+00  0.00000000000E+00  0.12525980253E-10  0.17130000000E+03  0.17130000000E+03 0.  1.
       11    1    1    2    0    0  0.95390600920E-03 -0.24365255799E-02  0.12382030379E-01  0.12665800124E-01  0.51109989000E-03 0.  1.
     -623    1    1    2    0    0 -0.12669059235E-02  0.41412651705E-02  0.33432802689E-03  0.17130000006E+03  0.17130000000E+03 0.  1.
      622    1    1    2    0    0  0.31299991429E-03 -0.17047395906E-02  0.39872836090E+01  0.39873341448E+01  0.20000000000E-01 0.  1.
</event>
<event>
 5   0  0.3603037E+08  0.9118800E+02  0.7818608E-02  0.1180000E+00
       11   -1    0    0    0    0  0.00000000000E+00  0.00000000000E+00  0.39999999673E+01  0.40000000000E+01  0.51109989000E-03 0.  1.
     -623   -1    0    0    0    0  0.00000000000E+00  0.00000000000E+00  0.12525980253E-10  0.17130000000E+03  0.17130000000E+03 0. -1.
       11    1    1    2    0    0 -0.23979461957E-01 -0.17374046868E-02  0.11231776646E+01  0.11234350719E+01  0.51109989000E-03 0.  1.
     -623    1    1    2    0    0  0.22082293848E-02 -0.21954908240E-02  0.41201109757E-03  0.17130000003E+03  0.17130000000E+03 0. -1.
      622    1    1    2    0    0  0.21771232572E-01  0.39328955108E-02  0.28764102917E+01  0.28765648993E+01  0.20000000000E-01 0.  1.
</event>
<event>
 5   0  0.3603037E+08  0.9118800E+02  0.7818608E-02  0.1180000E+00
       11   -1    0    0    0    0  0.00000000000E+00  0.00000000000E+00  0.39999999673E+01  0.40000000000E+01  0.51109989000E-03 0.  1.
     -623   -1    0    0    0    0  0.00000000000E+00  0.00000000000E+00  0.12525980253E-10  0.17130000000E+03  0.17130000000E+03 0.  1.
       11    1    1    2    0    0  0.37304523489E-02 -0.14150997157E-03  0.39338914003E-01  0.39518953369E-01  0.51109989000E-03 0.  1.
     -623    1    1    2    0    0 -0.11375248359E-02  0.22084958341E-02  0.23191233139E-03  0.17130000002E+03  0.17130000000E+03 0.  1.
      622    1    1    2    0    0 -0.25929275130E-02 -0.20669858625E-02  0.39604291410E+01  0.39604810285E+01  0.20000000000E-01 0.  1.
</event>
<event>
 5   0  0.3603037E+08  0.9118800E+02  0.7818608E-02  0.1180000E+00
       11   -1    0    0    0    0  0.00000000000E+00  0.00000000000E+00  0.39999999673E+01  0.40000000000E+01  0.51109989000E-03 0.  1.
     -623   -1    0    0    0    0  0.00000000000E+00  0.00000000000E+00  0.12525980253E-10  0.17130000000E+03  0.17130000000E+03 0.  1.
       11    1    1    2    0    0  0.66482844860E-03 -0.22241523465E-02  0.79143257944E-01  0.79178945116E-01  0.51109989000E-03 0.  1.
     -623    1    1    2    0    0  0.94616046012E-03 -0.79322274703E-03  0.88161093071E-04  0.17130000000E+03  0.17130000000E+03 0.  1.
      622    1    1    2    0    0 -0.16109889087E-02  0.30173750935E-02  0.39207685483E+01  0.39208210504E+01  0.20000000000E-01 0.  1.
</event>
<event>
 5   0  0.3603037E+08  0.9118800E+02  0.7818608E-02  0.1180000E+00
       11   -1    0    0    0    0  0.00000000000E+00  0.00000000000E+00  0.39999999673E+01  0.40000000000E+01  0.51109989000E-03 0.  1.
     -623   -1    0    0    0    0  0.00000000000E+00  0.00000000000E+00  0.12525980253E-10  0.17130000000E+03  0.17130000000E+03 0. -1.
       11    1    1    2    0    0 -0.69530492709E-02 -0.88444125219E-02  0.29409538785E+00  0.29431093575E+00  0.51109989000E-03 0.  1.
     -623    1    1    2    0    0 -0.12221507332E-02 -0.24849106908E-02  0.29584603066E-03  0.17130000002E+03  0.17130000000E+03 0. -1.
      622    1    1    2    0    0  0.81752000040E-02  0.11329323213E-01  0.37056087335E+01  0.37056890416E+01  0.20000000000E-01 0.  0.
</event>
<event>
 5   0  0.3603037E+08  0.9118800E+02  0.7818608E-02  0.1180000E+00
       11   -1    0    0    0    0  0.00000000000E+00  0.00000000000E+00  0.39999999673E+01  0.40000000000E+01  0.51109989000E-03 0.  1.
     -623   -1    0    0    0    0  0.00000000000E+00  0.00000000000E+00  0.12525980253E-10  0.17130000000E+03  0.17130000000E+03 0. -1.
       11    1    1    2    0    0 -0.21722555054E-02  0.25212803152E-02  0.50578689317E+00  0.50579810010E+00  0.51109989000E-03 0.  1.
     -623    1    1    2    0    0 -0.21800349489E-03 -0.12235059882E-02  0.69475529406E-04  0.17130000000E+03  0.17130000000E+03 0. -1.
      622    1    1    2    0    0  0.23902590003E-02 -0.12977743270E-02  0.34941435987E+01  0.34942018954E+01  0.20000000000E-01 0.  1.
</event>
<event>
 5   0  0.3603037E+08  0.9118800E+02  0.7818608E-02  0.1180000E+00
       11   -1    0    0    0    0  0.00000000000E+00  0.00000000000E+00  0.39999999673E+01  0.40000000000E+01  0.51109989000E-03 0.  1.
     -623   -1    0    0    0    0  0.00000000000E+00  0.00000000000E+00  0.12525980253E-10  0.17130000000E+03  0.17130000000E+03 0.  1.
       11    1    1    2    0    0 -0.12428495603E-01  0.82527414420E-02  0.20078973951E+00  0.20134387489E+00  0.51109989000E-03 0.  1.
     -623    1    1    2    0    0 -0.64290061954E-03  0.13357161489E-02  0.64135272914E-03  0.17130000001E+03  0.17130000000E+03 0.  1.
      622    1    1    2    0    0  0.13071396222E-01 -0.95884575909E-02  0.37985688751E+01  0.37986561175E+01  0.20000000000E-01 0.  1.
</event>
<event>
 5   0  0.3603037E+08  0.9118800E+02  0.7818608E-02  0.1180000E+00
       11   -1    0    0    0    0  0.00000000000E+00  0.00000000000E+00  0.39999999673E+01  0.40000000000E+01  0.51109989000E-03 0. -1.
     -623   -1    0    0    0    0  0.00000000000E+00  0.00000000000E+00  0.12525980253E-10  0.17130000000E+03  0.17130000000E+03 0. -1.
       11    1    1    2    0    0  0.33485712778E-02  0.16714886247E-02  0.62271196469E-01  0.62385654872E-01  0.51109989000E-03 0. -1.
     -623    1    1    2    0    0  0.97071077281E-03 -0.13173815803E-03  0.16789120646E-03  0.17130000000E+03  0.17130000000E+03 0. -1.
      622    1    1    2    0    0 -0.43192820506E-02 -0.15397504667E-02  0.39375608797E+01  0.39376143422E+01  0.20000000000E-01 0. -1.
</event>
<event>
 5   0  0.3603037E+08  0.9118800E+02  0.7818608E-02  0.1180000E+00
       11   -1    0    0    0    0  0.00000000000E+00  0.00000000000E+00  0.39999999673E+01  0.40000000000E+01  0.51109989000E-03 0.  1.
     -623   -1    0    0    0    0  0.00000000000E+00  0.00000000000E+00  0.12525980253E-10  0.17130000000E+03  0.17130000000E+03 0. -1.
       11    1    1    2    0    0  0.10854663333E-02  0.82271203716E-03  0.62518534415E-01  0.62535457613E-01  0.51109989000E-03 0.  1.
     -623    1    1    2    0    0  0.18903789128E-03 -0.10205445324E-03  0.67957364799E-04  0.17130000000E+03  0.17130000000E+03 0. -1.
      622    1    1    2    0    0 -0.12745042246E-02 -0.72065758392E-03  0.39374134756E+01  0.39374645422E+01  0.20000000000E-01 0.  1.
</event>
<event>
 5   0  0.3603037E+08  0.9118800E+02  0.7818608E-02  0.1180000E+00
       11   -1    0    0    0    0  0.00000000000E+00  0.00000000000E+00  0.39999999673E+01  0.40000000000E+01  0.51109989000E-03 0.  1.
     -623   -1    0    0    0    0  0.00000000000E+00  0.00000000000E+00  0.12525980253E-10  0.17130000000E+03  0.17130000000E+03 0.  1.
       11    1    1    2    0    0  0.66622957361E-03 -0.23036513027E-02  0.37364880557E-01  0.37445242595E-01  0.51109989000E-03 0.  1.
     -623    1    1    2    0    0 -0.96395755034E-04 -0.16082540670E-04  0.13152227051E-03  0.17130000000E+03  0.17130000000E+03 0.  1.
      622    1    1    2    0    0 -0.56983381858E-03  0.23197338434E-02  0.39625035645E+01  0.39625547573E+01  0.20000000000E-01 0.  1.
</event>
<event>
 5   0  0.3603037E+08  0.9118800E+02  0.7818608E-02  0.1180000E+00
       11   -1    0    0    0    0  0.00000000000E+00  0.00000000000E+00  0.39999999673E+01  0.40000000000E+01  0.51109989000E-03 0.  1.
     -623   -1    0    0    0    0  0.00000000000E+00  0.00000000000E+00  0.12525980253E-10  0.17130000000E+03  0.17130000000E+03 0.  1.
       11    1    1    2    0    0  0.21989857406E-02  0.29004196178E-02  0.13493738935E+00  0.13498743733E+00  0.51109989000E-03 0.  1.
     -623    1    1    2    0    0 -0.50795723505E-03 -0.10230514194E-03  0.10314559312E-03  0.17130000000E+03  0.17130000000E+03 0.  1.
      622    1    1    2    0    0 -0.16910285056E-02 -0.27981144758E-02  0.38649594324E+01  0.38650125619E+01  0.20000000000E-01 0.  0.
</event>
<event>
 5   0  0.3603037E+08  0.9118800E+02  0.7818608E-02  0.1180000E+00
       11   -1    0    0    0    0  0.00000000000E+00  0.00000000000E+00  0.39999999673E+01  0.40000000000E+01  0.51109989000E-03 0. -1.
     -623   -1    0    0    0    0  0.00000000000E+00  0.00000000000E+00  0.12525980253E-10  0.17130000000E+03  0.17130000000E+03 0.  1.
       11    1    1    2    0    0 -0.68455924701E-02  0.14585540335E-02  0.90221355492E+00  0.90224084890E+00  0.51109989000E-03 0. -1.
     -623    1    1    2    0    0 -0.20983317292E-02  0.13089882445E-01  0.13941368240E-03  0.17130000051E+03  0.17130000000E+03 0.  1.
      622    1    1    2    0    0  0.89439241993E-02 -0.14548436478E-01  0.30976469988E+01  0.30977586381E+01  0.20000000000E-01 0.  0.
</event>
<event>
 5   0  0.3603037E+08  0.9118800E+02  0.7818608E-02  0.1180000E+00
       11   -1    0    0    0    0  0.00000000000E+00  0.00000000000E+00  0.39999999673E+01  0.40000000000E+01  0.51109989000E-03 0. -1.
     -623   -1    0    0    0    0  0.00000000000E+00  0.00000000000E+00  0.12525980253E-10  0.17130000000E+03  0.17130000000E+03 0.  1.
       11    1    1    2    0    0 -0.50340651097E-02  0.37494857885E-02  0.17008741410E+01  0.17008858001E+01  0.51109989000E-03 0. -1.
     -623    1    1    2    0    0 -0.11412465414E-01  0.34523166954E-02  0.16914100691E-03  0.17130000042E+03  0.17130000000E+03 0.  1.
      622    1    1    2    0    0  0.16446530524E-01 -0.72018024838E-02  0.22989566854E+01  0.22991137848E+01  0.20000000000E-01 0.  0.
</event>
<event>
 5   0  0.3603037E+08  0.9118800E+02  0.7818608E-02  0.1180000E+00
       11   -1    0    0    0    0  0.00000000000E+00  0.00000000000E+00  0.39999999673E+01  0.40000000000E+01  0.51109989000E-03 0. -1.
     -623   -1    0    0    0    0  0.00000000000E+00  0.00000000000E+00  0.12525980253E-10  0.17130000000E+03  0.17130000000E+03 0. -1.
       11    1    1    2    0    0 -0.21877708735E-01  0.54459694481E-02  0.11467204546E+01  0.11469421759E+01  0.51109989000E-03 0. -1.
     -623    1    1    2    0    0 -0.12051137239E-01 -0.15721702469E-01  0.51319737378E-03  0.17130000115E+03  0.17130000000E+03 0. -1.
      622    1    1    2    0    0  0.33928845974E-01  0.10275733021E-01  0.28527663154E+01  0.28530566779E+01  0.20000000000E-01 0.  0.
</event>
<event>
 5   0  0.3603037E+08  0.9118800E+02  0.7818608E-02  0.1180000E+00
       11   -1    0    0    0    0  0.00000000000E+00  0.00000000000E+00  0.39999999673E+01  0.40000000000E+01  0.51109989000E-03 0.  1.
     -623   -1    0    0    0    0  0.00000000000E+00  0.00000000000E+00  0.12525980253E-10  0.17130000000E+03  0.17130000000E+03 0.  1.
       11    1    1    2    0    0  0.15821971733E-01 -0.30908286116E-01  0.13508897655E+01  0.13513360340E+01  0.51109989000E-03 0.  1.
     -623    1    1    2    0    0 -0.17200018165E-01  0.31322479255E-01  0.52586566399E-03  0.17130000373E+03  0.17130000000E+03 0.  1.
      622    1    1    2    0    0  0.13780464312E-02 -0.41419313953E-03  0.26485843361E+01  0.26486602380E+01  0.20000000000E-01 0.  0.
</event>
<event>
 5   0  0.3603037E+08  0.9118800E+02  0.7818608E-02  0.1180000E+00
       11   -1    0    0    0    0  0.00000000000E+00  0.00000000000E+00  0.39999999673E+01  0.40000000000E+01  0.51109989000E-03 0.  1.
     -623   -1    0    0    0    0  0.00000000000E+00  0.00000000000E+00  0.12525980253E-10  0.17130000000E+03  0.17130000000E+03 0. -1.
       11    1    1    2    0    0 -0.25896605442E-02  0.14234615127E-01  0.96732898882E+00  0.96743731809E+00  0.51109989000E-03 0.  1.
     -623    1    1    2    0    0  0.80053497341E-03  0.11854455564E-02  0.21398735171E-03  0.17130000001E+03  0.17130000000E+03 0. -1.
      622    1    1    2    0    0  0.17891255708E-02 -0.15420060684E-01  0.30324569912E+01  0.30325626758E+01  0.20000000000E-01 0.  1.
</event>
<event>
 5   0  0.3603037E+08  0.9118800E+02  0.7818608E-02  0.1180000E+00
       11   -1    0    0    0    0  0.00000000000E+00  0.00000000000E+00  0.39999999673E+01  0.40000000000E+01  0.51109989000E-03 0.  1.
     -623   -1    0    0    0    0  0.00000000000E+00  0.00000000000E+00  0.12525980253E-10  0.17130000000E+03  0.17130000000E+03 0.  1.
       11    1    1    2    0    0  0.36015968724E-02  0.33366459683E-02  0.16422593280E+00  0.16430010022E+00  0.51109989000E-03 0.  1.
     -623    1    1    2    0    0  0.41997763110E-04  0.10859412792E-03  0.12955480626E-03  0.17130000000E+03  0.17130000000E+03 0.  1.
      622    1    1    2    0    0 -0.36435946355E-02 -0.34452400963E-02  0.38356444798E+01  0.38356998997E+01  0.20000000000E-01 0.  1.
</event>
<event>
 5   0  0.3603037E+08  0.9118800E+02  0.7818608E-02  0.1180000E+00
       11   -1    0    0    0    0  0.00000000000E+00  0.00000000000E+00  0.39999999673E+01  0.40000000000E+01  0.51109989000E-03 0. -1.
     -623   -1    0    0    0    0  0.00000000000E+00  0.00000000000E+00  0.12525980253E-10  0.17130000000E+03  0.17130000000E+03 0. -1.
       11    1    1    2    0    0  0.50619751210E-02 -0.65112142855E-03  0.74195220383E+00  0.74196993305E+00  0.51109989000E-03 0. -1.
     -623    1    1    2    0    0  0.39863490639E-03  0.17918793334E-02  0.83869718737E-04  0.17130000001E+03  0.17130000000E+03 0. -1.
      622    1    1    2    0    0 -0.54606100274E-02 -0.11407579049E-02  0.32579638938E+01  0.32580300571E+01  0.20000000000E-01 0. -1.
</event>
<event>
 5   0  0.3603037E+08  0.9118800E+02  0.7818608E-02  0.1180000E+00
       11   -1    0    0    0    0  0.00000000000E+00  0.00000000000E+00  0.39999999673E+01  0.40000000000E+01  0.51109989000E-03 0. -1.
     -623   -1    0    0    0    0  0.00000000000E+00  0.00000000000E+00  0.12525980253E-10  0.17130000000E+03  0.17130000000E+03 0. -1.
       11    1    1    2    0    0 -0.14622505561E-01 -0.16911778176E-01  0.62582836389E+00  0.62622777659E+00  0.51109989000E-03 0. -1.
     -623    1    1    2    0    0 -0.26812555375E-03  0.49757254538E-03  0.53145571892E-03  0.17130000000E+03  0.17130000000E+03 0. -1.
      622    1    1    2    0    0  0.14890631115E-01  0.16414205631E-01  0.33736401478E+01  0.33737722217E+01  0.20000000000E-01 0. -1.
</event>
<event>
 5   0  0.3603037E+08  0.9118800E+02  0.7818608E-02  0.1180000E+00
       11   -1    0    0    0    0  0.00000000000E+00  0.00000000000E+00  0.39999999673E+01  0.40000000000E+01  0.51109989000E-03 0. -1.
     -623   -1    0    0    0    0  0.00000000000E+00  0.00000000000E+00  0.12525980253E-10  0.17130000000E+03  0.17130000000E+03 0. -1.
       11    1    1    2    0    0  0.88961057095E-03 -0.22638378182E-06  0.10626014370E+00  0.10626509666E+00  0.51109989000E-03 0. -1.
     -623    1    1    2    0    0  0.15436572055E-02  0.12555007327E-02  0.57259438183E-04  0.17130000001E+03  0.17130000000E+03 0. -1.
      622    1    1    2    0    0 -0.24332677764E-02 -0.12552743489E-02  0.38936825642E+01  0.38937348918E+01  0.20000000000E-01 0. -1.
</event>
<event>
 5   0  0.3603037E+08  0.9118800E+02  0.7818608E-02  0.1180000E+00
       11   -1    0    0    0    0  0.00000000000E+00  0.00000000000E+00  0.39999999673E+01  0.40000000000E+01  0.51109989000E-03 0. -1.
     -623   -1    0    0    0    0  0.00000000000E+00  0.00000000000E+00  0.12525980253E-10  0.17130000000E+03  0.17130000000E+03 0. -1.
       11    1    1    2    0    0  0.52797568213E-02  0.17969246462E-03  0.49360284421E+00  0.49363137780E+00  0.51109989000E-03 0. -1.
     -623    1    1    2    0    0  0.32659681929E-03 -0.27900748887E-03  0.90024548811E-04  0.17130000000E+03  0.17130000000E+03 0. -1.
      622    1    1    2    0    0 -0.56063536406E-02  0.99315024253E-04  0.35063070986E+01  0.35063686216E+01  0.20000000000E-01 0. -1.
</event>
<event>
 5   0  0.3603037E+08  0.9118800E+02  0.7818608E-02  0.1180000E+00
       11   -1    0    0    0    0  0.00000000000E+00  0.00000000000E+00  0.39999999673E+01  0.40000000000E+01  0.51109989000E-03 0. -1.
     -623   -1    0    0    0    0  0.00000000000E+00  0.00000000000E+00  0.12525980253E-10  0.17130000000E+03  0.17130000000E+03 0.  1.
       11    1    1    2    0    0  0.34343250846E-04 -0.67253998276E-02  0.70037919559E+00  0.70041167253E+00  0.51109989000E-03 0. -1.
     -623    1    1    2    0    0  0.47449218627E-03  0.13740090353E-02  0.97443532987E-04  0.17130000001E+03  0.17130000000E+03 0.  1.
      622    1    1    2    0    0 -0.50883543712E-03  0.53513907923E-02  0.32995233282E+01  0.32995883213E+01  0.20000000000E-01 0.  0.
</event>
<event>
 5   0  0.3603037E+08  0.9118800E+02  0.7818608E-02  0.1180000E+00
       11   -1    0    0    0    0  0.00000000000E+00  0.00000000000E+00  0.39999999673E+01  0.40000000000E+01  0.51109989000E-03 0. -1.
     -623   -1    0    0    0    0  0.00000000000E+00  0.00000000000E+00  0.12525980253E-10  0.17130000000E+03  0.17130000000E+03 0.  1.
       11    1    1    2    0    0  0.11385603560E-02  0.83971494261E-04  0.17961292484E+00  0.17961728025E+00  0.51109989000E-03 0. -1.
     -623    1    1    2    0    0 -0.21769734085E-02  0.45585606637E-03  0.56867615417E-04  0.17130000001E+03  0.17130000000E+03 0.  1.
      622    1    1    2    0    0  0.10384130525E-02 -0.53982756063E-03  0.38203301749E+01  0.38203827053E+01  0.20000000000E-01 0. -1.
</event>
<event>
 5   0  0.3603037E+08  0.9118800E+02  0.7818608E-02  0.1180000E+00
       11   -1    0    0    0    0  0.00000000000E+00  0.00000000000E+00  0.39999999673E+01  0.40000000000E+01  0.51109989000E-03 0.  1.
     -623   -1    0    0    0    0  0.00000000000E+00  0.00000000000E+00  0.12525980253E-10  0.17130000000E+03  0.17130000000E+03 0.  1.
       11    1    1    2    0    0 -0.74675422686E-04  0.68955342956E-03  0.47614357579E-01  0.47622151660E-01  0.51109989000E-03 0.  1.
     -623    1    1    2    0    0 -0.14977424601E-02  0.15360309187E-02  0.59317070050E-04  0.17130000001E+03  0.17130000000E+03 0.  1.
      622    1    1    2    0    0  0.15724178828E-02 -0.22255843482E-02  0.39523262927E+01  0.39523778349E+01  0.20000000000E-01 0.  1.
</event>
<event>
 5   0  0.3603037E+08  0.9118800E+02  0.7818608E-02  0.1180000E+00
       11   -1    0    0    0    0  0.00000000000E+00  0.00000000000E+00  0.39999999673E+01  0.40000000000E+01  0.51109989000E-03 0. -1.
     -623   -1    0    0    0    0  0.00000000000E+00  0.00000000000E+00  0.12525980253E-10  0.17130000000E+03  0.17130000000E+03 0. -1.
       11    1    1    2    0    0  0.10424643195E-02  0.52395062577E-02  0.70079357193E-01  0.70284540858E-01  0.51109989000E-03 0. -1.
     -623    1    1    2    0    0 -0.27928161201E-02 -0.31357056322E-02  0.25705025558E-03  0.17130000005E+03  0.17130000000E+03 0. -1.
      622    1    1    2    0    0  0.17503518006E-02 -0.21038006255E-02  0.39296635599E+01  0.39297154075E+01  0.20000000000E-01 0. -1.
</event>
<event>
 5   0  0.3603037E+08  0.9118800E+02  0.7818608E-02  0.1180000E+00
       11   -1    0    0    0    0  0.00000000000E+00  0.00000000000E+00  0.39999999673E+01  0.40000000000E+01  0.51109989000E-03 0. -1.
     -623   -1    0    0    0    0  0.00000000000E+00  0.00000000000E+00  0.12525980253E-10  0.17130000000E+03  0.17130000000E+03 0.  1.
       11    1    1    2    0    0  0.45076594962E-03  0.19352262562E-02  0.60250283345E-01  0.60285206769E-01  0.51109989000E-03 0. -1.
     -623    1    1    2    0    0  0.61208052006E-03 -0.54695570066E-03  0.86046164439E-04  0.17130000000E+03  0.17130000000E+03 0.  1.
      622    1    1    2    0    0 -0.10628464697E-02 -0.13882705556E-02  0.39396636379E+01  0.39397147912E+01  0.20000000000E-01 0. -1.
</event>
<event>
 5   0  0.3603037E+08  0.9118800E+02  0.7818608E-02  0.1180000E+00
       11   -1    0    0    0    0  0.00000000000E+00  0.00000000000E+00  0.39999999673E+01  0.40000000000E+01  0.51109989000E-03 0. -1.
     -623   -1    0    0    0    0  0.00000000000E+00  0.00000000000E+00  0.12525980253E-10  0.17130000000E+03  0.17130000000E+03 0.  1.
       11    1    1    2    0    0  0.33141831800E-02 -0.57805724497E-02  0.39253099006E+00  0.39258787323E+00  0.51109989000E-03 0. -1.
     -623    1    1    2    0    0 -0.49001631816E-02  0.22046344280E-02  0.11449771221E-03  0.17130000008E+03  0.17130000000E+03 0.  1.
      622    1    1    2    0    0  0.15859800016E-02  0.35759380217E-02  0.36073544796E+01  0.36074120425E+01  0.20000000000E-01 0. -1.
</event>
<event>
 5   0  0.3603037E+08  0.9118800E+02  0.7818608E-02  0.1180000E+00
       11   -1    0    0    0    0  0.00000000000E+00  0.00000000000E+00  0.39999999673E+01  0.40000000000E+01  0.51109989000E-03 0. -1.
     -623   -1    0    0    0    0  0.00000000000E+00  0.00000000000E+00  0.12525980253E-10  0.17130000000E+03  0.17130000000E+03 0.  1.
       11    1    1    2    0    0 -0.36745621595E-03 -0.37001497620E-02  0.17678079079E+00  0.17682063042E+00  0.51109989000E-03 0. -1.
     -623    1    1    2    0    0 -0.65879049323E-03 -0.19639705729E-03  0.94244669666E-04  0.17130000000E+03  0.17130000000E+03 0.  1.
      622    1    1    2    0    0  0.10262467092E-02  0.38965468193E-02  0.38231249319E+01  0.38231793682E+01  0.20000000000E-01 0. -1.
</event>
<event>
 5   0  0.3603037E+08  0.9118800E+02  0.7818608E-02  0.1180000E+00
       11   -1    0    0    0    0  0.00000000000E+00  0.00000000000E+00  0.39999999673E+01  0.40000000000E+01  0.51109989000E-03 0. -1.
     -623   -1    0    0    0    0  0.00000000000E+00  0.00000000000E+00  0.12525980253E-10  0.17130000000E+03  0.17130000000E+03 0. -1.
       11    1    1    2    0    0  0.95571846766E-01  0.47653306538E-01  0.82863722599E+00  0.83549071152E+00  0.51109989000E-03 0. -1.
     -623    1    1    2    0    0 -0.35248222247E-01 -0.27398434655E-01  0.75625009714E-02  0.17130000598E+03  0.17130000000E+03 0. -1.
      622    1    1    2    0    0 -0.60323624519E-01 -0.20254871883E-01  0.31638002404E+01  0.31645033039E+01  0.20000000000E-01 0. -1.
</event>
<event>
 5   0  0.3603037E+08  0.9118800E+02  0.7818608E-02  0.1180000E+00
       11   -1    0    0    0    0  0.00000000000E+00  0.00000000000E+00  0.39999999673E+01  0.40000000000E+01  0.51109989000E-03 0.  1.
     -623   -1    0    0    0    0  0.00000000000E+00  0.00000000000E+00  0.12525980253E-10  0.17130000000E+03  0.17130000000E+03 0. -1.
       11    1    1    2    0    0  0.30846515619E-02  0.15788972411E-01  0.54362403938E+00  0.54386226578E+00  0.51109989000E-03 0.  1.
     -623    1    1    2    0    0 -0.56788077929E-02 -0.32712299324E-02  0.31983095769E-03  0.17130000013E+03  0.17130000000E+03 0. -1.
      622    1    1    2    0    0  0.25941562310E-02 -0.12517742478E-01  0.34560560970E+01  0.34561376086E+01  0.20000000000E-01 0.  1.
</event>
<event>
 5   0  0.3603037E+08  0.9118800E+02  0.7818608E-02  0.1180000E+00
       11   -1    0    0    0    0  0.00000000000E+00  0.00000000000E+00  0.39999999673E+01  0.40000000000E+01  0.51109989000E-03 0. -1.
     -623   -1    0    0    0    0  0.00000000000E+00  0.00000000000E+00  0.12525980253E-10  0.17130000000E+03  0.17130000000E+03 0.  1.
       11    1    1    2    0    0  0.66507398113E-02 -0.10344475268E-01  0.19073310429E+01  0.19073707581E+01  0.51109989000E-03 0. -1.
     -623    1    1    2    0    0  0.11120442188E-02 -0.48759505793E-03  0.17769843310E-03  0.17130000000E+03  0.17130000000E+03 0.  1.
      622    1    1    2    0    0 -0.77627840301E-02  0.10832070326E-01  0.20924912260E+01  0.20926292375E+01  0.20000000000E-01 0.  0.
</event>
<event>
 5   0  0.3603037E+08  0.9118800E+02  0.7818608E-02  0.1180000E+00
       11   -1    0    0    0    0  0.00000000000E+00  0.00000000000E+00  0.39999999673E+01  0.40000000000E+01  0.51109989000E-03 0. -1.
     -623   -1    0    0    0    0  0.00000000000E+00  0.00000000000E+00  0.12525980253E-10  0.17130000000E+03  0.17130000000E+03 0. -1.
       11    1    1    2    0    0 -0.57606989732E-03  0.10728074645E-02  0.55846533157E-02  0.57386712189E-02  0.51109989000E-03 0. -1.
     -623    1    1    2    0    0 -0.67695927655E-03  0.93252441945E-04  0.20442565160E-03  0.17130000000E+03  0.17130000000E+03 0. -1.
      622    1    1    2    0    0  0.12530291739E-02 -0.11660599064E-02  0.39942108884E+01  0.39942613273E+01  0.20000000000E-01 0. -1.
</event>
<event>
 5   0  0.3603037E+08  0.9118800E+02  0.7818608E-02  0.1180000E+00
       11   -1    0    0    0    0  0.00000000000E+00  0.00000000000E+00  0.39999999673E+01  0.40000000000E+01  0.51109989000E-03 0.  1.
     -623   -1    0    0    0    0  0.00000000000E+00  0.00000000000E+00  0.12525980253E-10  0.17130000000E+03  0.17130000000E+03 0.  1.
       11    1    1    2    0    0 -0.65864790656E-02  0.32246536047E-02  0.10717719230E+00  0.10742900850E+00  0.51109989000E-03 0.  1.
     -623    1    1    2    0    0 -0.16549443645E-04  0.15549331819E-02  0.31170605895E-03  0.17130000001E+03  0.17130000000E+03 0.  1.
      622    1    1    2    0    0  0.66030285092E-02 -0.47795867866E-02  0.38925110690E+01  0.38925709842E+01  0.20000000000E-01 0.  1.
</event>
<event>
 5   0  0.3603037E+08  0.9118800E+02  0.7818608E-02  0.1180000E+00
       11   -1    0    0    0    0  0.00000000000E+00  0.00000000000E+00  0.39999999673E+01  0.40000000000E+01  0.51109989000E-03 0. -1.
     -623   -1    0    0    0    0  0.00000000000E+00  0.00000000000E+00  0.12525980253E-10  0.17130000000E+03  0.17130000000E+03 0. -1.
       11    1    1    2    0    0  0.84633269438E-02 -0.27411517850E-02  0.34651008670E+00  0.34662464313E+00  0.51109989000E-03 0. -1.
     -623    1    1    2    0    0  0.32796462847E-02  0.56075372738E-02  0.18938879709E-03  0.17130000012E+03  0.17130000000E+03 0. -1.
      622    1    1    2    0    0 -0.11742973228E-01 -0.28663854888E-02  0.36533004919E+01  0.36533752336E+01  0.20000000000E-01 0. -1.
</event>
<event>
 5   0  0.3603037E+08  0.9118800E+02  0.7818608E-02  0.1180000E+00
       11   -1    0    0    0    0  0.00000000000E+00  0.00000000000E+00  0.39999999673E+01  0.40000000000E+01  0.51109989000E-03 0.  1.
     -623   -1    0    0    0    0  0.00000000000E+00  0.00000000000E+00  0.12525980253E-10  0.17130000000E+03  0.17130000000E+03 0.  1.
       11    1    1    2    0    0 -0.21866048868E-02 -0.19538027003E-02  0.19257169034E-01  0.19485850414E-01  0.51109989000E-03 0.  1.
     -623    1    1    2    0    0 -0.18335051337E-03  0.89843128815E-03  0.27974194653E-03  0.17130000000E+03  0.17130000000E+03 0.  1.
      622    1    1    2    0    0  0.23699554001E-02  0.10553714122E-02  0.39804630564E+01  0.39805141469E+01  0.20000000000E-01 0.  1.
</event>
<event>
 5   0  0.3603037E+08  0.9118800E+02  0.7818608E-02  0.1180000E+00
       11   -1    0    0    0    0  0.00000000000E+00  0.00000000000E+00  0.39999999673E+01  0.40000000000E+01  0.51109989000E-03 0.  1.
     -623   -1    0    0    0    0  0.00000000000E+00  0.00000000000E+00  0.12525980253E-10  0.17130000000E+03  0.17130000000E+03 0.  1.
       11    1    1    2    0    0  0.15355806159E-02  0.53049771426E-03  0.87621060482E-01  0.87637611206E-01  0.51109989000E-03 0.  1.
     -623    1    1    2    0    0 -0.54659800370E-02  0.11222411275E-03  0.69752765714E-04  0.17130000009E+03  0.17130000000E+03 0.  1.
      622    1    1    2    0    0  0.39303994211E-02 -0.64272182701E-03  0.39123091541E+01  0.39123623015E+01  0.20000000000E-01 0.  1.
</event>
<event>
 5   0  0.3603037E+08  0.9118800E+02  0.7818608E-02  0.1180000E+00
       11   -1    0    0    0    0  0.00000000000E+00  0.00000000000E+00  0.39999999673E+01  0.40000000000E+01  0.51109989000E-03 0.  1.
     -623   -1    0    0    0    0  0.00000000000E+00  0.00000000000E+00  0.12525980253E-10  0.17130000000E+03  0.17130000000E+03 0.  1.
       11    1    1    2    0    0 -0.36617759963E-04  0.71226864677E-03  0.14369898982E-01  0.14396662268E-01  0.51109989000E-03 0.  1.
     -623    1    1    2    0    0 -0.18101833196E-03  0.84564824943E-04  0.76997302184E-04  0.17130000000E+03  0.17130000000E+03 0.  1.
      622    1    1    2    0    0  0.21763609193E-03 -0.79683347171E-03  0.39855530711E+01  0.39856033376E+01  0.20000000000E-01 0.  1.
</event>
<event>
 5   0  0.3603037E+08  0.9118800E+02  0.7818608E-02  0.1180000E+00
       11   -1    0    0    0    0  0.00000000000E+00  0.00000000000E+00  0.39999999673E+01  0.40000000000E+01  0.51109989000E-03 0.  1.
     -623   -1    0    0    0    0  0.00000000000E+00  0.00000000000E+00  0.12525980253E-10  0.17130000000E+03  0.17130000000E+03 0.  1.
       11    1    1    2    0    0 -0.43758776525E-02 -0.24202334264E-02  0.88449905860E+00  0.88451334174E+00  0.51109989000E-03 0.  1.
     -623    1    1    2    0    0  0.19848576377E-02 -0.26749360960E-03  0.80535222834E-04  0.17130000001E+03  0.17130000000E+03 0.  1.
      622    1    1    2    0    0  0.23910200148E-02  0.26877270360E-02  0.31154203735E+01  0.31154866465E+01  0.20000000000E-01 0. -1.
</event>
<event>
 5   0  0.3603037E+08  0.9118800E+02  0.7818608E-02  0.1180000E+00
       11   -1    0    0    0    0  0.00000000000E+00  0.00000000000E+00  0.39999999673E+01  0.40000000000E+01  0.51109989000E-03 0.  1.
     -623   -1    0    0    0    0  0.00000000000E+00  0.00000000000E+00  0.12525980253E-10  0.17130000000E+03  0.17130000000E+03 0.  1.
       11    1    1    2    0    0 -0.25804416920E-02  0.28570764402E-02  0.36609553704E+00  0.36611613599E+00  0.51109989000E-03 0.  1.
     -623    1    1    2    0    0 -0.88869668194E-03 -0.19404191127E-03  0.78238438233E-04  0.17130000000E+03  0.17130000000E+03 0.  1.
      622    1    1    2    0    0  0.34691383740E-02 -0.26630345290E-02  0.36338261919E+01  0.36338838616E+01  0.20000000000E-01 0.  1.
</event>
<event>
 5   0  0.3603037E+08  0.9118800E+02  0.7818608E-02  0.1180000E+00
       11   -1    0    0    0    0  0.00000000000E+00  0.00000000000E+00  0.39999999673E+01  0.40000000000E+01  0.51109989000E-03 0.  1.
     -623   -1    0    0    0    0  0.00000000000E+00  0.00000000000E+00  0.12525980253E-10  0.17130000000E+03  0.17130000000E+03 0. -1.
       11    1    1    2    0    0 -0.88318082253E-03 -0.29045726525E-02  0.14770021314E+01  0.14770053398E+01  0.51109989000E-03 0.  1.
     -623    1    1    2    0    0  0.19081060937E-02  0.85617677865E-03  0.83500465551E-04  0.17130000001E+03  0.17130000000E+03 0. -1.
      622    1    1    2    0    0 -0.10249252712E-02  0.20483958739E-02  0.25229143355E+01  0.25229946474E+01  0.20000000000E-01 0.  1.
</event>
<event>
 5   0  0.3603037E+08  0.9118800E+02  0.7818608E-02  0.1180000E+00
       11   -1    0    0    0    0  0.00000000000E+00  0.00000000000E+00  0.39999999673E+01  0.40000000000E+01  0.51109989000E-03 0. -1.
     -623   -1    0    0    0    0  0.00000000000E+00  0.00000000000E+00  0.12525980253E-10  0.17130000000E+03  0.17130000000E+03 0.  1.
       11    1    1    2    0    0 -0.19888966573E-02  0.11387635615E-02  0.18807014931E+01  0.18807029590E+01  0.51109989000E-03 0. -1.
     -623    1    1    2    0    0  0.29022704323E-02  0.28821830978E-02  0.99866586597E-04  0.17130000005E+03  0.17130000000E+03 0.  1.
      622    1    1    2    0    0 -0.91337377503E-03 -0.40209466592E-02  0.21191986077E+01  0.21192969922E+01  0.20000000000E-01 0.  1.
</event>
<event>
 5   0  0.3603037E+08  0.9118800E+02  0.7818608E-02  0.1180000E+00
       11   -1    0    0    0    0  0.00000000000E+00  0.00000000000E+00  0.39999999673E+01  0.40000000000E+01  0.51109989000E-03 0. -1.
     -623   -1    0    0    0    0  0.00000000000E+00  0.00000000000E+00  0.12525980253E-10  0.17130000000E+03  0.17130000000E+03 0. -1.
       11    1    1    2    0    0 -0.19199732078E-02 -0.11826861635E-02  0.77628778057E-01  0.77663205231E-01  0.51109989000E-03 0. -1.
     -623    1    1    2    0    0 -0.12789922649E-03  0.35580587308E-03  0.86007086326E-04  0.17130000000E+03  0.17130000000E+03 0. -1.
      622    1    1    2    0    0  0.20478724343E-02  0.82688029047E-03  0.39222851822E+01  0.39223367943E+01  0.20000000000E-01 0. -1.
</event>
<event>
 5   0  0.3603037E+08  0.9118800E+02  0.7818608E-02  0.1180000E+00
       11   -1    0    0    0    0  0.00000000000E+00  0.00000000000E+00  0.39999999673E+01  0.40000000000E+01  0.51109989000E-03 0. -1.
     -623   -1    0    0    0    0  0.00000000000E+00  0.00000000000E+00  0.12525980253E-10  0.17130000000E+03  0.17130000000E+03 0.  1.
       11    1    1    2    0    0 -0.56328555264E-03  0.77251112464E-03  0.23225935956E-01  0.23251223344E-01  0.51109989000E-03 0.  1.
     -623    1    1    2    0    0 -0.14240767553E-03  0.28780586308E-03  0.75751696452E-04  0.17130000000E+03  0.17130000000E+03 0.  1.
      622    1    1    2    0    0  0.70569322817E-03 -0.10603169877E-02  0.39766982797E+01  0.39767487763E+01  0.20000000000E-01 0. -1.
</event>
<event>
 5   0  0.3603037E+08  0.9118800E+02  0.7818608E-02  0.1180000E+00
       11   -1    0    0    0    0  0.00000000000E+00  0.00000000000E+00  0.39999999673E+01  0.40000000000E+01  0.51109989000E-03 0. -1.
     -623   -1    0    0    0    0  0.00000000000E+00  0.00000000000E+00  0.12525980253E-10  0.17130000000E+03  0.17130000000E+03 0.  1.
       11    1    1    2    0    0 -0.10029143804E-01  0.19004789745E-01  0.18725435489E+01  0.18726669137E+01  0.51109989000E-03 0. -1.
     -623    1    1    2    0    0  0.12885365345E-02 -0.16126671702E-01  0.23801702388E-03  0.17130000076E+03  0.17130000000E+03 0.  1.
      622    1    1    2    0    0  0.87406072697E-02 -0.28781180433E-02  0.21272184014E+01  0.21273323222E+01  0.20000000000E-01 0. -1.
</event>
<event>
 5   0  0.3603037E+08  0.9118800E+02  0.7818608E-02  0.1180000E+00
       11   -1    0    0    0    0  0.00000000000E+00  0.00000000000E+00  0.39999999673E+01  0.40000000000E+01  0.51109989000E-03 0. -1.
     -623   -1    0    0    0    0  0.00000000000E+00  0.00000000000E+00  0.12525980253E-10  0.17130000000E+03  0.17130000000E+03 0. -1.
       11    1    1    2    0    0 -0.15326793711E-03  0.39836402822E-02  0.18572778341E+00  0.18577126697E+00  0.51109989000E-03 0. -1.
     -623    1    1    2    0    0 -0.27580144143E-03 -0.45766131288E-03  0.97541297210E-04  0.17130000000E+03  0.17130000000E+03 0. -1.
      622    1    1    2    0    0  0.42906937854E-03 -0.35259789694E-02  0.38141746427E+01  0.38142287322E+01  0.20000000000E-01 0. -1.
</event>
<event>
 5   0  0.3603037E+08  0.9118800E+02  0.7818608E-02  0.1180000E+00
       11   -1    0    0    0    0  0.00000000000E+00  0.00000000000E+00  0.39999999673E+01  0.40000000000E+01  0.51109989000E-03 0. -1.
     -623   -1    0    0    0    0  0.00000000000E+00  0.00000000000E+00  0.12525980253E-10  0.17130000000E+03  0.17130000000E+03 0. -1.
       11    1    1    2    0    0  0.43597664874E-03  0.78866111225E-03  0.33969713435E+00  0.33969871411E+00  0.51109989000E-03 0. -1.
     -623    1    1    2    0    0  0.43780757918E-03  0.76452498605E-03  0.56623949379E-04  0.17130000000E+03  0.17130000000E+03 0. -1.
      622    1    1    2    0    0 -0.87378422792E-03 -0.15531860983E-02  0.36602462091E+01  0.36603012836E+01  0.20000000000E-01 0. -1.
</event>
<event>
 5   0  0.3603037E+08  0.9118800E+02  0.7818608E-02  0.1180000E+00
       11   -1    0    0    0    0  0.00000000000E+00  0.00000000000E+00  0.39999999673E+01  0.40000000000E+01  0.51109989000E-03 0.  1.
     -623   -1    0    0    0    0  0.00000000000E+00  0.00000000000E+00  0.12525980253E-10  0.17130000000E+03  0.17130000000E+03 0.  1.
       11    1    1    2    0    0  0.79539779846E-02 -0.60798103476E-02  0.89471891282E+00  0.89477506896E+00  0.51109989000E-03 0.  1.
     -623    1    1    2    0    0 -0.11109948840E-01  0.38544229306E-02  0.12333668490E-03  0.17130000040E+03  0.17130000000E+03 0.  1.
      622    1    1    2    0    0  0.31559708555E-02  0.22253874170E-02  0.31051577179E+01  0.31052245274E+01  0.20000000000E-01 0.  1.
</event>
<event>
 5   0  0.3603037E+08  0.9118800E+02  0.7818608E-02  0.1180000E+00
       11   -1    0    0    0    0  0.00000000000E+00  0.00000000000E+00  0.39999999673E+01  0.40000000000E+01  0.51109989000E-03 0. -1.
     -623   -1    0    0    0    0  0.00000000000E+00  0.00000000000E+00  0.12525980253E-10  0.17130000000E+03  0.17130000000E+03 0. -1.
       11    1    1    2    0    0 -0.71238500084E-03  0.12626402219E-02  0.84696362313E-02  0.86080027452E-02  0.51109989000E-03 0. -1.
     -623    1    1    2    0    0  0.13070483524E-02 -0.65172869189E-03  0.18853940230E-03  0.17130000001E+03  0.17130000000E+03 0. -1.
      622    1    1    2    0    0 -0.59466335155E-03 -0.61091153000E-03  0.39913417917E+01  0.39913919909E+01  0.20000000000E-01 0. -1.
</event>
<event>
 5   0  0.3603037E+08  0.9118800E+02  0.7818608E-02  0.1180000E+00
       11   -1    0    0    0    0  0.00000000000E+00  0.00000000000E+00  0.39999999673E+01  0.40000000000E+01  0.51109989000E-03 0.  1.
     -623   -1    0    0    0    0  0.00000000000E+00  0.00000000000E+00  0.12525980253E-10  0.17130000000E+03  0.17130000000E+03 0.  1.
       11    1    1    2    0    0  0.51941549645E-04 -0.13368525577E-03  0.49664892785E-01  0.49667729625E-01  0.51109989000E-03 0.  1.
     -623    1    1    2    0    0  0.48958452776E-03  0.10544383944E-02  0.53581554921E-04  0.17130000000E+03  0.17130000000E+03 0.  1.
      622    1    1    2    0    0 -0.54152607740E-03 -0.92075313862E-03  0.39502814930E+01  0.39503322664E+01  0.20000000000E-01 0.  1.
</event>
<event>
 5   0  0.3603037E+08  0.9118800E+02  0.7818608E-02  0.1180000E+00
       11   -1    0    0    0    0  0.00000000000E+00  0.00000000000E+00  0.39999999673E+01  0.40000000000E+01  0.51109989000E-03 0. -1.
     -623   -1    0    0    0    0  0.00000000000E+00  0.00000000000E+00  0.12525980253E-10  0.17130000000E+03  0.17130000000E+03 0.  1.
       11    1    1    2    0    0  0.86055116112E-03  0.26120673524E-02  0.12411971835E-01  0.12723274370E-01  0.51109989000E-03 0. -1.
     -623    1    1    2    0    0 -0.17584816824E-02  0.68838401867E-03  0.36290764570E-03  0.17130000001E+03  0.17130000000E+03 0.  1.
      622    1    1    2    0    0  0.89793052132E-03 -0.33004513711E-02  0.39872250879E+01  0.39872767148E+01  0.20000000000E-01 0. -1.
</event>
<event>
 5   0  0.3603037E+08  0.9118800E+02  0.7818608E-02  0.1180000E+00
       11   -1    0    0    0    0  0.00000000000E+00  0.00000000000E+00  0.39999999673E+01  0.40000000000E+01  0.51109989000E-03 0. -1.
     -623   -1    0    0    0    0  0.00000000000E+00  0.00000000000E+00  0.12525980253E-10  0.17130000000E+03  0.17130000000E+03 0. -1.
       11    1    1    2    0    0 -0.84649086767E-04 -0.79314052681E-02  0.25524630937E+00  0.25537003352E+00  0.51109989000E-03 0. -1.
     -623    1    1    2    0    0 -0.26788621263E-03  0.54011655316E-04  0.18540439809E-03  0.17130000000E+03  0.17130000000E+03 0. -1.
      622    1    1    2    0    0  0.35253529940E-03  0.78773936128E-02  0.37445682536E+01  0.37446299662E+01  0.20000000000E-01 0. -1.
</event>
<event>
 5   0  0.3603037E+08  0.9118800E+02  0.7818608E-02  0.1180000E+00
       11   -1    0    0    0    0  0.00000000000E+00  0.00000000000E+00  0.39999999673E+01  0.40000000000E+01  0.51109989000E-03 0.  1.
     -623   -1    0    0    0    0  0.00000000000E+00  0.00000000000E+00  0.12525980253E-10  0.17130000000E+03  0.17130000000E+03 0. -1.
       11    1    1    2    0    0 -0.13064082550E-02 -0.65602422617E-03  0.67820613175E-01  0.67838292012E-01  0.51109989000E-03 0.  1.
     -623    1    1    2    0    0  0.18307182045E-03  0.21826476424E-03  0.68694211334E-04  0.17130000000E+03  0.17130000000E+03 0. -1.
      622    1    1    2    0    0  0.11233364345E-02  0.43775946194E-03  0.39321106600E+01  0.39321617077E+01  0.20000000000E-01 0.  1.
</event>
<event>
 5   0  0.3603037E+08  0.9118800E+02  0.7818608E-02  0.1180000E+00
       11   -1    0    0    0    0  0.00000000000E+00  0.00000000000E+00  0.39999999673E+01  0.40000000000E+01  0.51109989000E-03 0. -1.
     -623   -1    0    0    0    0  0.00000000000E+00  0.00000000000E+00  0.12525980253E-10  0.17130000000E+03  0.17130000000E+03 0.  1.
       11    1    1    2    0    0  0.11254283709E-02  0.13749765815E-02  0.47862108724E-01  0.47897806029E-01  0.51109989000E-03 0. -1.
     -623    1    1    2    0    0  0.14031789076E-03 -0.70953911205E-04  0.86688894120E-04  0.17130000000E+03  0.17130000000E+03 0.  1.
      622    1    1    2    0    0 -0.12657462616E-02 -0.13040226702E-02  0.39520511697E+01  0.39521021939E+01  0.20000000000E-01 0. -1.
</event>
<event>
 5   0  0.3603037E+08  0.9118800E+02  0.7818608E-02  0.1180000E+00
       11   -1    0    0    0    0  0.00000000000E+00  0.00000000000E+00  0.39999999673E+01  0.40000000000E+01  0.51109989000E-03 0. -1.
     -623   -1    0    0    0    0  0.00000000000E+00  0.00000000000E+00  0.12525980253E-10  0.17130000000E+03  0.17130000000E+03 0. -1.
       11    1    1    2    0    0  0.11936473028E-03 -0.17773234659E-02  0.42458343220E-02  0.46326511490E-02  0.51109989000E-03 0. -1.
     -623    1    1    2    0    0 -0.52602609474E-04 -0.81221734385E-03  0.43768472420E-03  0.17130000000E+03  0.17130000000E+03 0. -1.
      622    1    1    2    0    0 -0.66762120808E-04  0.25895408097E-02  0.39953164483E+01  0.39953673464E+01  0.20000000000E-01 0. -1.
</event>
<event>
 5   0  0.3603037E+08  0.9118800E+02  0.7818608E-02  0.1180000E+00
       11   -1    0    0    0    0  0.00000000000E+00  0.00000000000E+00  0.39999999673E+01  0.40000000000E+01  0.51109989000E-03 0.  1.
     -623   -1    0    0    0    0  0.00000000000E+00  0.00000000000E+00  0.12525980253E-10  0.17130000000E+03  0.17130000000E+03 0.  1.
       11    1    1    2    0    0 -0.46633212065E-02 -0.79854088462E-02  0.48816429837E-01  0.49687205206E-01  0.51109989000E-03 0.  1.
     -623    1    1    2    0    0 -0.17770423992E-02  0.57056722007E-02  0.92738660878E-03  0.17130000011E+03  0.17130000000E+03 0.  1.
      622    1    1    2    0    0  0.64403636058E-02  0.22797366455E-02  0.39502561509E+01  0.39503126880E+01  0.20000000000E-01 0.  1.
</event>
<event>
 5   0  0.3603037E+08  0.9118800E+02  0.7818608E-02  0.1180000E+00
       11   -1    0    0    0    0  0.00000000000E+00  0.00000000000E+00  0.39999999673E+01  0.40000000000E+01  0.51109989000E-03 0. -1.
     -623   -1    0    0    0    0  0.00000000000E+00  0.00000000000E+00  0.12525980253E-10  0.17130000000E+03  0.17130000000E+03 0.  1.
       11    1    1    2    0    0  0.47964648433E-02 -0.65467418200E-03  0.51059910851E-01  0.51291426097E-01  0.51109989000E-03 0. -1.
     -623    1    1    2    0    0 -0.89661035779E-03  0.11574792220E-02  0.28409673491E-03  0.17130000001E+03  0.17130000000E+03 0.  1.
      622    1    1    2    0    0 -0.38998544855E-02 -0.50280504004E-03  0.39486559598E+01  0.39487085674E+01  0.20000000000E-01 0. -1.
</event>
<event>
 5   0  0.3603037E+08  0.9118800E+02  0.7818608E-02  0.1180000E+00
       11   -1    0    0    0    0  0.00000000000E+00  0.00000000000E+00  0.39999999673E+01  0.40000000000E+01  0.51109989000E-03 0.  1.
     -623   -1    0    0    0    0  0.00000000000E+00  0.00000000000E+00  0.12525980253E-10  0.17130000000E+03  0.17130000000E+03 0.  1.
       11    1    1    2    0    0  0.15079464620E-02 -0.35726699817E-02  0.22336226530E-01  0.22676113229E-01  0.51109989000E-03 0.  1.
     -623    1    1    2    0    0 -0.20356487731E-05 -0.17385126384E-02  0.39398004311E-03  0.17130000001E+03  0.17130000000E+03 0.  1.
      622    1    1    2    0    0 -0.15059108132E-02  0.53111826200E-02  0.39772697608E+01  0.39773238775E+01  0.20000000000E-01 0.  1.
</event>
<event>
 5   0  0.3603037E+08  0.9118800E+02  0.7818608E-02  0.1180000E+00
       11   -1    0    0    0    0  0.00000000000E+00  0.00000000000E+00  0.39999999673E+01  0.40000000000E+01  0.51109989000E-03 0.  1.
     -623   -1    0    0    0    0  0.00000000000E+00  0.00000000000E+00  0.12525980253E-10  0.17130000000E+03  0.17130000000E+03 0.  1.
       11    1    1    2    0    0  0.23805916892E-02 -0.22552527944E-03  0.39161579355E+00  0.39162342762E+00  0.51109989000E-03 0.  1.
     -623    1    1    2    0    0  0.11017641540E-02  0.35372454514E-02  0.66268661056E-04  0.17130000004E+03  0.17130000000E+03 0.  1.
      622    1    1    2    0    0 -0.34823558432E-02 -0.33117201720E-02  0.36083179051E+01  0.36083765323E+01  0.20000000000E-01 0.  1.
</event>
<event>
 5   0  0.3603037E+08  0.9118800E+02  0.7818608E-02  0.1180000E+00
       11   -1    0    0    0    0  0.00000000000E+00  0.00000000000E+00  0.39999999673E+01  0.40000000000E+01  0.51109989000E-03 0. -1.
     -623   -1    0    0    0    0  0.00000000000E+00  0.00000000000E+00  0.12525980253E-10  0.17130000000E+03  0.17130000000E+03 0.  1.
       11    1    1    2    0    0 -0.11823589676E-02 -0.17809249584E-02  0.75570094346E+00  0.75570413974E+00  0.51109989000E-03 0. -1.
     -623    1    1    2    0    0 -0.18630875186E-03 -0.14417302746E-04  0.65596480305E-04  0.17130000000E+03  0.17130000000E+03 0.  1.
      622    1    1    2    0    0  0.13686677194E-02  0.17953422612E-02  0.32442334274E+01  0.32442958601E+01  0.20000000000E-01 0. -1.
</event>
<event>
 5   0  0.3603037E+08  0.9118800E+02  0.7818608E-02  0.1180000E+00
       11   -1    0    0    0    0  0.00000000000E+00  0.00000000000E+00  0.39999999673E+01  0.40000000000E+01  0.51109989000E-03 0.  1.
     -623   -1    0    0    0    0  0.00000000000E+00  0.00000000000E+00  0.12525980253E-10  0.17130000000E+03  0.17130000000E+03 0. -1.
       11    1    1    2    0    0  0.48179047775E-02 -0.55880255001E-01  0.14250708970E+01  0.14261743013E+01  0.51109989000E-03 0.  1.
     -623    1    1    2    0    0 -0.51902781742E-02  0.45188529545E-02  0.16937837775E-02  0.17130000015E+03  0.17130000000E+03 0. -1.
      622    1    1    2    0    0  0.37237339665E-03  0.51361402046E-01  0.25732352866E+01  0.25738255521E+01  0.20000000000E-01 0. -1.
</event>
<event>
 5   0  0.3603037E+08  0.9118800E+02  0.7818608E-02  0.1180000E+00
       11   -1    0    0    0    0  0.00000000000E+00  0.00000000000E+00  0.39999999673E+01  0.40000000000E+01  0.51109989000E-03 0.  1.
     -623   -1    0    0    0    0  0.00000000000E+00  0.00000000000E+00  0.12525980253E-10  0.17130000000E+03  0.17130000000E+03 0. -1.
       11    1    1    2    0    0  0.16093545998E-02 -0.20545792424E-01  0.19523066103E+01  0.19524154480E+01  0.51109989000E-03 0.  1.
     -623    1    1    2    0    0  0.38051054740E-02  0.19684605159E-01  0.21499712033E-03  0.17130000117E+03  0.17130000000E+03 0. -1.
      622    1    1    2    0    0 -0.54144600738E-02  0.86118726457E-03  0.20474783599E+01  0.20475833786E+01  0.20000000000E-01 0.  0.
</event>
<event>
 5   0  0.3603037E+08  0.9118800E+02  0.7818608E-02  0.1180000E+00
       11   -1    0    0    0    0  0.00000000000E+00  0.00000000000E+00  0.39999999673E+01  0.40000000000E+01  0.51109989000E-03 0. -1.
     -623   -1    0    0    0    0  0.00000000000E+00  0.00000000000E+00  0.12525980253E-10  0.17130000000E+03  0.17130000000E+03 0. -1.
       11    1    1    2    0    0  0.23398969188E-03  0.15644675281E-01  0.72667793247E+00  0.72684653771E+00  0.51109989000E-03 0. -1.
     -623    1    1    2    0    0  0.19290286682E-02 -0.19742614973E-02  0.25896155880E-03  0.17130000002E+03  0.17130000000E+03 0. -1.
      622    1    1    2    0    0 -0.21630183601E-02 -0.13670413783E-01  0.32730630733E+01  0.32731534399E+01  0.20000000000E-01 0.  1.
</event>
<event>
 5   0  0.3603037E+08  0.9118800E+02  0.7818608E-02  0.1180000E+00
       11   -1    0    0    0    0  0.00000000000E+00  0.00000000000E+00  0.39999999673E+01  0.40000000000E+01  0.51109989000E-03 0. -1.
     -623   -1    0    0    0    0  0.00000000000E+00  0.00000000000E+00  0.12525980253E-10  0.17130000000E+03  0.17130000000E+03 0.  1.
       11    1    1    2    0    0  0.54655926286E-02 -0.16993266288E-01  0.69420688053E+00  0.69443653273E+00  0.51109989000E-03 0. -1.
     -623    1    1    2    0    0  0.48483985703E-02  0.37743514237E-02  0.33275771794E-03  0.17130000011E+03  0.17130000000E+03 0.  1.
      622    1    1    2    0    0 -0.10313991199E-01  0.13218914865E-01  0.33054603291E+01  0.33055633567E+01  0.20000000000E-01 0. -1.
</event>
<event>
 5   0  0.3603037E+08  0.9118800E+02  0.7818608E-02  0.1180000E+00
       11   -1    0    0    0    0  0.00000000000E+00  0.00000000000E+00  0.39999999673E+01  0.40000000000E+01  0.51109989000E-03 0. -1.
     -623   -1    0    0    0    0  0.00000000000E+00  0.00000000000E+00  0.12525980253E-10  0.17130000000E+03  0.17130000000E+03 0.  1.
       11    1    1    2    0    0  0.89455387486E-04 -0.61568527281E-03  0.90721287455E-02  0.91077885273E-02  0.51109989000E-03 0. -1.
     -623    1    1    2    0    0 -0.44043966924E-03  0.49971738783E-04  0.85797688602E-04  0.17130000000E+03  0.17130000000E+03 0.  1.
      622    1    1    2    0    0  0.35098428176E-03  0.56571353402E-03  0.39908420409E+01  0.39908922109E+01  0.20000000000E-01 0. -1.
</event>
<event>
 5   0  0.3603037E+08  0.9118800E+02  0.7818608E-02  0.1180000E+00
       11   -1    0    0    0    0  0.00000000000E+00  0.00000000000E+00  0.39999999673E+01  0.40000000000E+01  0.51109989000E-03 0. -1.
     -623   -1    0    0    0    0  0.00000000000E+00  0.00000000000E+00  0.12525980253E-10  0.17130000000E+03  0.17130000000E+03 0.  1.
       11    1    1    2    0    0  0.17823744927E-01 -0.60180621491E-02  0.32862832479E+01  0.32863371327E+01  0.51109989000E-03 0. -1.
     -623    1    1    2    0    0 -0.47902622150E-02 -0.44303966643E-03  0.48255503569E-03  0.17130000007E+03  0.17130000000E+03 0.  1.
      622    1    1    2    0    0 -0.13033482712E-01  0.64611018155E-02  0.71323416445E+00  0.71366279912E+00  0.20000000000E-01 0.  0.
</event>
<event>
 5   0  0.3603037E+08  0.9118800E+02  0.7818608E-02  0.1180000E+00
       11   -1    0    0    0    0  0.00000000000E+00  0.00000000000E+00  0.39999999673E+01  0.40000000000E+01  0.51109989000E-03 0.  1.
     -623   -1    0    0    0    0  0.00000000000E+00  0.00000000000E+00  0.12525980253E-10  0.17130000000E+03  0.17130000000E+03 0. -1.
       11    1    1    2    0    0 -0.82340513666E-03  0.79846395263E-02  0.47684869500E+00  0.47691652478E+00  0.51109989000E-03 0.  1.
     -623    1    1    2    0    0 -0.64985406283E-02 -0.78570879379E-02  0.13248052414E-03  0.17130000030E+03  0.17130000000E+03 0. -1.
      622    1    1    2    0    0  0.73219457650E-02 -0.12755158844E-03  0.35230187918E+01  0.35230831717E+01  0.20000000000E-01 0.  1.
</event>
<event>
 5   0  0.3603037E+08  0.9118800E+02  0.7818608E-02  0.1180000E+00
       11   -1    0    0    0    0  0.00000000000E+00  0.00000000000E+00  0.39999999673E+01  0.40000000000E+01  0.51109989000E-03 0. -1.
     -623   -1    0    0    0    0  0.00000000000E+00  0.00000000000E+00  0.12525980253E-10  0.17130000000E+03  0.17130000000E+03 0.  1.
       11    1    1    2    0    0 -0.40984183243E-02 -0.55224104211E-03  0.60528528035E+00  0.60529962319E+00  0.51109989000E-03 0. -1.
     -623    1    1    2    0    0  0.79702793254E-02  0.34592018705E-02  0.76899198211E-04  0.17130000022E+03  0.17130000000E+03 0.  1.
      622    1    1    2    0    0 -0.38718610010E-02 -0.29069608284E-02  0.33946377878E+01  0.33947001564E+01  0.20000000000E-01 0. -1.
</event>
<event>
 5   0  0.3603037E+08  0.9118800E+02  0.7818608E-02  0.1180000E+00
       11   -1    0    0    0    0  0.00000000000E+00  0.00000000000E+00  0.39999999673E+01  0.40000000000E+01  0.51109989000E-03 0.  1.
     -623   -1    0    0    0    0  0.00000000000E+00  0.00000000000E+00  0.12525980253E-10  0.17130000000E+03  0.17130000000E+03 0. -1.
       11    1    1    2    0    0  0.38800322799E-02 -0.48978933792E-02  0.72217069810E-01  0.72488691553E-01  0.51109989000E-03 0.  1.
     -623    1    1    2    0    0 -0.52972214777E-03 -0.23017582090E-03  0.32729039067E-03  0.17130000000E+03  0.17130000000E+03 0. -1.
      622    1    1    2    0    0 -0.33503101321E-02  0.51280692001E-02  0.39274556072E+01  0.39275113072E+01  0.20000000000E-01 0.  1.
</event>
<event>
 5   0  0.3603037E+08  0.9118800E+02  0.7818608E-02  0.1180000E+00
       11   -1    0    0    0    0  0.00000000000E+00  0.00000000000E+00  0.39999999673E+01  0.40000000000E+01  0.51109989000E-03 0.  1.
     -623   -1    0    0    0    0  0.00000000000E+00  0.00000000000E+00  0.12525980253E-10  0.17130000000E+03  0.17130000000E+03 0. -1.
       11    1    1    2    0    0 -0.88160339105E-03  0.15924437501E-02  0.17431878216E+00  0.17432903412E+00  0.51109989000E-03 0.  1.
     -623    1    1    2    0    0  0.34354264705E-03 -0.27760877725E-04  0.62856266582E-04  0.17130000000E+03  0.17130000000E+03 0. -1.
      622    1    1    2    0    0  0.53806074401E-03 -0.15646828724E-02  0.38256183289E+01  0.38256709655E+01  0.20000000000E-01 0.  1.
</event>
<event>
 5   0  0.3603037E+08  0.9118800E+02  0.7818608E-02  0.1180000E+00
       11   -1    0    0    0    0  0.00000000000E+00  0.00000000000E+00  0.39999999673E+01  0.40000000000E+01  0.51109989000E-03 0.  1.
     -623   -1    0    0    0    0  0.00000000000E+00  0.00000000000E+00  0.12525980253E-10  0.17130000000E+03  0.17130000000E+03 0. -1.
       11    1    1    2    0    0  0.38962425251E-02  0.95904022989E-03  0.32597556115E+00  0.32600065668E+00  0.51109989000E-03 0.  1.
     -623    1    1    2    0    0 -0.11019168467E-02  0.21385324011E-02  0.81885256455E-04  0.17130000002E+03  0.17130000000E+03 0. -1.
      622    1    1    2    0    0 -0.27943256784E-02 -0.30975726310E-02  0.36739425209E+01  0.36739993264E+01  0.20000000000E-01 0.  1.
</event>
<event>
 5   0  0.3603037E+08  0.9118800E+02  0.7818608E-02  0.1180000E+00
       11   -1    0    0    0    0  0.00000000000E+00  0.00000000000E+00  0.39999999673E+01  0.40000000000E+01  0.51109989000E-03 0. -1.
     -623   -1    0    0    0    0  0.00000000000E+00  0.00000000000E+00  0.12525980253E-10  0.17130000000E+03  0.17130000000E+03 0. -1.
       11    1    1    2    0    0  0.17320594718E-02  0.56468110467E-02  0.23958457941E+01  0.23958531292E+01  0.51109989000E-03 0. -1.
     -623    1    1    2    0    0 -0.12667479226E-04  0.53258995008E-03  0.14480955714E-03  0.17130000000E+03  0.17130000000E+03 0. -1.
      622    1    1    2    0    0 -0.17193919926E-02 -0.61794009967E-02  0.16040093637E+01  0.16041468699E+01  0.20000000000E-01 0. -1.
</event>
<event>
 5   0  0.3603037E+08  0.9118800E+02  0.7818608E-02  0.1180000E+00
       11   -1    0    0    0    0  0.00000000000E+00  0.00000000000E+00  0.39999999673E+01  0.40000000000E+01  0.51109989000E-03 0. -1.
     -623   -1    0    0    0    0  0.00000000000E+00  0.00000000000E+00  0.12525980253E-10  0.17130000000E+03  0.17130000000E+03 0. -1.
       11    1    1    2    0    0 -0.35779585691E-02  0.56345484083E-03  0.61428971424E-01  0.61537785300E-01  0.51109989000E-03 0. -1.
     -623    1    1    2    0    0  0.48086869181E-02  0.10114461963E-02  0.16014054546E-03  0.17130000007E+03  0.17130000000E+03 0. -1.
      622    1    1    2    0    0 -0.12307283490E-02 -0.15749010372E-02  0.39384108554E+01  0.39384621441E+01  0.20000000000E-01 0. -1.
</event>
<event>
 5   0  0.3603037E+08  0.9118800E+02  0.7818608E-02  0.1180000E+00
       11   -1    0    0    0    0  0.00000000000E+00  0.00000000000E+00  0.39999999673E+01  0.40000000000E+01  0.51109989000E-03 0.  1.
     -623   -1    0    0    0    0  0.00000000000E+00  0.00000000000E+00  0.12525980253E-10  0.17130000000E+03  0.17130000000E+03 0.  1.
       11    1    1    2    0    0  0.72593906235E-02 -0.31557356078E-02  0.11527362718E+00  0.11554621484E+00  0.51109989000E-03 0.  1.
     -623    1    1    2    0    0  0.17444961167E-03 -0.60679750296E-03  0.33297971161E-03  0.17130000000E+03  0.17130000000E+03 0.  1.
      622    1    1    2    0    0 -0.74338402352E-02  0.37625331108E-02  0.38843933605E+01  0.38844537837E+01  0.20000000000E-01 0.  1.
</event>
<event>
 5   0  0.3603037E+08  0.9118800E+02  0.7818608E-02  0.1180000E+00
       11   -1    0    0    0    0  0.00000000000E+00  0.00000000000E+00  0.39999999673E+01  0.40000000000E+01  0.51109989000E-03 0.  1.
     -623   -1    0    0    0    0  0.00000000000E+00  0.00000000000E+00  0.12525980253E-10  0.17130000000E+03  0.17130000000E+03 0. -1.
       11    1    1    2    0    0 -0.51068664823E-02  0.34052115934E-02  0.11034594138E+01  0.11034766036E+01  0.51109989000E-03 0.  1.
     -623    1    1    2    0    0  0.76232324190E-02  0.29675770761E-02  0.94505436278E-04  0.17130000020E+03  0.17130000000E+03 0. -1.
      622    1    1    2    0    0 -0.25163659367E-02 -0.63727886696E-02  0.28964460481E+01  0.28965232010E+01  0.20000000000E-01 0.  1.
</event>
<event>
 5   0  0.3603037E+08  0.9118800E+02  0.7818608E-02  0.1180000E+00
       11   -1    0    0    0    0  0.00000000000E+00  0.00000000000E+00  0.39999999673E+01  0.40000000000E+01  0.51109989000E-03 0. -1.
     -623   -1    0    0    0    0  0.00000000000E+00  0.00000000000E+00  0.12525980253E-10  0.17130000000E+03  0.17130000000E+03 0.  1.
       11    1    1    2    0    0  0.28305321693E-02 -0.28248462414E-02  0.32323239954E+00  0.32325753975E+00  0.51109989000E-03 0. -1.
     -623    1    1    2    0    0  0.16993976608E-02  0.27292166229E-02  0.82325971813E-04  0.17130000003E+03  0.17130000000E+03 0.  1.
      622    1    1    2    0    0 -0.45299298300E-02  0.95629618517E-04  0.36766852418E+01  0.36767424301E+01  0.20000000000E-01 0. -1.
</event>
<event>
 5   0  0.3603037E+08  0.9118800E+02  0.7818608E-02  0.1180000E+00
       11   -1    0    0    0    0  0.00000000000E+00  0.00000000000E+00  0.39999999673E+01  0.40000000000E+01  0.51109989000E-03 0.  1.
     -623   -1    0    0    0    0  0.00000000000E+00  0.00000000000E+00  0.12525980253E-10  0.17130000000E+03  0.17130000000E+03 0.  1.
       11    1    1    2    0    0 -0.74573477536E-02 -0.22452890539E-01  0.11380525195E+01  0.11382985297E+01  0.51109989000E-03 0.  1.
     -623    1    1    2    0    0 -0.35160312138E-02  0.16821393672E-02  0.41233372992E-03  0.17130000004E+03  0.17130000000E+03 0.  1.
      622    1    1    2    0    0  0.10973378967E-01  0.20770751172E-01  0.28615351141E+01  0.28617014254E+01  0.20000000000E-01 0.  1.
</event>
<event>
 5   0  0.3603037E+08  0.9118800E+02  0.7818608E-02  0.1180000E+00
       11   -1    0    0    0    0  0.00000000000E+00  0.00000000000E+00  0.39999999673E+01  0.40000000000E+01  0.51109989000E-03 0. -1.
     -623   -1    0    0    0    0  0.00000000000E+00  0.00000000000E+00  0.12525980253E-10  0.17130000000E+03  0.17130000000E+03 0.  1.
       11    1    1    2    0    0 -0.22131168298E-01 -0.13864031024E-01  0.19126096507E+00  0.19303631251E+00  0.51109989000E-03 0. -1.
     -623    1    1    2    0    0 -0.54424033463E-02 -0.81165959222E-03  0.19560977669E-02  0.17130000010E+03  0.17130000000E+03 0.  1.
      622    1    1    2    0    0  0.27573571644E-01  0.14675690616E-01  0.38067829045E+01  0.38069635879E+01  0.20000000000E-01 0. -1.
</event>
<event>
 5   0  0.3603037E+08  0.9118800E+02  0.7818608E-02  0.1180000E+00
       11   -1    0    0    0    0  0.00000000000E+00  0.00000000000E+00  0.39999999673E+01  0.40000000000E+01  0.51109989000E-03 0. -1.
     -623   -1    0    0    0    0  0.00000000000E+00  0.00000000000E+00  0.12525980253E-10  0.17130000000E+03  0.17130000000E+03 0.  1.
       11    1    1    2    0    0 -0.17575561597E-02 -0.47523679943E-02  0.10331248322E+01  0.10331373840E+01  0.51109989000E-03 0. -1.
     -623    1    1    2    0    0  0.18012624513E-03  0.12516258630E-02  0.82420600198E-04  0.17130000000E+03  0.17130000000E+03 0.  1.
      622    1    1    2    0    0  0.15774299146E-02  0.35007421313E-02  0.29667927145E+01  0.29668626113E+01  0.20000000000E-01 0.  0.
</event>
<event>
 5   0  0.3603037E+08  0.9118800E+02  0.7818608E-02  0.1180000E+00
       11   -1    0    0    0    0  0.00000000000E+00  0.00000000000E+00  0.39999999673E+01  0.40000000000E+01  0.51109989000E-03 0. -1.
     -623   -1    0    0    0    0  0.00000000000E+00  0.00000000000E+00  0.12525980253E-10  0.17130000000E+03  0.17130000000E+03 0. -1.
       11    1    1    2    0    0  0.90615763042E-02  0.60285969980E-02  0.17957360500E+01  0.17957691051E+01  0.51109989000E-03 0. -1.
     -623    1    1    2    0    0 -0.24874525941E-03  0.32986930089E-03  0.15054920128E-03  0.17130000000E+03  0.17130000000E+03 0. -1.
      622    1    1    2    0    0 -0.88128310448E-02 -0.63584662988E-02  0.22041133681E+01  0.22042308944E+01  0.20000000000E-01 0. -1.
</event>
<event>
 5   0  0.3603037E+08  0.9118800E+02  0.7818608E-02  0.1180000E+00
       11   -1    0    0    0    0  0.00000000000E+00  0.00000000000E+00  0.39999999673E+01  0.40000000000E+01  0.51109989000E-03 0.  1.
     -623   -1    0    0    0    0  0.00000000000E+00  0.00000000000E+00  0.12525980253E-10  0.17130000000E+03  0.17130000000E+03 0.  1.
       11    1    1    2    0    0  0.14733317976E-02  0.26589137832E-04  0.84972773426E-01  0.84987086423E-01  0.51109989000E-03 0.  1.
     -623    1    1    2    0    0 -0.83210530249E-03  0.16577065050E-03  0.65425442093E-04  0.17130000000E+03  0.17130000000E+03 0.  1.
      622    1    1    2    0    0 -0.64122649507E-03 -0.19235978833E-03  0.39149617685E+01  0.39150129115E+01  0.20000000000E-01 0.  1.
</event>
<event>
 5   0  0.3603037E+08  0.9118800E+02  0.7818608E-02  0.1180000E+00
       11   -1    0    0    0    0  0.00000000000E+00  0.00000000000E+00  0.39999999673E+01  0.40000000000E+01  0.51109989000E-03 0. -1.
     -623   -1    0    0    0    0  0.00000000000E+00  0.00000000000E+00  0.12525980253E-10  0.17130000000E+03  0.17130000000E+03 0. -1.
       11    1    1    2    0    0  0.13870175301E-01 -0.40933124339E-02  0.27284663950E+01  0.27285047676E+01  0.51109989000E-03 0. -1.
     -623    1    1    2    0    0  0.20289108408E-02 -0.17238139001E-02  0.30839451443E-03  0.17130000002E+03  0.17130000000E+03 0. -1.
      622    1    1    2    0    0 -0.15899086142E-01  0.58171263340E-02  0.12712251779E+01  0.12714952115E+01  0.20000000000E-01 0.  0.
</event>
<event>
 5   0  0.3603037E+08  0.9118800E+02  0.7818608E-02  0.1180000E+00
       11   -1    0    0    0    0  0.00000000000E+00  0.00000000000E+00  0.39999999673E+01  0.40000000000E+01  0.51109989000E-03 0. -1.
     -623   -1    0    0    0    0  0.00000000000E+00  0.00000000000E+00  0.12525980253E-10  0.17130000000E+03  0.17130000000E+03 0. -1.
       11    1    1    2    0    0  0.46334691899E-02  0.31568257913E-02  0.11586029980E+00  0.11599700374E+00  0.51109989000E-03 0. -1.
     -623    1    1    2    0    0 -0.20171400931E-03  0.27842136563E-03  0.19221296454E-03  0.17130000000E+03  0.17130000000E+03 0. -1.
      622    1    1    2    0    0 -0.44317551806E-02 -0.34352471569E-02  0.38839474546E+01  0.38840029958E+01  0.20000000000E-01 0. -1.
</event>
<event>
 5   0  0.3603037E+08  0.9118800E+02  0.7818608E-02  0.1180000E+00
       11   -1    0    0    0    0  0.00000000000E+00  0.00000000000E+00  0.39999999673E+01  0.40000000000E+01  0.51109989000E-03 0. -1.
     -623   -1    0    0    0    0  0.00000000000E+00  0.00000000000E+00  0.12525980253E-10  0.17130000000E+03  0.17130000000E+03 0.  1.
       11    1    1    2    0    0  0.92270032847E-03  0.60163987296E-02  0.12100077009E+00  0.12115484313E+00  0.51109989000E-03 0. -1.
     -623    1    1    2    0    0  0.57116328743E-02 -0.42266573847E-02  0.21183660797E-03  0.17130000015E+03  0.17130000000E+03 0.  1.
      622    1    1    2    0    0 -0.66343332028E-02 -0.17897413449E-02  0.38787873607E+01  0.38788450094E+01  0.20000000000E-01 0. -1.
</event>
<event>
 5   0  0.3603037E+08  0.9118800E+02  0.7818608E-02  0.1180000E+00
       11   -1    0    0    0    0  0.00000000000E+00  0.00000000000E+00  0.39999999673E+01  0.40000000000E+01  0.51109989000E-03 0. -1.
     -623   -1    0    0    0    0  0.00000000000E+00  0.00000000000E+00  0.12525980253E-10  0.17130000000E+03  0.17130000000E+03 0.  1.
       11    1    1    2    0    0  0.18116421613E-02 -0.64269373546E-03  0.11692577001E-01  0.11860551387E-01  0.51109989000E-03 0. -1.
     -623    1    1    2    0    0 -0.22313764038E-03  0.70022898039E-03  0.21840924991E-03  0.17130000000E+03  0.17130000000E+03 0.  1.
      622    1    1    2    0    0 -0.15885045209E-02 -0.57535244936E-04  0.39880889811E+01  0.39881394469E+01  0.20000000000E-01 0. -1.
</event>
<event>
 5   0  0.3603037E+08  0.9118800E+02  0.7818608E-02  0.1180000E+00
       11   -1    0    0    0    0  0.00000000000E+00  0.00000000000E+00  0.39999999673E+01  0.40000000000E+01  0.51109989000E-03 0. -1.
     -623   -1    0    0    0    0  0.00000000000E+00  0.00000000000E+00  0.12525980253E-10  0.17130000000E+03  0.17130000000E+03 0.  1.
       11    1    1    2    0    0  0.45638864008E-02 -0.60204625563E-03  0.74374455967E+00  0.74375898164E+00  0.51109989000E-03 0. -1.
     -623    1    1    2    0    0 -0.12628362423E-02 -0.47067436739E-02  0.81880699611E-04  0.17130000007E+03  0.17130000000E+03 0.  1.
      622    1    1    2    0    0 -0.33010501585E-02  0.53087899295E-02  0.32561735270E+01  0.32562409490E+01  0.20000000000E-01 0. -1.
</event>
<event>
 5   0  0.3603037E+08  0.9118800E+02  0.7818608E-02  0.1180000E+00
       11   -1    0    0    0    0  0.00000000000E+00  0.00000000000E+00  0.39999999673E+01  0.40000000000E+01  0.51109989000E-03 0.  1.
     -623   -1    0    0    0    0  0.00000000000E+00  0.00000000000E+00  0.12525980253E-10  0.17130000000E+03  0.17130000000E+03 0.  1.
       11    1    1    2    0    0  0.10724706254E-02  0.43793181404E-02  0.39568818491E-01  0.39828146335E-01  0.51109989000E-03 0.  1.
     -623    1    1    2    0    0 -0.89671061640E-03  0.25560069452E-03  0.31251745859E-03  0.17130000000E+03  0.17130000000E+03 0.  1.
      622    1    1    2    0    0 -0.17576000903E-03 -0.46349188349E-02  0.39601186314E+01  0.39601718508E+01  0.20000000000E-01 0.  1.
</event>
<event>
 5   0  0.3603037E+08  0.9118800E+02  0.7818608E-02  0.1180000E+00
       11   -1    0    0    0    0  0.00000000000E+00  0.00000000000E+00  0.39999999673E+01  0.40000000000E+01  0.51109989000E-03 0. -1.
     -623   -1    0    0    0    0  0.00000000000E+00  0.00000000000E+00  0.12525980253E-10  0.17130000000E+03  0.17130000000E+03 0.  1.
       11    1    1    2    0    0 -0.42525678851E-02 -0.63868383286E-02  0.47037522227E-01  0.47661994869E-01  0.51109989000E-03 0. -1.
     -623    1    1    2    0    0 -0.19826069739E-02  0.12195192160E-01  0.68467661882E-03  0.17130000045E+03  0.17130000000E+03 0.  1.
      622    1    1    2    0    0  0.62351748590E-02 -0.58083538313E-02  0.39522777685E+01  0.39523375582E+01  0.20000000000E-01 0. -1.
</event>
<event>
 5   0  0.3603037E+08  0.9118800E+02  0.7818608E-02  0.1180000E+00
       11   -1    0    0    0    0  0.00000000000E+00  0.00000000000E+00  0.39999999673E+01  0.40000000000E+01  0.51109989000E-03 0. -1.
     -623   -1    0    0    0    0  0.00000000000E+00  0.00000000000E+00  0.12525980253E-10  0.17130000000E+03  0.17130000000E+03 0.  1.
       11    1    1    2    0    0 -0.34543301427E-02  0.22292988084E-02  0.25299781964E-01  0.25636738451E-01  0.51109989000E-03 0. -1.
     -623    1    1    2    0    0  0.68417613010E-02  0.82920925479E-03  0.39000624925E-03  0.17130000014E+03  0.17130000000E+03 0.  1.
      622    1    1    2    0    0 -0.33874311583E-02 -0.30585080632E-02  0.39743101791E+01  0.39743631225E+01  0.20000000000E-01 0. -1.
</event>
<event>
 5   0  0.3603037E+08  0.9118800E+02  0.7818608E-02  0.1180000E+00
       11   -1    0    0    0    0  0.00000000000E+00  0.00000000000E+00  0.39999999673E+01  0.40000000000E+01  0.51109989000E-03 0. -1.
     -623   -1    0    0    0    0  0.00000000000E+00  0.00000000000E+00  0.12525980253E-10  0.17130000000E+03  0.17130000000E+03 0. -1.
       11    1    1    2    0    0  0.29750519058E-01 -0.25100353050E-01  0.27623551562E-01  0.47733038136E-01  0.51109989000E-03 0. -1.
     -623    1    1    2    0    0 -0.26919306388E-01  0.24775345147E-01  0.20166179459E-01  0.17130000509E+03  0.17130000000E+03 0. -1.
      622    1    1    2    0    0 -0.28312126698E-02  0.32500790228E-03  0.39522102363E+01  0.39522618680E+01  0.20000000000E-01 0. -1.
</event>
<event>
 5   0  0.3603037E+08  0.9118800E+02  0.7818608E-02  0.1180000E+00
       11   -1    0    0    0    0  0.00000000000E+00  0.00000000000E+00  0.39999999673E+01  0.40000000000E+01  0.51109989000E-03 0. -1.
     -623   -1    0    0    0    0  0.00000000000E+00  0.00000000000E+00  0.12525980253E-10  0.17130000000E+03  0.17130000000E+03 0.  1.
       11    1    1    2    0    0  0.91264832853E-03  0.23279120829E-02  0.61098779097E-01  0.61152057450E-01  0.51109989000E-03 0. -1.
     -623    1    1    2    0    0  0.10045718737E-02  0.61327916084E-04  0.10521654924E-03  0.17130000000E+03  0.17130000000E+03 0.  1.
      622    1    1    2    0    0 -0.19172202022E-02 -0.23892399990E-02  0.39387959717E+01  0.39388479396E+01  0.20000000000E-01 0. -1.
</event>
<event>
 5   0  0.3603037E+08  0.9118800E+02  0.7818608E-02  0.1180000E+00
       11   -1    0    0    0    0  0.00000000000E+00  0.00000000000E+00  0.39999999673E+01  0.40000000000E+01  0.51109989000E-03 0.  1.
     -623   -1    0    0    0    0  0.00000000000E+00  0.00000000000E+00  0.12525980253E-10  0.17130000000E+03  0.17130000000E+03 0. -1.
       11    1    1    2    0    0 -0.61478906460E-02 -0.13150639684E-02  0.73600235660E+00  0.73602938534E+00  0.51109989000E-03 0.  1.
     -623    1    1    2    0    0 -0.10338896432E-04 -0.71928787940E-04  0.94376056966E-04  0.17130000000E+03  0.17130000000E+03 0. -1.
      622    1    1    2    0    0  0.61582295425E-02  0.13869927563E-02  0.32639032347E+01  0.32639706146E+01  0.20000000000E-01 0.  1.
</event>
<event>
 5   0  0.3603037E+08  0.9118800E+02  0.7818608E-02  0.1180000E+00
       11   -1    0    0    0    0  0.00000000000E+00  0.00000000000E+00  0.39999999673E+01  0.40000000000E+01  0.51109989000E-03 0. -1.
     -623   -1    0    0    0    0  0.00000000000E+00  0.00000000000E+00  0.12525980253E-10  0.17130000000E+03  0.17130000000E+03 0.  1.
       11    1    1    2    0    0  0.14868689165E-03  0.74063730387E-04  0.34393434170E-01  0.34397632602E-01  0.51109989000E-03 0. -1.
     -623    1    1    2    0    0  0.44282225534E-04  0.35974586300E-03  0.54628628112E-04  0.17130000000E+03  0.17130000000E+03 0.  1.
      622    1    1    2    0    0 -0.19296911718E-03 -0.43380959339E-03  0.39655519046E+01  0.39656023670E+01  0.20000000000E-01 0. -1.
</event>
<event>
 5   0  0.3603037E+08  0.9118800E+02  0.7818608E-02  0.1180000E+00
       11   -1    0    0    0    0  0.00000000000E+00  0.00000000000E+00  0.39999999673E+01  0.40000000000E+01  0.51109989000E-03 0.  1.
     -623   -1    0    0    0    0  0.00000000000E+00  0.00000000000E+00  0.12525980253E-10  0.17130000000E+03  0.17130000000E+03 0.  1.
       11    1    1    2    0    0 -0.31103152287E-02  0.13152742596E-02  0.10820966524E-01  0.11347182319E-01  0.51109989000E-03 0.  1.
     -623    1    1    2    0    0  0.39653228647E-02 -0.40776374733E-03  0.57656794751E-03  0.17130000005E+03  0.17130000000E+03 0.  1.
      622    1    1    2    0    0 -0.85500763596E-03 -0.90751051223E-03  0.39886024329E+01  0.39886527703E+01  0.20000000000E-01 0.  1.
</event>
<event>
 5   0  0.3603037E+08  0.9118800E+02  0.7818608E-02  0.1180000E+00
       11   -1    0    0    0    0  0.00000000000E+00  0.00000000000E+00  0.39999999673E+01  0.40000000000E+01  0.51109989000E-03 0. -1.
     -623   -1    0    0    0    0  0.00000000000E+00  0.00000000000E+00  0.12525980253E-10  0.17130000000E+03  0.17130000000E+03 0.  1.
       11    1    1    2    0    0  0.70968785098E-02 -0.14642235221E-01  0.16014438022E+00  0.16096970048E+00  0.51109989000E-03 0. -1.
     -623    1    1    2    0    0 -0.15283703740E-02  0.33082374693E-02  0.89819520359E-03  0.17130000004E+03  0.17130000000E+03 0.  1.
      622    1    1    2    0    0 -0.55685081358E-02  0.11333997752E-01  0.38389573919E+01  0.38390302584E+01  0.20000000000E-01 0. -1.
</event>
<event>
 5   0  0.3603037E+08  0.9118800E+02  0.7818608E-02  0.1180000E+00
       11   -1    0    0    0    0  0.00000000000E+00  0.00000000000E+00  0.39999999673E+01  0.40000000000E+01  0.51109989000E-03 0.  1.
     -623   -1    0    0    0    0  0.00000000000E+00  0.00000000000E+00  0.12525980253E-10  0.17130000000E+03  0.17130000000E+03 0. -1.
       11    1    1    2    0    0 -0.21524910097E-02  0.65184676404E-03  0.11135879292E+01  0.11135903175E+01  0.51109989000E-03 0.  1.
     -623    1    1    2    0    0 -0.11259577220E-03 -0.51260000635E-03  0.72539756908E-04  0.17130000000E+03  0.17130000000E+03 0. -1.
      622    1    1    2    0    0  0.22650867819E-02 -0.13924675769E-03  0.28863394985E+01  0.28864096817E+01  0.20000000000E-01 0.  1.
</event>
<event>
 5   0  0.3603037E+08  0.9118800E+02  0.7818608E-02  0.1180000E+00
       11   -1    0    0    0    0  0.00000000000E+00  0.00000000000E+00  0.39999999673E+01  0.40000000000E+01  0.51109989000E-03 0.  1.
     -623   -1    0    0    0    0  0.00000000000E+00  0.00000000000E+00  0.12525980253E-10  0.17130000000E+03  0.17130000000E+03 0.  1.
       11    1    1    2    0    0  0.18255323845E-02 -0.67280180668E-03  0.90099974595E-01  0.90122427145E-01  0.51109989000E-03 0.  1.
     -623    1    1    2    0    0 -0.14391393383E-02 -0.24195530753E-02  0.74837885534E-04  0.17130000002E+03  0.17130000000E+03 0.  1.
      622    1    1    2    0    0 -0.38639304619E-03  0.30923548820E-02  0.39098251549E+01  0.39098775497E+01  0.20000000000E-01 0.  1.
</event>
<event>
 5   0  0.3603037E+08  0.9118800E+02  0.7818608E-02  0.1180000E+00
       11   -1    0    0    0    0  0.00000000000E+00  0.00000000000E+00  0.39999999673E+01  0.40000000000E+01  0.51109989000E-03 0. -1.
     -623   -1    0    0    0    0  0.00000000000E+00  0.00000000000E+00  0.12525980253E-10  0.17130000000E+03  0.17130000000E+03 0. -1.
       11    1    1    2    0    0 -0.27723502095E-02  0.47825745604E-02  0.93524660747E+00  0.93526308435E+00  0.51109989000E-03 0. -1.
     -623    1    1    2    0    0 -0.13659443417E-02 -0.22282761285E-03  0.87895119059E-04  0.17130000001E+03  0.17130000000E+03 0. -1.
      622    1    1    2    0    0  0.41382945511E-02 -0.45597469475E-02  0.30646654648E+01  0.30647369100E+01  0.20000000000E-01 0. -1.
</event>
<event>
 5   0  0.3603037E+08  0.9118800E+02  0.7818608E-02  0.1180000E+00
       11   -1    0    0    0    0  0.00000000000E+00  0.00000000000E+00  0.39999999673E+01  0.40000000000E+01  0.51109989000E-03 0.  1.
     -623   -1    0    0    0    0  0.00000000000E+00  0.00000000000E+00  0.12525980253E-10  0.17130000000E+03  0.17130000000E+03 0.  1.
       11    1    1    2    0    0  0.26764723337E-02 -0.84340622793E-02  0.15433678424E+00  0.15459107705E+00  0.51109989000E-03 0.  1.
     -623    1    1    2    0    0  0.12387921252E-02  0.49604020749E-02  0.30990934158E-03  0.17130000008E+03  0.17130000000E+03 0.  1.
      622    1    1    2    0    0 -0.39152644590E-02  0.34736602044E-02  0.38453532738E+01  0.38454088464E+01  0.20000000000E-01 0.  1.
</event>
<event>
 5   0  0.3603037E+08  0.9118800E+02  0.7818608E-02  0.1180000E+00
       11   -1    0    0    0    0  0.00000000000E+00  0.00000000000E+00  0.39999999673E+01  0.40000000000E+01  0.51109989000E-03 0.  1.
     -623   -1    0    0    0    0  0.00000000000E+00  0.00000000000E+00  0.12525980253E-10  0.17130000000E+03  0.17130000000E+03 0. -1.
       11    1    1    2    0    0  0.48423179484E-04  0.10926787122E-02  0.17278110888E-01  0.17320237544E-01  0.51109989000E-03 0.  1.
     -623    1    1    2    0    0  0.23818153792E-02 -0.42517360608E-03  0.93126305043E-04  0.17130000002E+03  0.17130000000E+03 0. -1.
      622    1    1    2    0    0 -0.24302385586E-02 -0.66750510610E-03  0.39826287302E+01  0.39826797453E+01  0.20000000000E-01 0.  1.
</event>
<event>
 5   0  0.3603037E+08  0.9118800E+02  0.7818608E-02  0.1180000E+00
       11   -1    0    0    0    0  0.00000000000E+00  0.00000000000E+00  0.39999999673E+01  0.40000000000E+01  0.51109989000E-03 0. -1.
     -623   -1    0    0    0    0  0.00000000000E+00  0.00000000000E+00  0.12525980253E-10  0.17130000000E+03  0.17130000000E+03 0.  1.
       11    1    1    2    0    0 -0.42156393213E-02  0.36752331489E-03  0.14298155621E-01  0.14919958597E-01  0.51109989000E-03 0. -1.
     -623    1    1    2    0    0  0.11378698524E-02  0.25198429293E-02  0.67421604679E-03  0.17130000002E+03  0.17130000000E+03 0.  1.
      622    1    1    2    0    0  0.30777694689E-02 -0.28873662442E-02  0.39850275957E+01  0.39850800178E+01  0.20000000000E-01 0. -1.
</event>
<event>
 5   0  0.3603037E+08  0.9118800E+02  0.7818608E-02  0.1180000E+00
       11   -1    0    0    0    0  0.00000000000E+00  0.00000000000E+00  0.39999999673E+01  0.40000000000E+01  0.51109989000E-03 0.  1.
     -623   -1    0    0    0    0  0.00000000000E+00  0.00000000000E+00  0.12525980253E-10  0.17130000000E+03  0.17130000000E+03 0.  1.
       11    1    1    2    0    0 -0.17091111838E-02  0.11837224005E-02  0.89764533328E+00  0.89764788633E+00  0.51109989000E-03 0.  1.
     -623    1    1    2    0    0  0.56925267411E-03  0.10072229459E-03  0.67464593659E-04  0.17130000000E+03  0.17130000000E+03 0.  1.
      622    1    1    2    0    0  0.11398585097E-02 -0.12844446951E-02  0.31022871695E+01  0.31023521127E+01  0.20000000000E-01 0.  1.
</event>
<event>
 5   0  0.3603037E+08  0.9118800E+02  0.7818608E-02  0.1180000E+00
       11   -1    0    0    0    0  0.00000000000E+00  0.00000000000E+00  0.39999999673E+01  0.40000000000E+01  0.51109989000E-03 0. -1.
     -623   -1    0    0    0    0  0.00000000000E+00  0.00000000000E+00  0.12525980253E-10  0.17130000000E+03  0.17130000000E+03 0. -1.
       11    1    1    2    0    0 -0.82164673544E-05  0.23189301200E-03  0.16958768951E-01  0.16968055499E-01  0.51109989000E-03 0. -1.
     -623    1    1    2    0    0 -0.19030271305E-02  0.83641070283E-03  0.60081677593E-04  0.17130000001E+03  0.17130000000E+03 0. -1.
      622    1    1    2    0    0  0.19112435979E-02 -0.10683037148E-02  0.39829811167E+01  0.39830319319E+01  0.20000000000E-01 0. -1.
</event>
<event>
 5   0  0.3603037E+08  0.9118800E+02  0.7818608E-02  0.1180000E+00
       11   -1    0    0    0    0  0.00000000000E+00  0.00000000000E+00  0.39999999673E+01  0.40000000000E+01  0.51109989000E-03 0.  1.
     -623   -1    0    0    0    0  0.00000000000E+00  0.00000000000E+00  0.12525980253E-10  0.17130000000E+03  0.17130000000E+03 0. -1.
       11    1    1    2    0    0  0.27044289375E-01 -0.12094506771E-01  0.16865401619E+01  0.16868004178E+01  0.51109989000E-03 0.  1.
     -623    1    1    2    0    0  0.70387714941E-02 -0.30892516118E-02  0.64781530564E-03  0.17130000017E+03  0.17130000000E+03 0. -1.
      622    1    1    2    0    0 -0.34083060869E-01  0.15183758382E-01  0.23128119902E+01  0.23131994085E+01  0.20000000000E-01 0.  0.
</event>
<event>
 5   0  0.3603037E+08  0.9118800E+02  0.7818608E-02  0.1180000E+00
       11   -1    0    0    0    0  0.00000000000E+00  0.00000000000E+00  0.39999999673E+01  0.40000000000E+01  0.51109989000E-03 0.  1.
     -623   -1    0    0    0    0  0.00000000000E+00  0.00000000000E+00  0.12525980253E-10  0.17130000000E+03  0.17130000000E+03 0. -1.
       11    1    1    2    0    0  0.35958354346E-04  0.10787342584E-03  0.30586379207E-01  0.30590860443E-01  0.51109989000E-03 0.  1.
     -623    1    1    2    0    0 -0.41353007005E-04  0.64443019116E-04  0.54838018000E-04  0.17130000000E+03  0.17130000000E+03 0. -1.
      622    1    1    2    0    0  0.53946526581E-05 -0.17231644496E-03  0.39693587501E+01  0.39694091395E+01  0.20000000000E-01 0.  1.
</event>
<event>
 5   0  0.3603037E+08  0.9118800E+02  0.7818608E-02  0.1180000E+00
       11   -1    0    0    0    0  0.00000000000E+00  0.00000000000E+00  0.39999999673E+01  0.40000000000E+01  0.51109989000E-03 0.  1.
     -623   -1    0    0    0    0  0.00000000000E+00  0.00000000000E+00  0.12525980253E-10  0.17130000000E+03  0.17130000000E+03 0. -1.
       11    1    1    2    0    0 -0.19311363271E-02 -0.45467395497E-03  0.16889647600E+00  0.16890890101E+00  0.51109989000E-03 0.  1.
     -623    1    1    2    0    0  0.28753451816E-02 -0.12288273021E-02  0.65111988564E-04  0.17130000003E+03  0.17130000000E+03 0. -1.
      622    1    1    2    0    0 -0.94420885455E-03  0.16835012570E-02  0.38310383794E+01  0.38310910704E+01  0.20000000000E-01 0.  1.
</event>
<event>
 5   0  0.3603037E+08  0.9118800E+02  0.7818608E-02  0.1180000E+00
       11   -1    0    0    0    0  0.00000000000E+00  0.00000000000E+00  0.39999999673E+01  0.40000000000E+01  0.51109989000E-03 0.  1.
     -623   -1    0    0    0    0  0.00000000000E+00  0.00000000000E+00  0.12525980253E-10  0.17130000000E+03  0.17130000000E+03 0.  1.
       11    1    1    2    0    0  0.88426443158E-03 -0.83105007681E-03  0.88266619152E-02  0.89243347790E-02  0.51109989000E-03 0.  1.
     -623    1    1    2    0    0 -0.81216345956E-04  0.18258305685E-02  0.14796692424E-03  0.17130000001E+03  0.17130000000E+03 0.  1.
      622    1    1    2    0    0 -0.80304808563E-03 -0.99478049168E-03  0.39910253385E+01  0.39910756554E+01  0.20000000000E-01 0.  1.
</event>
<event>
 5   0  0.3603037E+08  0.9118800E+02  0.7818608E-02  0.1180000E+00
       11   -1    0    0    0    0  0.00000000000E+00  0.00000000000E+00  0.39999999673E+01  0.40000000000E+01  0.51109989000E-03 0.  1.
     -623   -1    0    0    0    0  0.00000000000E+00  0.00000000000E+00  0.12525980253E-10  0.17130000000E+03  0.17130000000E+03 0.  1.
       11    1    1    2    0    0 -0.14533253182E-01  0.27418922684E-03  0.84186241385E+00  0.84198804962E+00  0.51109989000E-03 0.  1.
     -623    1    1    2    0    0 -0.13868099800E-02  0.93297256294E-02  0.24392738868E-03  0.17130000026E+03  0.17130000000E+03 0.  1.
      622    1    1    2    0    0  0.15920063162E-01 -0.96039148563E-02  0.31578936261E+01  0.31580116905E+01  0.20000000000E-01 0.  1.
</event>
<event>
 5   0  0.3603037E+08  0.9118800E+02  0.7818608E-02  0.1180000E+00
       11   -1    0    0    0    0  0.00000000000E+00  0.00000000000E+00  0.39999999673E+01  0.40000000000E+01  0.51109989000E-03 0. -1.
     -623   -1    0    0    0    0  0.00000000000E+00  0.00000000000E+00  0.12525980253E-10  0.17130000000E+03  0.17130000000E+03 0.  1.
       11    1    1    2    0    0 -0.12770270853E-02 -0.38998025299E-02  0.23208548843E+00  0.23212232641E+00  0.51109989000E-03 0. -1.
     -623    1    1    2    0    0  0.83461916699E-04  0.16287899268E-04  0.92076469803E-04  0.17130000000E+03  0.17130000000E+03 0.  1.
      622    1    1    2    0    0  0.11935651686E-02  0.38835146306E-02  0.37678224025E+01  0.37678776735E+01  0.20000000000E-01 0. -1.
</event>
<event>
 5   0  0.3603037E+08  0.9118800E+02  0.7818608E-02  0.1180000E+00
       11   -1    0    0    0    0  0.00000000000E+00  0.00000000000E+00  0.39999999673E+01  0.40000000000E+01  0.51109989000E-03 0.  1.
     -623   -1    0    0    0    0  0.00000000000E+00  0.00000000000E+00  0.12525980253E-10  0.17130000000E+03  0.17130000000E+03 0.  1.
       11    1    1    2    0    0 -0.87289409655E-03 -0.97724713850E-03  0.10443568584E+00  0.10444515621E+00  0.51109989000E-03 0.  1.
     -623    1    1    2    0    0 -0.98300308167E-05 -0.61286592253E-03  0.61204291856E-04  0.17130000000E+03  0.17130000000E+03 0.  1.
      622    1    1    2    0    0  0.88272412736E-03  0.15901130610E-02  0.38955030772E+01  0.38955548427E+01  0.20000000000E-01 0.  1.
</event>
<event>
 5   0  0.3603037E+08  0.9118800E+02  0.7818608E-02  0.1180000E+00
       11   -1    0    0    0    0  0.00000000000E+00  0.00000000000E+00  0.39999999673E+01  0.40000000000E+01  0.51109989000E-03 0.  1.
     -623   -1    0    0    0    0  0.00000000000E+00  0.00000000000E+00  0.12525980253E-10  0.17130000000E+03  0.17130000000E+03 0. -1.
       11    1    1    2    0    0  0.21204767840E-02 -0.56302770887E-02  0.12923152525E+00  0.12937250396E+00  0.51109989000E-03 0.  1.
     -623    1    1    2    0    0 -0.71929735003E-02  0.29942728545E-02  0.19701636826E-03  0.17130000018E+03  0.17130000000E+03 0. -1.
      622    1    1    2    0    0  0.50724967163E-02  0.26360042341E-02  0.38705714257E+01  0.38706273187E+01  0.20000000000E-01 0.  1.
</event>
<event>
 5   0  0.3603037E+08  0.9118800E+02  0.7818608E-02  0.1180000E+00
       11   -1    0    0    0    0  0.00000000000E+00  0.00000000000E+00  0.39999999673E+01  0.40000000000E+01  0.51109989000E-03 0.  1.
     -623   -1    0    0    0    0  0.00000000000E+00  0.00000000000E+00  0.12525980253E-10  0.17130000000E+03  0.17130000000E+03 0.  1.
       11    1    1    2    0    0 -0.55612669249E-02 -0.24261308312E-02  0.38364576924E+00  0.38369408554E+00  0.51109989000E-03 0.  1.
     -623    1    1    2    0    0 -0.26660658288E-03 -0.47177400983E-03  0.10944720206E-03  0.17130000000E+03  0.17130000000E+03 0.  1.
      622    1    1    2    0    0  0.58278735078E-02  0.28979048411E-02  0.36162447509E+01  0.36163059136E+01  0.20000000000E-01 0.  1.
</event>
<event>
 5   0  0.3603037E+08  0.9118800E+02  0.7818608E-02  0.1180000E+00
       11   -1    0    0    0    0  0.00000000000E+00  0.00000000000E+00  0.39999999673E+01  0.40000000000E+01  0.51109989000E-03 0. -1.
     -623   -1    0    0    0    0  0.00000000000E+00  0.00000000000E+00  0.12525980253E-10  0.17130000000E+03  0.17130000000E+03 0. -1.
       11    1    1    2    0    0 -0.60459348163E-02  0.12147346641E-02  0.24549193233E+01  0.24549271219E+01  0.51109989000E-03 0. -1.
     -623    1    1    2    0    0 -0.55275247859E-04  0.22700228901E-04  0.14975814024E-03  0.17130000000E+03  0.17130000000E+03 0. -1.
      622    1    1    2    0    0  0.61012100641E-02 -0.12374348930E-02  0.15449308860E+01  0.15450728780E+01  0.20000000000E-01 0.  0.
</event>
<event>
 5   0  0.3603037E+08  0.9118800E+02  0.7818608E-02  0.1180000E+00
       11   -1    0    0    0    0  0.00000000000E+00  0.00000000000E+00  0.39999999673E+01  0.40000000000E+01  0.51109989000E-03 0.  1.
     -623   -1    0    0    0    0  0.00000000000E+00  0.00000000000E+00  0.12525980253E-10  0.17130000000E+03  0.17130000000E+03 0.  1.
       11    1    1    2    0    0 -0.30282494997E-02 -0.26625061974E-02  0.45275816850E-01  0.45457893111E-01  0.51109989000E-03 0.  1.
     -623    1    1    2    0    0  0.26873935201E-02 -0.27705874275E-02  0.23640931660E-03  0.17130000004E+03  0.17130000000E+03 0.  1.
      622    1    1    2    0    0  0.34085597962E-03  0.54330936250E-02  0.39544877412E+01  0.39545420632E+01  0.20000000000E-01 0.  1.
</event>
<event>
 5   0  0.3603037E+08  0.9118800E+02  0.7818608E-02  0.1180000E+00
       11   -1    0    0    0    0  0.00000000000E+00  0.00000000000E+00  0.39999999673E+01  0.40000000000E+01  0.51109989000E-03 0.  1.
     -623   -1    0    0    0    0  0.00000000000E+00  0.00000000000E+00  0.12525980253E-10  0.17130000000E+03  0.17130000000E+03 0.  1.
       11    1    1    2    0    0 -0.65859918198E-03 -0.22402043877E-02  0.97436847441E-02  0.10032590978E-01  0.51109989000E-03 0.  1.
     -623    1    1    2    0    0  0.15384956833E-02  0.16691336209E-02  0.33915289861E-03  0.17130000002E+03  0.17130000000E+03 0.  1.
      622    1    1    2    0    0 -0.87989650129E-03  0.57107076673E-03  0.39899171297E+01  0.39899673936E+01  0.20000000000E-01 0.  1.
</event>
<event>
 5   0  0.3603037E+08  0.9118800E+02  0.7818608E-02  0.1180000E+00
       11   -1    0    0    0    0  0.00000000000E+00  0.00000000000E+00  0.39999999673E+01  0.40000000000E+01  0.51109989000E-03 0.  1.
     -623   -1    0    0    0    0  0.00000000000E+00  0.00000000000E+00  0.12525980253E-10  0.17130000000E+03  0.17130000000E+03 0.  1.
       11    1    1    2    0    0  0.45801658222E-01 -0.15547366840E-01  0.36268422352E+01  0.36271647843E+01  0.51109989000E-03 0.  1.
     -623    1    1    2    0    0 -0.48284465997E-01  0.17942504148E-01  0.88307493241E-03  0.17130000775E+03  0.17130000000E+03 0.  1.
      622    1    1    2    0    0  0.24828077752E-02 -0.23951373077E-02  0.37227465726E+00  0.37282746875E+00  0.20000000000E-01 0.  1.
</event>
<event>
 5   0  0.3603037E+08  0.9118800E+02  0.7818608E-02  0.1180000E+00
       11   -1    0    0    0    0  0.00000000000E+00  0.00000000000E+00  0.39999999673E+01  0.40000000000E+01  0.51109989000E-03 0.  1.
     -623   -1    0    0    0    0  0.00000000000E+00  0.00000000000E+00  0.12525980253E-10  0.17130000000E+03  0.17130000000E+03 0. -1.
       11    1    1    2    0    0  0.68039313617E-03 -0.12956583800E-03  0.77857166666E-03  0.11606533460E-02  0.51109989000E-03 0.  1.
     -623    1    1    2    0    0  0.57628479861E-03  0.92985031567E-03  0.43234544914E-03  0.17130000000E+03  0.17130000000E+03 0. -1.
      622    1    1    2    0    0 -0.12566779348E-02 -0.80028447767E-03  0.39987890502E+01  0.39988393426E+01  0.20000000000E-01 0.  1.
</event>
<event>
 5   0  0.3603037E+08  0.9118800E+02  0.7818608E-02  0.1180000E+00
       11   -1    0    0    0    0  0.00000000000E+00  0.00000000000E+00  0.39999999673E+01  0.40000000000E+01  0.51109989000E-03 0. -1.
     -623   -1    0    0    0    0  0.00000000000E+00  0.00000000000E+00  0.12525980253E-10  0.17130000000E+03  0.17130000000E+03 0.  1.
       11    1    1    2    0    0  0.43188164388E-02 -0.88207310249E-03  0.17808099210E-01  0.18352652337E-01  0.51109989000E-03 0. -1.
     -623    1    1    2    0    0 -0.46276597228E-02  0.53616995816E-03  0.59484265296E-03  0.17130000006E+03  0.17130000000E+03 0.  1.
      622    1    1    2    0    0  0.30884328393E-03  0.34590314432E-03  0.39815970255E+01  0.39816472833E+01  0.20000000000E-01 0. -1.
</event>
<event>
 5   0  0.3603037E+08  0.9118800E+02  0.7818608E-02  0.1180000E+00
       11   -1    0    0    0    0  0.00000000000E+00  0.00000000000E+00  0.39999999673E+01  0.40000000000E+01  0.51109989000E-03 0.  1.
     -623   -1    0    0    0    0  0.00000000000E+00  0.00000000000E+00  0.12525980253E-10  0.17130000000E+03  0.17130000000E+03 0.  1.
       11    1    1    2    0    0 -0.37189277386E-02  0.14918587845E-01  0.14734705924E+01  0.14735508958E+01  0.51109989000E-03 0.  1.
     -623    1    1    2    0    0 -0.64474069050E-02 -0.99554925408E-03  0.21838020280E-03  0.17130000012E+03  0.17130000000E+03 0.  1.
      622    1    1    2    0    0  0.10166334644E-01 -0.13923038591E-01  0.25263109948E+01  0.25264489798E+01  0.20000000000E-01 0.  1.
</event>
<event>
 5   0  0.3603037E+08  0.9118800E+02  0.7818608E-02  0.1180000E+00
       11   -1    0    0    0    0  0.00000000000E+00  0.00000000000E+00  0.39999999673E+01  0.40000000000E+01  0.51109989000E-03 0.  1.
     -623   -1    0    0    0    0  0.00000000000E+00  0.00000000000E+00  0.12525980253E-10  0.17130000000E+03  0.17130000000E+03 0.  1.
       11    1    1    2    0    0 -0.46417292460E-02 -0.12557214681E-02  0.11050945081E+01  0.11051050881E+01  0.51109989000E-03 0.  1.
     -623    1    1    2    0    0  0.79227965286E-03  0.31999575510E-03  0.82348052970E-04  0.17130000000E+03  0.17130000000E+03 0.  1.
      622    1    1    2    0    0  0.38494495931E-02  0.93572571303E-03  0.28948231112E+01  0.28948949098E+01  0.20000000000E-01 0.  0.
</event>
<event>
 5   0  0.3603037E+08  0.9118800E+02  0.7818608E-02  0.1180000E+00
       11   -1    0    0    0    0  0.00000000000E+00  0.00000000000E+00  0.39999999673E+01  0.40000000000E+01  0.51109989000E-03 0. -1.
     -623   -1    0    0    0    0  0.00000000000E+00  0.00000000000E+00  0.12525980253E-10  0.17130000000E+03  0.17130000000E+03 0.  1.
       11    1    1    2    0    0  0.13526740090E-03  0.85844507653E-04  0.21808956601E-01  0.21815532898E-01  0.51109989000E-03 0. -1.
     -623    1    1    2    0    0  0.43174032179E-04 -0.11717806470E-04  0.56822872107E-04  0.17130000000E+03  0.17130000000E+03 0.  1.
      622    1    1    2    0    0 -0.17844143308E-03 -0.74126701184E-04  0.39781341879E+01  0.39781844671E+01  0.20000000000E-01 0. -1.
</event>
<event>
 5   0  0.3603037E+08  0.9118800E+02  0.7818608E-02  0.1180000E+00
       11   -1    0    0    0    0  0.00000000000E+00  0.00000000000E+00  0.39999999673E+01  0.40000000000E+01  0.51109989000E-03 0.  1.
     -623   -1    0    0    0    0  0.00000000000E+00  0.00000000000E+00  0.12525980253E-10  0.17130000000E+03  0.17130000000E+03 0. -1.
       11    1    1    2    0    0 -0.26672056065E-02 -0.10835572877E-02  0.10205077889E+00  0.10209265780E+00  0.51109989000E-03 0.  1.
     -623    1    1    2    0    0 -0.47766256406E-03  0.79919507312E-03  0.94437790637E-04  0.17130000000E+03  0.17130000000E+03 0. -1.
      622    1    1    2    0    0  0.31448681705E-02  0.28436221460E-03  0.38978547507E+01  0.38979073396E+01  0.20000000000E-01 0.  1.
</event>
<event>
 5   0  0.3603037E+08  0.9118800E+02  0.7818608E-02  0.1180000E+00
       11   -1    0    0    0    0  0.00000000000E+00  0.00000000000E+00  0.39999999673E+01  0.40000000000E+01  0.51109989000E-03 0. -1.
     -623   -1    0    0    0    0  0.00000000000E+00  0.00000000000E+00  0.12525980253E-10  0.17130000000E+03  0.17130000000E+03 0.  1.
       11    1    1    2    0    0  0.35491767770E-02 -0.78766292118E-02  0.14999172734E+01  0.14999422409E+01  0.51109989000E-03 0. -1.
     -623    1    1    2    0    0 -0.10277091090E-03  0.14358416593E-03  0.11927019085E-03  0.17130000000E+03  0.17130000000E+03 0.  1.
      622    1    1    2    0    0 -0.34464058661E-02  0.77330450459E-02  0.24999634238E+01  0.25000577589E+01  0.20000000000E-01 0.  0.
</event>
<event>
 5   0  0.3603037E+08  0.9118800E+02  0.7818608E-02  0.1180000E+00
       11   -1    0    0    0    0  0.00000000000E+00  0.00000000000E+00  0.39999999673E+01  0.40000000000E+01  0.51109989000E-03 0.  1.
     -623   -1    0    0    0    0  0.00000000000E+00  0.00000000000E+00  0.12525980253E-10  0.17130000000E+03  0.17130000000E+03 0.  1.
       11    1    1    2    0    0 -0.65985735312E-03  0.96924591461E-03  0.26835735850E+00  0.26836040679E+00  0.51109989000E-03 0.  1.
     -623    1    1    2    0    0  0.77441908882E-04  0.32037358109E-04  0.56791594601E-04  0.17130000000E+03  0.17130000000E+03 0.  1.
      622    1    1    2    0    0  0.58241544424E-03 -0.10012832727E-02  0.37315858173E+01  0.37316395932E+01  0.20000000000E-01 0.  1.
</event>
<event>
 5   0  0.3603037E+08  0.9118800E+02  0.7818608E-02  0.1180000E+00
       11   -1    0    0    0    0  0.00000000000E+00  0.00000000000E+00  0.39999999673E+01  0.40000000000E+01  0.51109989000E-03 0. -1.
     -623   -1    0    0    0    0  0.00000000000E+00  0.00000000000E+00  0.12525980253E-10  0.17130000000E+03  0.17130000000E+03 0.  1.
       11    1    1    2    0    0 -0.49265780436E-03  0.19441387549E-03  0.11276124047E+00  0.11276364255E+00  0.51109989000E-03 0. -1.
     -623    1    1    2    0    0 -0.14870589763E-03 -0.16107403125E-03  0.53873419927E-04  0.17130000000E+03  0.17130000000E+03 0.  1.
      622    1    1    2    0    0  0.64136370199E-03 -0.33339844242E-04  0.38871848535E+01  0.38872363573E+01  0.20000000000E-01 0. -1.
</event>
<event>
 5   0  0.3603037E+08  0.9118800E+02  0.7818608E-02  0.1180000E+00
       11   -1    0    0    0    0  0.00000000000E+00  0.00000000000E+00  0.39999999673E+01  0.40000000000E+01  0.51109989000E-03 0.  1.
     -623   -1    0    0    0    0  0.00000000000E+00  0.00000000000E+00  0.12525980253E-10  0.17130000000E+03  0.17130000000E+03 0.  1.
       11    1    1    2    0    0 -0.13283871343E-01 -0.40196431297E-02  0.51751891813E+00  0.51770523525E+00  0.51109989000E-03 0.  1.
     -623    1    1    2    0    0 -0.13850422406E-04  0.25312206003E-03  0.27114606917E-03  0.17130000000E+03  0.17130000000E+03 0.  1.
      622    1    1    2    0    0  0.13297721765E-01  0.37665210697E-02  0.34822099032E+01  0.34822947643E+01  0.20000000000E-01 0.  1.
</event>
<event>
 5   0  0.3603037E+08  0.9118800E+02  0.7818608E-02  0.1180000E+00
       11   -1    0    0    0    0  0.00000000000E+00  0.00000000000E+00  0.39999999673E+01  0.40000000000E+01  0.51109989000E-03 0.  1.
     -623   -1    0    0    0    0  0.00000000000E+00  0.00000000000E+00  0.12525980253E-10  0.17130000000E+03  0.17130000000E+03 0.  1.
       11    1    1    2    0    0 -0.59049895204E-02  0.24907458360E-02  0.13178775275E+00  0.13194447966E+00  0.51109989000E-03 0.  1.
     -623    1    1    2    0    0 -0.68796536650E-04 -0.15776460366E-02  0.21312836275E-03  0.17130000001E+03  0.17130000000E+03 0.  1.
      622    1    1    2    0    0  0.59737860570E-02 -0.91309979940E-03  0.38679990863E+01  0.38680555129E+01  0.20000000000E-01 0.  1.
</event>
<event>
 5   0  0.3603037E+08  0.9118800E+02  0.7818608E-02  0.1180000E+00
       11   -1    0    0    0    0  0.00000000000E+00  0.00000000000E+00  0.39999999673E+01  0.40000000000E+01  0.51109989000E-03 0. -1.
     -623   -1    0    0    0    0  0.00000000000E+00  0.00000000000E+00  0.12525980253E-10  0.17130000000E+03  0.17130000000E+03 0. -1.
       11    1    1    2    0    0 -0.12093515666E-01  0.98598047151E-02  0.11335637969E+01  0.11336712979E+01  0.51109989000E-03 0. -1.
     -623    1    1    2    0    0  0.43949122851E-03  0.31985088192E-03  0.21901522995E-03  0.17130000000E+03  0.17130000000E+03 0. -1.
      622    1    1    2    0    0  0.11654024437E-01 -0.10179655597E-01  0.28662171552E+01  0.28663287011E+01  0.20000000000E-01 0. -1.
</event>
<event>
 5   0  0.3603037E+08  0.9118800E+02  0.7818608E-02  0.1180000E+00
       11   -1    0    0    0    0  0.00000000000E+00  0.00000000000E+00  0.39999999673E+01  0.40000000000E+01  0.51109989000E-03 0.  1.
     -623   -1    0    0    0    0  0.00000000000E+00  0.00000000000E+00  0.12525980253E-10  0.17130000000E+03  0.17130000000E+03 0. -1.
       11    1    1    2    0    0  0.53634964622E-02  0.42839413345E-02  0.45011003678E-01  0.45534282906E-01  0.51109989000E-03 0.  1.
     -623    1    1    2    0    0 -0.18190718619E-02 -0.50119563137E-02  0.57556207710E-03  0.17130000008E+03  0.17130000000E+03 0. -1.
      622    1    1    2    0    0 -0.35444246002E-02  0.72801497921E-03  0.39544134016E+01  0.39544656331E+01  0.20000000000E-01 0.  1.
</event>
<event>
 5   0  0.3603037E+08  0.9118800E+02  0.7818608E-02  0.1180000E+00
       11   -1    0    0    0    0  0.00000000000E+00  0.00000000000E+00  0.39999999673E+01  0.40000000000E+01  0.51109989000E-03 0.  1.
     -623   -1    0    0    0    0  0.00000000000E+00  0.00000000000E+00  0.12525980253E-10  0.17130000000E+03  0.17130000000E+03 0.  1.
       11    1    1    2    0    0 -0.29539650039E-02  0.12201091984E-02  0.35404649611E-01  0.35552285590E-01  0.51109989000E-03 0.  1.
     -623    1    1    2    0    0 -0.79760976977E-03  0.17225706636E-03  0.20007370941E-03  0.17130000000E+03  0.17130000000E+03 0.  1.
      622    1    1    2    0    0  0.37515747736E-02 -0.13923662647E-02  0.39643952440E+01  0.39644477124E+01  0.20000000000E-01 0.  1.
</event>
<event>
 5   0  0.3603037E+08  0.9118800E+02  0.7818608E-02  0.1180000E+00
       11   -1    0    0    0    0  0.00000000000E+00  0.00000000000E+00  0.39999999673E+01  0.40000000000E+01  0.51109989000E-03 0. -1.
     -623   -1    0    0    0    0  0.00000000000E+00  0.00000000000E+00  0.12525980253E-10  0.17130000000E+03  0.17130000000E+03 0. -1.
       11    1    1    2    0    0  0.15249166922E-03 -0.13019315835E-02  0.48671576511E+00  0.48671779864E+00  0.51109989000E-03 0. -1.
     -623    1    1    2    0    0  0.49788679015E-03  0.21878034433E-03  0.59156216672E-04  0.17130000000E+03  0.17130000000E+03 0. -1.
      622    1    1    2    0    0 -0.65037845937E-03  0.10831512392E-02  0.35132250460E+01  0.35132822005E+01  0.20000000000E-01 0. -1.
</event>
<event>
 5   0  0.3603037E+08  0.9118800E+02  0.7818608E-02  0.1180000E+00
       11   -1    0    0    0    0  0.00000000000E+00  0.00000000000E+00  0.39999999673E+01  0.40000000000E+01  0.51109989000E-03 0.  1.
     -623   -1    0    0    0    0  0.00000000000E+00  0.00000000000E+00  0.12525980253E-10  0.17130000000E+03  0.17130000000E+03 0.  1.
       11    1    1    2    0    0 -0.38230529132E-04  0.28378364050E-02  0.53623106173E-01  0.53700591380E-01  0.51109989000E-03 0.  1.
     -623    1    1    2    0    0 -0.56595504892E-03 -0.79135466659E-04  0.12914479940E-03  0.17130000000E+03  0.17130000000E+03 0.  1.
      622    1    1    2    0    0  0.60418557805E-03 -0.27587009384E-02  0.39462477164E+01  0.39462994076E+01  0.20000000000E-01 0.  1.
</event>
<event>
 5   0  0.3603037E+08  0.9118800E+02  0.7818608E-02  0.1180000E+00
       11   -1    0    0    0    0  0.00000000000E+00  0.00000000000E+00  0.39999999673E+01  0.40000000000E+01  0.51109989000E-03 0.  1.
     -623   -1    0    0    0    0  0.00000000000E+00  0.00000000000E+00  0.12525980253E-10  0.17130000000E+03  0.17130000000E+03 0.  1.
       11    1    1    2    0    0  0.64583379812E-02 -0.67453345637E-02  0.12376001318E+01  0.12376354702E+01  0.51109989000E-03 0.  1.
     -623    1    1    2    0    0 -0.76531176393E-03 -0.28457715622E-03  0.12252249993E-03  0.17130000000E+03  0.17130000000E+03 0.  1.
      622    1    1    2    0    0 -0.56930262173E-02  0.70299117200E-02  0.27622773131E+01  0.27623645278E+01  0.20000000000E-01 0.  1.
</event>
<event>
 5   0  0.3603037E+08  0.9118800E+02  0.7818608E-02  0.1180000E+00
       11   -1    0    0    0    0  0.00000000000E+00  0.00000000000E+00  0.39999999673E+01  0.40000000000E+01  0.51109989000E-03 0.  1.
     -623   -1    0    0    0    0  0.00000000000E+00  0.00000000000E+00  0.12525980253E-10  0.17130000000E+03  0.17130000000E+03 0.  1.
       11    1    1    2    0    0 -0.19001488585E-01  0.59329131472E-02  0.27161359974E+01  0.27162089893E+01  0.51109989000E-03 0.  1.
     -623    1    1    2    0    0  0.21001495277E-01 -0.15798351389E-01  0.27024308727E-03  0.17130000202E+03  0.17130000000E+03 0.  1.
      622    1    1    2    0    0 -0.20000066917E-02  0.98654382415E-02  0.12835937269E+01  0.12837889946E+01  0.20000000000E-01 0. -1.
</event>
<event>
 5   0  0.3603037E+08  0.9118800E+02  0.7818608E-02  0.1180000E+00
       11   -1    0    0    0    0  0.00000000000E+00  0.00000000000E+00  0.39999999673E+01  0.40000000000E+01  0.51109989000E-03 0. -1.
     -623   -1    0    0    0    0  0.00000000000E+00  0.00000000000E+00  0.12525980253E-10  0.17130000000E+03  0.17130000000E+03 0. -1.
       11    1    1    2    0    0 -0.38864167257E-01 -0.17458472822E-01  0.12060386495E+01  0.12067910785E+01  0.51109989000E-03 0. -1.
     -623    1    1    2    0    0 -0.23015742444E-02 -0.17149359663E-02  0.11932136520E-02  0.17130000003E+03  0.17130000000E+03 0. -1.
      622    1    1    2    0    0  0.41165741501E-01  0.19173408788E-01  0.27927681042E+01  0.27932088933E+01  0.20000000000E-01 0. -1.
</event>
<event>
 5   0  0.3603037E+08  0.9118800E+02  0.7818608E-02  0.1180000E+00
       11   -1    0    0    0    0  0.00000000000E+00  0.00000000000E+00  0.39999999673E+01  0.40000000000E+01  0.51109989000E-03 0. -1.
     -623   -1    0    0    0    0  0.00000000000E+00  0.00000000000E+00  0.12525980253E-10  0.17130000000E+03  0.17130000000E+03 0.  1.
       11    1    1    2    0    0  0.75919448205E-03 -0.48102648485E-02  0.17918606670E+00  0.17925295742E+00  0.51109989000E-03 0. -1.
     -623    1    1    2    0    0  0.38654124838E-03  0.22692387440E-03  0.12212575828E-03  0.17130000000E+03  0.17130000000E+03 0.  1.
      622    1    1    2    0    0 -0.11457357304E-02  0.45833409741E-02  0.38206917749E+01  0.38207470419E+01  0.20000000000E-01 0.  0.
</event>
<event>
 5   0  0.3603037E+08  0.9118800E+02  0.7818608E-02  0.1180000E+00
       11   -1    0    0    0    0  0.00000000000E+00  0.00000000000E+00  0.39999999673E+01  0.40000000000E+01  0.51109989000E-03 0.  1.
     -623   -1    0    0    0    0  0.00000000000E+00  0.00000000000E+00  0.12525980253E-10  0.17130000000E+03  0.17130000000E+03 0.  1.
       11    1    1    2    0    0  0.10767276566E-03 -0.30723322854E-02  0.27581081812E-01  0.27756586862E-01  0.51109989000E-03 0.  1.
     -623    1    1    2    0    0 -0.54908743851E-03  0.52871425648E-02  0.22654672661E-03  0.17130000008E+03  0.17130000000E+03 0.  1.
      622    1    1    2    0    0  0.44141467285E-03 -0.22148102793E-02  0.39721923388E+01  0.39722433305E+01  0.20000000000E-01 0.  1.
</event>
<event>
 5   0  0.3603037E+08  0.9118800E+02  0.7818608E-02  0.1180000E+00
       11   -1    0    0    0    0  0.00000000000E+00  0.00000000000E+00  0.39999999673E+01  0.40000000000E+01  0.51109989000E-03 0. -1.
     -623   -1    0    0    0    0  0.00000000000E+00  0.00000000000E+00  0.12525980253E-10  0.17130000000E+03  0.17130000000E+03 0.  1.
       11    1    1    2    0    0 -0.48237238041E-02  0.20597539741E-01  0.80777813988E+00  0.80805526510E+00  0.51109989000E-03 0. -1.
     -623    1    1    2    0    0  0.16853492540E-02  0.71912187418E-03  0.41248550636E-03  0.17130000001E+03  0.17130000000E+03 0.  1.
      622    1    1    2    0    0  0.31383745501E-02 -0.21316661615E-01  0.31918093420E+01  0.31919447246E+01  0.20000000000E-01 0. -1.
</event>
<event>
 5   0  0.3603037E+08  0.9118800E+02  0.7818608E-02  0.1180000E+00
       11   -1    0    0    0    0  0.00000000000E+00  0.00000000000E+00  0.39999999673E+01  0.40000000000E+01  0.51109989000E-03 0.  1.
     -623   -1    0    0    0    0  0.00000000000E+00  0.00000000000E+00  0.12525980253E-10  0.17130000000E+03  0.17130000000E+03 0. -1.
       11    1    1    2    0    0 -0.32356468765E-02  0.24456414271E-02  0.14016431394E+00  0.14022391628E+00  0.51109989000E-03 0.  1.
     -623    1    1    2    0    0 -0.85228848404E-03 -0.16468398695E-02  0.11364407819E-03  0.17130000001E+03  0.17130000000E+03 0. -1.
      622    1    1    2    0    0  0.40879353606E-02 -0.79880155761E-03  0.38597220093E+01  0.38597760736E+01  0.20000000000E-01 0.  1.
</event>
</LesHouchesEvents>
