<LesHouchesEvents version="1.0">
<header>
<!--
#*********************************************************************
#                                                                    *
#                       MadGraph/MadEvent                            *
#                                                                    *
#                      The new web generation                        *
#                                                                    *
#                   http://madgraph.hep.uiuc.edu                     *
#                   http://madgraph.phys.ucl.ac.be                   *
#                   http://madgraph.roma2.infn.it                    *
#                                                                    *
#            CP3 team                      Tim Stelzer               *
#      Universite de Louvain          University of Illinois         *
#                                                                    *
#....................................................................*
#                                                                    *
# This file contains all the information necessary to reproduce      *
# the events generated:                                              *
#                                                                    *
# 1. software version                                                *
# 2. proc_card.dat      : code generation info including model       *
# 3. param_card.dat     : model primary parameters in the LH format  *
# 4. run_card.dat       : running parameters (collider and cuts)     *
# 5. pythia_card.dat    : present only in the pythia event file      *
# 6. pgs_card.dat       : present only in the pgs event file         *
#                                                                    *
#                                                                    *
#*********************************************************************
-->
<MGVersion>
# MG/ME version    : 4.4.17
# madgraph version : 4.4.2
# template version : 2.4.8
# helas version    : 3.5
# model version    : usrmod_1.0.4
</MGVersion>
<MGProcCard>
#*********************************************************************
#                        MadGraph/MadEvent                           *
#                   http://madgraph.hep.uiuc.edu                     *
#                                                                    *
#                          proc_card.dat                             *
#                                                                    *
# This file is used to generate the code for a specific process.     *
# Some notation/conventions:                                         *
#                                                                    *
# 0. Do not modify the TAGS and their order.                         *
# 1. hash/pound is a comment.                                        *
# 2. The number after the @ is used as an identifier for the class   *
#    of processes. It can be any positive integer.                   *
# 3. The number of lines for the max couplings depends on how many   *
#    different classes of couplings are present in the model         *
#    In the SM these are just two: QED (which include EW) and QCD    *
# 4. Write "end_coup" after  the couplings list,                     *
#    to tell MG that the couplings input is over.                    *
# 5. Write "done" after the proc list to                             *
#    to tell MG that the proc input is over.                         *
# 6. Some model names available at present are:                      *
#    sm     =  Standard Model                                        *
#    smckm =  Standard Model with Cabibbo matrix                     *
#    mssm   =  Minimal Supersymmetric Standard Model                 *
#    2hdm   =  Generic Two Higgs Doublet model                       *
#    heft   =  Higgs EFT (+Standard Model)                           *
#    usrmod =  User Model                                            *
# 7. Don't leave spaces between the particles name in the            *
#    definition of the multiparticles.                               *
#*********************************************************************
#*********************************************************************
# Process(es) requested : mg2 input                                  *
#*********************************************************************
# Begin PROCESS # This is TAG. Do not modify this line
e- N+ > e- N+ x      # Radiative
QCD=0             # Max QCD couplings
QED=1             # Max QED couplings
QFD=0 
QND=1
QWD=9
QDS=2
end_coup           # End the couplings input
done               # this tells MG there are no more procs
# End PROCESS  # This is TAG. Do not modify this line
#*********************************************************************
# Model information                                                  *
#*********************************************************************
# Begin MODEL  # This is TAG. Do not modify this line
fixedAP2     
# End   MODEL  # This is TAG. Do not modify this line
#*********************************************************************
# Start multiparticle definitions                                    *
#*********************************************************************
# Begin MULTIPARTICLES # This is TAG. Do not modify this line
P uu~cc~dd~ss~gf+f-
J uu~cc~dd~ss~gf+f-
L+ e+mu+
L- e-mu-
vl vevm
vl~ ve~vm~
# End  MULTIPARTICLES # This is TAG. Do not modify this line
</MGProcCard>
<slha>
#*********************************************************************
#                        MadGraph/MadEvent                           *
#                   http://madgraph.hep.uiuc.edu                     *
#                                                                    *
#                         param_card.dat                             *
#                                                                    *
#   Les Houches friendly file for the SM parameters of MadGraph      *
#        Spectrum and decay widths produced by SMCalc                *
#                                                                    *
#  Please note the following IMPORTANT issues:                       *
#                                                                    *
# 0. REFRAIN from editing this file by hand! Some of the parame-     *
#    ters are not independent                                        *
#    (such as G_Fermi, alpha_em, sin(theta_W),MZ,MW) and serious     *
#    problems might be encountered (such as violation of unitarity   *
#    or gauge invariance).  Always use a calculator.                 *
#                                                                    *
# 1. alpha_S(MZ) has been used in the calculation of the parameters  *
#    but, for consistency, it will be reset by madgraph to the       *
#    value expected IF the pdfs for collisions with hadrons are      *
#    used. This value is KEPT by madgraph when no pdf are used       *
#    lpp(i)=0 .                                                      *
#                                                                    *
#  2. Values of the charm and bottom kinematic (pole) masses are     *
#     those used in the matrix elements and phase space UNLESS they  *
#     are set to ZERO from the start in the model (particles.dat)    *
#     This happens, for example,  when using 5-flavor QCD where      *
#     charm and bottom are treated as partons in the initial state   *
#     and a zero mass might be hardwired in the model definition.    *
#                                                                    *
##********************************************************************
Block MODSEL # Select Model
     0   1   #  0 1 = SM
Block SMINPUTS      # Standard Model inputs
     1         1.27900000E+02   # alpha_em(MZ)(-1) SM MSbar
     2         1.16600000E-05   # G_Fermi
     3         1.18000000E-01   # alpha_s(MZ) SM MSbar
     4         9.15445065E+01   # Z mass (as input parameter)
Block MGYUKAWA     # Yukawa masses m/v=y/sqrt(2)
#    PDG          YMASS
     5         4.20000000E+00   # mbottom for the Yukawa  y_b
     4         1.25000000E+00   # mcharm  for the Yukawa  y_c
     6         1.74300000E+02   # mtop    for the Yukawa  y_t
    15         1.77700000E+00   # mtau    for the Yukawa  y_ta
Block MGCKM     # CKM elements for MadGraph
     1   1     9.75000000E-01   # Vud for Cabibbo matrix
#===========================================================
# QUANTUM NUMBERS OF NEW STATE(S) (NON SM PDG CODE) IF ANY
# (see below for masses and decay tables)
# These blocks are automatically created by the MadGraph
# qnumbers.pl script from the particles.dat model file
#===========================================================
BLOCK QNUMBERS 611 # f-
         1  -3 # 3 times electric charge
         2  2 # number of spin states (2S+1)
         3  1 # colour rep (1: singlet, 3: triplet, 8: octet)
         4  1 # Particle/Antiparticle distinction (0=own anti)
BLOCK QNUMBERS 622 # x
         1  0 # 3 times electric charge
         2  3 # number of spin states (2S+1)
         3  1 # colour rep (1: singlet, 3: triplet, 8: octet)
         4  0 # Particle/Antiparticle distinction (0=own anti)
BLOCK QNUMBERS 623 # N-
         1  0 # 3 times electric charge
         2  2 # number of spin states (2S+1)
         3  1 # colour rep (1: singlet, 3: triplet, 8: octet)
         4  1 # Particle/Antiparticle distinction (0=own anti)
# END of QNUMBERS blocks
#===========================================================
Block MASS      #  Mass spectrum (kinematic masses)
#       PDG       Mass
         4     1.40000000E+00   # charm    pole mass
         5     4.20000000E+00   # bottom   pole mass
         6     1.74300000E+02   # top      pole mass
        11     0.51109989E-03   # electron mass
        13     0.10565837E+00   # muon     mass
        15     1.77700000E+00   # tau      mass
        23     9.15445065E+01   # Z        mass
        24     8.02673592E+01   # W        mass
        25     1.20000000E+02   # H        mass
       611 0.0001 # FMASS
       622 0.04 # APMASS
       623     1.71300000e+02   # HPMASS (tungsten)
#            PDG       Width
DECAY       611     0.00000000e+00   # ELWIDTH
DECAY 622 0.00143758142686 # APWIDTH
DECAY       623     0.00000000e+00   # HPWIDTH
DECAY         6     1.51013490E+00   # top width
DECAY        23     2.44639985E+00   # Z   width
DECAY        24     2.03535570E+00   # W   width
DECAY        25     6.79485838E-03   # H   width
#        BR           NDA        ID1       ID2
     7.00588389E-02    2           4        -4   # BR( H -> c  cbar  )
     7.61074375E-01    2           5        -5   # BR( H -> b  bbar  )
     0.00000000E+00    2           6        -6   # BR( H -> t  tbar  )
     3.65529942E-02    2          15       -15   # BR( H -> tau- tau+)
     5.84716539E-03    2          23        23   # BR( H -> Z   Z^(*))
     6.31545979E-02    2          24       -24   # BR( H -> W   W^(*))
     2.55499652E-02    2          21        21   # BR( H -> g   g    )
     1.20906932E-03    2          22        22   # BR( H -> A   A    )
BLOCK MGUSER
         1     1.00000000e-00   # epsilon ,mixing coefficient
         2     74.0000000e+00   # Znuc    ,nuclear charge
</slha>
<MGRunCard>
#*********************************************************************
#                       MadGraph/MadEvent                            *
#                  http://madgraph.hep.uiuc.edu                      *
#                                                                    *
#                        run_card.dat                                *
#                                                                    *
#  This file is used to set the parameters of the run.               *
#                                                                    *
#  Some notation/conventions:                                        *
#                                                                    *
#   Lines starting with a '# ' are info or comments                  *
#                                                                    *
#   mind the format:   value    = variable     ! comment             *
#*********************************************************************
#
#*******************                                                 
# Running parameters
#*******************                                                 
#                                                                    
#*********************************************************************
# Tag name for the run (one word)                                    *
#*********************************************************************
  'HPS'     = run_tag ! name of the run 
#*********************************************************************
# Run to generate the grid pack                                      *
#*********************************************************************
  .false.     = gridpack  !True = setting up the grid pack
#*********************************************************************
# Number of events and rnd seed                                      *
#*********************************************************************
   50000      = nevents ! Number of unweighted events requested 
226508 = iseed ! rnd seed (0=assigned automatically=default))
#*********************************************************************
# Collider type and energy                                           *
#*********************************************************************
        0     = lpp1  ! beam 1 type (0=NO PDF)
        0     = lpp2  ! beam 2 type (0=NO PDF)
4.0 = ebeam1  ! beam 1 energy in GeV
    171.3    = ebeam2  ! beam 2 energy in GeV
    0.000511  = mbeam1  ! beam 1 energy in GeV
    171.3    = mbeam2  ! beam 2 energy in GeV
#*********************************************************************
# Beam polarization from -100 (left-handed) to 100 (right-handed)    *
#*********************************************************************
        0     = polbeam1 ! beam polarization for beam 1
        0     = polbeam2 ! beam polarization for beam 2
#*********************************************************************
# PDF CHOICE: this automatically fixes also alpha_s and its evol.    *
#*********************************************************************
 'cteq6l1'    = pdlabel     ! PDF set                                     
#*********************************************************************
# Renormalization and factorization scales                           *
#*********************************************************************
 F        = fixed_ren_scale  ! if .true. use fixed ren scale
 F        = fixed_fac_scale  ! if .true. use fixed fac scale
 91.1880  = scale            ! fixed ren scale
 91.1880  = dsqrt_q2fact1    ! fixed fact scale for pdf1
 91.1880  = dsqrt_q2fact2    ! fixed fact scale for pdf2
 1        = scalefact        ! scale factor for event-by-event scales
 F        = fixed_couplings  ! if .false. calc. coupl. for every event
#*********************************************************************
# Matching - Warning! ickkw > 0 is still beta
#*********************************************************************
 0        = ickkw            ! 0 no matching, 1 MLM, 2 CKKW matching
#*********************************************************************
#                                                                    
#**********************************
27.8245108434 = bwcutoff*Gamma)
#**********************************
27.8245108434 = bwcutoff
#*******************                                                 
# Fixed-Target Cuts
#*******************                                                 
#
 0.0 = ef        ! minimum E for all f's
 100.0 = efmax     ! maximum E for all f's
 0.0 = thetafmin ! min angle for both f's
 100.0 = thetafmax ! max angle for both f's
 0.0 = thetaxfmin ! min angle (x direction) for both f's
 100.0 = thetaxfmax ! max angle (x direction) for both f's 
 0.0 = thetayfmin ! min angle (y direction) for both f's
 100.0 = thetayfmax ! max angle (y direction) for both f's 
 0.0 = xthetaxfmin ! min angle (x direction) for >=1 f's
 100.0 = xthetaxfmax ! max angle (x direction) for >=1 f's 
 0.0 = xthetayfmin ! min angle (y direction) for >=1 f's
 100.0 = xthetayfmax ! max angle (y direction) for >=1 f's 
 0.0 = mmff      ! min invariant mass of f+f- lepton pair
 100.0 = mmffmax  ! max invariant mass of f+f- lepton pair
 0.0 = xef       ! min. energy for at least one f
 0.0 = xthetaf   ! minimum angle for at least one f
 0.0 = eftot     ! minimum energy for the two f's
 0d0 = efrat     ! min. ratio Emin/Emax for the two f's
0.0 = el  ! minimum E for the charged leptons
 0.0  = drll  !!! was 0.1  ! min distance between leptons 
 0.0  = mmll    ! min invariant mass of l+l- (same flavour) lepton pair
#
#*******************                                                 
# Standard Cuts
#*******************                                                 
#                                                                    
#*********************************************************************
# Minimum and maximum pt's                                           *
#*********************************************************************
  0  = ptj       ! minimum pt for the jets 
  0  = ptb       ! minimum pt for the b 
  0  = pta       ! minimum pt for the photons 
  0  = ptl       ! minimum pt for the charged leptons 
  0  = misset    ! minimum missing Et (sum of neutrino's momenta)
  0  = ptheavy   ! minimum pt for one heavy final state
 1.0 = ptonium   ! minimum pt for the quarkonium states
 1d5 = ptjmax    ! maximum pt for the jets
 1d5 = ptbmax    ! maximum pt for the b
 1d5 = ptamax    ! maximum pt for the photons
 1d9 = ptlmax    ! maximum pt for the charged leptons
 1d9 = missetmax ! maximum missing Et (sum of neutrino's momenta)
#*********************************************************************
# Minimum and maximum E's (in the lab frame)                         *
#*********************************************************************
  0  = ej     ! minimum E for the jets 
  0  = eb     ! minimum E for the b 
  0  = ea     ! minimum E for the photons 
 1d5  = ejmax ! maximum E for the jets
 1d5  = ebmax ! maximum E for the b
 1d5  = eamax ! maximum E for the photons
4.0 = elmax  ! maximum E for the charged leptons
#*********************************************************************
# Maximum and minimum rapidity                                       *
#*********************************************************************
 1d5  = etaj    ! max rap for the jets 
 1d5  = etab    ! max rap for the b 
 1d5  = etaa    ! max rap for the photons 
 1d5  = etal     !!! 1(2) wth cuts ! max rap for the charged leptons 
 1d5  = etafl     !!! 0(1) wth cuts ! max rap for the charged leptons 
 0.0  = etaonium ! max rap for the quarkonium states
 0d0  = etajmin ! min rap for the jets
 0d0  = etabmin ! min rap for the b
 0d0  = etaamin ! min rap for the photons
 0d0  = etalmin ! main rap for the charged lepton
#*********************************************************************
# Minimum and maximum DeltaR distance                                *
#*********************************************************************
 0   = drjj    ! min distance between jets 
 0   = drbb    ! min distance between b's 
 0   = draa    ! min distance between gammas 
 0   = drbj    ! min distance between b and jet 
 0   = draj    ! min distance between gamma and jet 
 0   = drjl    ! min distance between jet and lepton 
 0   = drab    ! min distance between gamma and b 
 0   = drbl    ! min distance between b and lepton 
 0   = dral    ! min distance between gamma and lepton 
 1d2 = drjjmax ! max distance between jets
 1d2 = drbbmax ! max distance between b's
 1d9 = drllmax ! max distance between leptons
 1d2 = draamax ! max distance between gammas
 1d2 = drbjmax ! max distance between b and jet
 1d2 = drajmax ! max distance between gamma and jet
 1d2 = drjlmax ! max distance between jet and lepton
 1d2 = drabmax ! max distance between gamma and b
 1d2 = drblmax ! max distance between b and lepton
 1d2 = dralmax ! maxdistance between gamma and lepton
#*********************************************************************
# Minimum and maximum invariant mass for pairs                       *
#*********************************************************************
 0   = mmjj    ! min invariant mass of a jet pair 
 0   = mmbb    ! min invariant mass of a b pair 
 0   = mmaa    ! min invariant mass of gamma gamma pair
 1d5 = mmjjmax ! max invariant mass of a jet pair
 1d5 = mmbbmax ! max invariant mass of a b pair
 1d5 = mmaamax ! max invariant mass of gamma gamma pair
 1d5 = mmllmax ! max invariant mass of l+l- (same flavour) lepton pair
#*********************************************************************
# Minimum and maximum invariant mass for all letpons                 *
#*********************************************************************
 0   = mmnl    ! min invariant mass for all letpons (l+- and vl) 
 1d9 = mmnlmax ! max invariant mass for all letpons (l+- and vl) 
#*********************************************************************
# Inclusive cuts                                                     *
#*********************************************************************
 0  = xptj ! minimum pt for at least one jet  
 0  = xptb ! minimum pt for at least one b 
 0  = xpta ! minimum pt for at least one photon 
 0  = xptl ! minimum pt for at least one charged lepton 
#*********************************************************************
# Control the pt's of the jets sorted by pt                          *
#*********************************************************************
 0   = ptj1min ! minimum pt for the leading jet in pt
 0   = ptj2min ! minimum pt for the second jet in pt
 0   = ptj3min ! minimum pt for the third jet in pt
 0   = ptj4min ! minimum pt for the fourth jet in pt
 1d5 = ptj1max ! maximum pt for the leading jet in pt 
 1d5 = ptj2max ! maximum pt for the second jet in pt
 1d5 = ptj3max ! maximum pt for the third jet in pt
 1d5 = ptj4max ! maximum pt for the fourth jet in pt
 0   = cutuse  ! reject event if fails any (0) / all (1) jet pt cuts
#*********************************************************************
# Control the Ht(k)=Sum of k leading jets                            *
#*********************************************************************
 0   = htjmin ! minimum jet HT=Sum(jet pt)
 1d5 = htjmax ! maximum jet HT=Sum(jet pt)
 0   = ht2min ! minimum Ht for the two leading jets
 0   = ht3min ! minimum Ht for the three leading jets
 0   = ht4min ! minimum Ht for the four leading jets
 1d5 = ht2max ! maximum Ht for the two leading jets
 1d5 = ht3max ! maximum Ht for the three leading jets
 1d5 = ht4max ! maximum Ht for the four leading jets
#*********************************************************************
# WBF cuts                                                           *
#*********************************************************************
 0   = xetamin ! minimum rapidity for two jets in the WBF case  
 0   = deltaeta ! minimum rapidity for two jets in the WBF case 
#*********************************************************************
# maximal pdg code for quark to be considered as a jet               *
# otherwise b cuts are applied                                       *
#*********************************************************************
 4 = maxjetflavor
#*********************************************************************
# Jet measure cuts                                                   *
#*********************************************************************
 0   = xqcut   ! minimum kt jet measure between partons
#*********************************************************************
</MGRunCard>
<MGGenerationInfo>
#  Number of Events        :        4322
#  Integrated weight (pb)  :  .31171E+11
#  Truncated wgt (pb)      :  .12597E+09
#  Unit wgt                :  .72122E+07
</MGGenerationInfo>
</header>
<init>
       11     -623  0.40000000000E+01  0.17130000000E+03 0 0     0     0 3  1
  0.16062808033E+11  0.00000000000E+00  0.72121702915E+07   0
</init>
<event>
 5   0  0.7212170E+07  0.9118800E+02  0.7818608E-02  0.1180000E+00
       11   -1    0    0    0    0  0.00000000000E+00  0.00000000000E+00  0.39999999673E+01  0.40000000000E+01  0.51109989000E-03 0.  1.
     -623   -1    0    0    0    0  0.00000000000E+00  0.00000000000E+00  0.12525980253E-10  0.17130000000E+03  0.17130000000E+03 0. -1.
       11    1    1    2    0    0 -0.64238609822E-02  0.51122221109E-02  0.87938588692E+00  0.87942435726E+00  0.51109989000E-03 0.  1.
     -623    1    1    2    0    0 -0.32862210784E-02 -0.68262492851E-02  0.31055816479E-03  0.17130000017E+03  0.17130000000E+03 0. -1.
      622    1    1    2    0    0  0.97100820609E-02  0.17140271748E-02  0.31203035226E+01  0.31205754752E+01  0.40000000000E-01 0.  1.
</event>
<event>
 5   0  0.7212170E+07  0.9118800E+02  0.7818608E-02  0.1180000E+00
       11   -1    0    0    0    0  0.00000000000E+00  0.00000000000E+00  0.39999999673E+01  0.40000000000E+01  0.51109989000E-03 0.  1.
     -623   -1    0    0    0    0  0.00000000000E+00  0.00000000000E+00  0.12525980253E-10  0.17130000000E+03  0.17130000000E+03 0.  1.
       11    1    1    2    0    0 -0.96952616949E-02  0.74382962374E-02  0.32843375865E+01  0.32843603593E+01  0.51109989000E-03 0.  1.
     -623    1    1    2    0    0  0.21051274247E-02  0.13551813808E-01  0.14907590068E-02  0.17130000056E+03  0.17130000000E+03 0.  1.
      622    1    1    2    0    0  0.75901342702E-02 -0.20990110045E-01  0.71417162197E+00  0.71563908535E+00  0.40000000000E-01 0.  0.
</event>
<event>
 5   0  0.7212170E+07  0.9118800E+02  0.7818608E-02  0.1180000E+00
       11   -1    0    0    0    0  0.00000000000E+00  0.00000000000E+00  0.39999999673E+01  0.40000000000E+01  0.51109989000E-03 0. -1.
     -623   -1    0    0    0    0  0.00000000000E+00  0.00000000000E+00  0.12525980253E-10  0.17130000000E+03  0.17130000000E+03 0.  1.
       11    1    1    2    0    0 -0.35318661331E-02  0.20955719878E-03  0.36551884101E-01  0.36726277337E-01  0.51109989000E-03 0. -1.
     -623    1    1    2    0    0 -0.28054377653E-03 -0.13655722747E-02  0.37822749872E-03  0.17130000001E+03  0.17130000000E+03 0.  1.
      622    1    1    2    0    0  0.38124099096E-02  0.11560150756E-02  0.39630698550E+01  0.39632737158E+01  0.40000000000E-01 0. -1.
</event>
<event>
 5   0  0.7212170E+07  0.9118800E+02  0.7818608E-02  0.1180000E+00
       11   -1    0    0    0    0  0.00000000000E+00  0.00000000000E+00  0.39999999673E+01  0.40000000000E+01  0.51109989000E-03 0.  1.
     -623   -1    0    0    0    0  0.00000000000E+00  0.00000000000E+00  0.12525980253E-10  0.17130000000E+03  0.17130000000E+03 0. -1.
       11    1    1    2    0    0  0.38294625554E-02 -0.35973963325E-02  0.12834882185E+00  0.12845733664E+00  0.51109989000E-03 0.  1.
     -623    1    1    2    0    0 -0.78079806674E-03 -0.86289136902E-03  0.31889772055E-03  0.17130000000E+03  0.17130000000E+03 0. -1.
      622    1    1    2    0    0 -0.30486644884E-02  0.44602877018E-02  0.38713322489E+01  0.38715426602E+01  0.40000000000E-01 0.  1.
</event>
<event>
 5   0  0.7212170E+07  0.9118800E+02  0.7818608E-02  0.1180000E+00
       11   -1    0    0    0    0  0.00000000000E+00  0.00000000000E+00  0.39999999673E+01  0.40000000000E+01  0.51109989000E-03 0. -1.
     -623   -1    0    0    0    0  0.00000000000E+00  0.00000000000E+00  0.12525980253E-10  0.17130000000E+03  0.17130000000E+03 0. -1.
       11    1    1    2    0    0 -0.11056466409E-01 -0.97421923682E-02  0.46278468956E+00  0.46301953077E+00  0.51109989000E-03 0. -1.
     -623    1    1    2    0    0 -0.96532530845E-03  0.12225050993E-02  0.49169854384E-03  0.17130000001E+03  0.17130000000E+03 0. -1.
      622    1    1    2    0    0  0.12021791717E-01  0.85196872689E-02  0.35367235794E+01  0.35369804616E+01  0.40000000000E-01 0. -1.
</event>
<event>
 5   0  0.7212170E+07  0.9118800E+02  0.7818608E-02  0.1180000E+00
       11   -1    0    0    0    0  0.00000000000E+00  0.00000000000E+00  0.39999999673E+01  0.40000000000E+01  0.51109989000E-03 0. -1.
     -623   -1    0    0    0    0  0.00000000000E+00  0.00000000000E+00  0.12525980253E-10  0.17130000000E+03  0.17130000000E+03 0. -1.
       11    1    1    2    0    0 -0.36515184573E-01 -0.36603955092E-01  0.59277227296E+00  0.59502305590E+00  0.51109989000E-03 0. -1.
     -623    1    1    2    0    0  0.24169622796E-03  0.49246933781E-02  0.28264245316E-02  0.17130000009E+03  0.17130000000E+03 0. -1.
      622    1    1    2    0    0  0.36273488345E-01  0.31679261714E-01  0.34044012698E+01  0.34049768498E+01  0.40000000000E-01 0. -1.
</event>
<event>
 5   0  0.7212170E+07  0.9118800E+02  0.7818608E-02  0.1180000E+00
       11   -1    0    0    0    0  0.00000000000E+00  0.00000000000E+00  0.39999999673E+01  0.40000000000E+01  0.51109989000E-03 0. -1.
     -623   -1    0    0    0    0  0.00000000000E+00  0.00000000000E+00  0.12525980253E-10  0.17130000000E+03  0.17130000000E+03 0. -1.
       11    1    1    2    0    0 -0.77335640139E-03  0.51810090188E-03  0.11754490690E-02  0.15841124580E-02  0.51109989000E-03 0. -1.
     -623    1    1    2    0    0  0.19018198436E-02 -0.63974534550E-03  0.60888892690E-03  0.17130000001E+03  0.17130000000E+03 0. -1.
      622    1    1    2    0    0 -0.11284634423E-02  0.12164444367E-03  0.39982156297E+01  0.39984158750E+01  0.40000000000E-01 0. -1.
</event>
<event>
 5   0  0.7212170E+07  0.9118800E+02  0.7818608E-02  0.1180000E+00
       11   -1    0    0    0    0  0.00000000000E+00  0.00000000000E+00  0.39999999673E+01  0.40000000000E+01  0.51109989000E-03 0. -1.
     -623   -1    0    0    0    0  0.00000000000E+00  0.00000000000E+00  0.12525980253E-10  0.17130000000E+03  0.17130000000E+03 0.  1.
       11    1    1    2    0    0  0.13961018507E-02  0.16827927743E-02  0.35373554732E-02  0.41898685827E-02  0.51109989000E-03 0. -1.
     -623    1    1    2    0    0 -0.26165074047E-02 -0.19160099396E-02  0.85292120609E-03  0.17130000003E+03  0.17130000000E+03 0.  1.
      622    1    1    2    0    0  0.12204055543E-02  0.23321716556E-03  0.39956096912E+01  0.39958100991E+01  0.40000000000E-01 0. -1.
</event>
<event>
 5   0  0.7212170E+07  0.9118800E+02  0.7818608E-02  0.1180000E+00
       11   -1    0    0    0    0  0.00000000000E+00  0.00000000000E+00  0.39999999673E+01  0.40000000000E+01  0.51109989000E-03 0.  1.
     -623   -1    0    0    0    0  0.00000000000E+00  0.00000000000E+00  0.12525980253E-10  0.17130000000E+03  0.17130000000E+03 0. -1.
       11    1    1    2    0    0  0.11963303620E-01 -0.16601235504E-01  0.16496395039E+00  0.16622902215E+00  0.51109989000E-03 0.  1.
     -623    1    1    2    0    0  0.14208295744E-02 -0.49325750030E-02  0.15576452323E-02  0.17130000008E+03  0.17130000000E+03 0. -1.
      622    1    1    2    0    0 -0.13384133194E-01  0.21533810507E-01  0.38334783716E+01  0.38337708938E+01  0.40000000000E-01 0.  1.
</event>
<event>
 5   0  0.7212170E+07  0.9118800E+02  0.7818608E-02  0.1180000E+00
       11   -1    0    0    0    0  0.00000000000E+00  0.00000000000E+00  0.39999999673E+01  0.40000000000E+01  0.51109989000E-03 0.  1.
     -623   -1    0    0    0    0  0.00000000000E+00  0.00000000000E+00  0.12525980253E-10  0.17130000000E+03  0.17130000000E+03 0.  1.
       11    1    1    2    0    0  0.15703045551E-03  0.99665326823E-03  0.30427007347E-02  0.32461095421E-02  0.51109989000E-03 0.  1.
     -623    1    1    2    0    0 -0.62068701414E-03 -0.21793505120E-03  0.40364811676E-03  0.17130000000E+03  0.17130000000E+03 0.  1.
      622    1    1    2    0    0  0.46365655868E-03 -0.77871821701E-03  0.39965536189E+01  0.39967538891E+01  0.40000000000E-01 0.  1.
</event>
<event>
 5   0  0.7212170E+07  0.9118800E+02  0.7818608E-02  0.1180000E+00
       11   -1    0    0    0    0  0.00000000000E+00  0.00000000000E+00  0.39999999673E+01  0.40000000000E+01  0.51109989000E-03 0. -1.
     -623   -1    0    0    0    0  0.00000000000E+00  0.00000000000E+00  0.12525980253E-10  0.17130000000E+03  0.17130000000E+03 0. -1.
       11    1    1    2    0    0  0.13404440373E-02  0.22043498815E-02  0.37819785717E-02  0.46065750435E-02  0.51109989000E-03 0. -1.
     -623    1    1    2    0    0 -0.37572212598E-02 -0.26004258929E-03  0.10260480106E-02  0.17130000004E+03  0.17130000000E+03 0. -1.
      622    1    1    2    0    0  0.24167772228E-02 -0.19443072921E-02  0.39951919411E+01  0.39953933808E+01  0.40000000000E-01 0. -1.
</event>
<event>
 5   0  0.7212170E+07  0.9118800E+02  0.7818608E-02  0.1180000E+00
       11   -1    0    0    0    0  0.00000000000E+00  0.00000000000E+00  0.39999999673E+01  0.40000000000E+01  0.51109989000E-03 0.  1.
     -623   -1    0    0    0    0  0.00000000000E+00  0.00000000000E+00  0.12525980253E-10  0.17130000000E+03  0.17130000000E+03 0. -1.
       11    1    1    2    0    0 -0.22009562696E-03  0.96871768821E-03  0.27590542368E-02  0.29766523854E-02  0.51109989000E-03 0.  1.
     -623    1    1    2    0    0 -0.62382826077E-03  0.38987811557E-03  0.41804155599E-03  0.17130000000E+03  0.17130000000E+03 0. -1.
      622    1    1    2    0    0  0.84392388785E-03 -0.13585958039E-02  0.39968228723E+01  0.39970233462E+01  0.40000000000E-01 0.  1.
</event>
<event>
 5   0  0.7212170E+07  0.9118800E+02  0.7818608E-02  0.1180000E+00
       11   -1    0    0    0    0  0.00000000000E+00  0.00000000000E+00  0.39999999673E+01  0.40000000000E+01  0.51109989000E-03 0.  1.
     -623   -1    0    0    0    0  0.00000000000E+00  0.00000000000E+00  0.12525980253E-10  0.17130000000E+03  0.17130000000E+03 0.  1.
       11    1    1    2    0    0 -0.22156859195E-02  0.87343726347E-03  0.10878718792E-01  0.11148089630E-01  0.51109989000E-03 0.  1.
     -623    1    1    2    0    0  0.17894515561E-02 -0.29829361902E-02  0.47051877381E-03  0.17130000004E+03  0.17130000000E+03 0.  1.
      622    1    1    2    0    0  0.42623436325E-03  0.21094989269E-02  0.39886507301E+01  0.39888518747E+01  0.40000000000E-01 0.  1.
</event>
<event>
 5   0  0.7212170E+07  0.9118800E+02  0.7818608E-02  0.1180000E+00
       11   -1    0    0    0    0  0.00000000000E+00  0.00000000000E+00  0.39999999673E+01  0.40000000000E+01  0.51109989000E-03 0. -1.
     -623   -1    0    0    0    0  0.00000000000E+00  0.00000000000E+00  0.12525980253E-10  0.17130000000E+03  0.17130000000E+03 0. -1.
       11    1    1    2    0    0 -0.19950888265E-02  0.64871975096E-02  0.30102467905E-02  0.74422388964E-02  0.51109989000E-03 0. -1.
     -623    1    1    2    0    0  0.27357422331E-02  0.40330961574E-02  0.46463994277E-02  0.17130000013E+03  0.17130000000E+03 0. -1.
      622    1    1    2    0    0 -0.74065340661E-03 -0.10520293667E-01  0.39923433212E+01  0.39925576289E+01  0.40000000000E-01 0. -1.
</event>
<event>
 5   0  0.7212170E+07  0.9118800E+02  0.7818608E-02  0.1180000E+00
       11   -1    0    0    0    0  0.00000000000E+00  0.00000000000E+00  0.39999999673E+01  0.40000000000E+01  0.51109989000E-03 0.  1.
     -623   -1    0    0    0    0  0.00000000000E+00  0.00000000000E+00  0.12525980253E-10  0.17130000000E+03  0.17130000000E+03 0.  1.
       11    1    1    2    0    0  0.42313801369E-04  0.24860632518E-03  0.35116080455E-02  0.35575567073E-02  0.51109989000E-03 0.  1.
     -623    1    1    2    0    0 -0.36191053028E-03 -0.26915797973E-03  0.24611267471E-03  0.17130000000E+03  0.17130000000E+03 0.  1.
      622    1    1    2    0    0  0.31959672888E-03  0.20551654528E-04  0.39962422463E+01  0.39964424422E+01  0.40000000000E-01 0.  1.
</event>
<event>
 5   0  0.7212170E+07  0.9118800E+02  0.7818608E-02  0.1180000E+00
       11   -1    0    0    0    0  0.00000000000E+00  0.00000000000E+00  0.39999999673E+01  0.40000000000E+01  0.51109989000E-03 0.  1.
     -623   -1    0    0    0    0  0.00000000000E+00  0.00000000000E+00  0.12525980253E-10  0.17130000000E+03  0.17130000000E+03 0.  1.
       11    1    1    2    0    0 -0.23335918027E-01 -0.36688602495E-02  0.70331197467E+00  0.70370876117E+00  0.51109989000E-03 0.  1.
     -623    1    1    2    0    0  0.19060143198E-02 -0.12424866910E-02  0.71280168537E-03  0.17130000002E+03  0.17130000000E+03 0.  1.
      622    1    1    2    0    0  0.21429903707E-01  0.49113469407E-02  0.32959751917E+01  0.32962912229E+01  0.40000000000E-01 0.  1.
</event>
<event>
 5   0  0.7212170E+07  0.9118800E+02  0.7818608E-02  0.1180000E+00
       11   -1    0    0    0    0  0.00000000000E+00  0.00000000000E+00  0.39999999673E+01  0.40000000000E+01  0.51109989000E-03 0.  1.
     -623   -1    0    0    0    0  0.00000000000E+00  0.00000000000E+00  0.12525980253E-10  0.17130000000E+03  0.17130000000E+03 0. -1.
       11    1    1    2    0    0 -0.72904563242E-03 -0.85694586679E-03  0.31693068276E-02  0.34017043696E-02  0.51109989000E-03 0.  1.
     -623    1    1    2    0    0  0.93612830371E-03 -0.73654695351E-04  0.43265698003E-03  0.17130000000E+03  0.17130000000E+03 0. -1.
      622    1    1    2    0    0 -0.20708267140E-03  0.93060056215E-03  0.39963980040E+01  0.39965982930E+01  0.40000000000E-01 0.  1.
</event>
<event>
 5   0  0.7212170E+07  0.9118800E+02  0.7818608E-02  0.1180000E+00
       11   -1    0    0    0    0  0.00000000000E+00  0.00000000000E+00  0.39999999673E+01  0.40000000000E+01  0.51109989000E-03 0. -1.
     -623   -1    0    0    0    0  0.00000000000E+00  0.00000000000E+00  0.12525980253E-10  0.17130000000E+03  0.17130000000E+03 0. -1.
       11    1    1    2    0    0  0.11703787560E-01  0.15777399564E-01  0.27048046111E+00  0.27119337390E+00  0.51109989000E-03 0. -1.
     -623    1    1    2    0    0 -0.16935439119E-02  0.18419083967E-02  0.98252070386E-03  0.17130000002E+03  0.17130000000E+03 0. -1.
      622    1    1    2    0    0 -0.10010243648E-01 -0.17619307961E-01  0.37285369857E+01  0.37288066052E+01  0.40000000000E-01 0. -1.
</event>
<event>
 5   0  0.7212170E+07  0.9118800E+02  0.7818608E-02  0.1180000E+00
       11   -1    0    0    0    0  0.00000000000E+00  0.00000000000E+00  0.39999999673E+01  0.40000000000E+01  0.51109989000E-03 0.  1.
     -623   -1    0    0    0    0  0.00000000000E+00  0.00000000000E+00  0.12525980253E-10  0.17130000000E+03  0.17130000000E+03 0. -1.
       11    1    1    2    0    0  0.80512952230E-02  0.61701572780E-04  0.53395613889E-01  0.54001666340E-01  0.51109989000E-03 0.  1.
     -623    1    1    2    0    0 -0.86198438768E-03 -0.80822393441E-03  0.81538822191E-03  0.17130000001E+03  0.17130000000E+03 0. -1.
      622    1    1    2    0    0 -0.71893108353E-02  0.74652236167E-03  0.39457889654E+01  0.39459983278E+01  0.40000000000E-01 0.  1.
</event>
<event>
 5   0  0.7212170E+07  0.9118800E+02  0.7818608E-02  0.1180000E+00
       11   -1    0    0    0    0  0.00000000000E+00  0.00000000000E+00  0.39999999673E+01  0.40000000000E+01  0.51109989000E-03 0. -1.
     -623   -1    0    0    0    0  0.00000000000E+00  0.00000000000E+00  0.12525980253E-10  0.17130000000E+03  0.17130000000E+03 0. -1.
       11    1    1    2    0    0  0.11563863602E-01  0.15560808505E-01  0.42834837240E+00  0.42878718622E+00  0.51109989000E-03 0. -1.
     -623    1    1    2    0    0 -0.20570429156E-02  0.18816021292E-02  0.71807958506E-03  0.17130000002E+03  0.17130000000E+03 0. -1.
      622    1    1    2    0    0 -0.95068206863E-02 -0.17442410634E-01  0.35709335154E+01  0.35712127896E+01  0.40000000000E-01 0. -1.
</event>
<event>
 5   0  0.7212170E+07  0.9118800E+02  0.7818608E-02  0.1180000E+00
       11   -1    0    0    0    0  0.00000000000E+00  0.00000000000E+00  0.39999999673E+01  0.40000000000E+01  0.51109989000E-03 0. -1.
     -623   -1    0    0    0    0  0.00000000000E+00  0.00000000000E+00  0.12525980253E-10  0.17130000000E+03  0.17130000000E+03 0.  1.
       11    1    1    2    0    0  0.83077808010E-03 -0.24586697201E-02  0.13992595675E-01  0.14240407502E-01  0.51109989000E-03 0. -1.
     -623    1    1    2    0    0  0.88145840968E-03  0.38105025683E-03  0.44941140183E-03  0.17130000000E+03  0.17130000000E+03 0.  1.
      622    1    1    2    0    0 -0.17122364900E-02  0.20776194632E-02  0.39855579611E+01  0.39857595900E+01  0.40000000000E-01 0. -1.
</event>
<event>
 5   0  0.7212170E+07  0.9118800E+02  0.7818608E-02  0.1180000E+00
       11   -1    0    0    0    0  0.00000000000E+00  0.00000000000E+00  0.39999999673E+01  0.40000000000E+01  0.51109989000E-03 0.  1.
     -623   -1    0    0    0    0  0.00000000000E+00  0.00000000000E+00  0.12525980253E-10  0.17130000000E+03  0.17130000000E+03 0. -1.
       11    1    1    2    0    0  0.21577934496E-01 -0.21494930436E-01  0.43239485712E+00  0.43346650733E+00  0.51109989000E-03 0.  1.
     -623    1    1    2    0    0 -0.27786015326E-01 -0.94306634596E-02  0.14379447393E-02  0.17130000252E+03  0.17130000000E+03 0. -1.
      622    1    1    2    0    0  0.62080808321E-02  0.30925593896E-01  0.35661671657E+01  0.35665309737E+01  0.40000000000E-01 0.  1.
</event>
<event>
 5   0  0.7212170E+07  0.9118800E+02  0.7818608E-02  0.1180000E+00
       11   -1    0    0    0    0  0.00000000000E+00  0.00000000000E+00  0.39999999673E+01  0.40000000000E+01  0.51109989000E-03 0. -1.
     -623   -1    0    0    0    0  0.00000000000E+00  0.00000000000E+00  0.12525980253E-10  0.17130000000E+03  0.17130000000E+03 0.  1.
       11    1    1    2    0    0  0.38063935026E-02 -0.35610424644E-02  0.10487939631E+01  0.10488070403E+01  0.51109989000E-03 0. -1.
     -623    1    1    2    0    0  0.45343945333E-03  0.21021381440E-03  0.28911199689E-03  0.17130000000E+03  0.17130000000E+03 0.  1.
      622    1    1    2    0    0 -0.42598329559E-02  0.33508286500E-02  0.29509168918E+01  0.29511929582E+01  0.40000000000E-01 0.  1.
</event>
<event>
 5   0  0.7212170E+07  0.9118800E+02  0.7818608E-02  0.1180000E+00
       11   -1    0    0    0    0  0.00000000000E+00  0.00000000000E+00  0.39999999673E+01  0.40000000000E+01  0.51109989000E-03 0.  1.
     -623   -1    0    0    0    0  0.00000000000E+00  0.00000000000E+00  0.12525980253E-10  0.17130000000E+03  0.17130000000E+03 0.  1.
       11    1    1    2    0    0  0.27111473703E-02  0.50260696405E-02  0.17584394096E+01  0.17584487568E+01  0.51109989000E-03 0.  1.
     -623    1    1    2    0    0 -0.47410197821E-03  0.14175639659E-01  0.45020105233E-03  0.17130000059E+03  0.17130000000E+03 0.  1.
      622    1    1    2    0    0 -0.22370453920E-02 -0.19201709302E-01  0.22411103574E+01  0.22415506561E+01  0.40000000000E-01 0.  0.
</event>
<event>
 5   0  0.7212170E+07  0.9118800E+02  0.7818608E-02  0.1180000E+00
       11   -1    0    0    0    0  0.00000000000E+00  0.00000000000E+00  0.39999999673E+01  0.40000000000E+01  0.51109989000E-03 0. -1.
     -623   -1    0    0    0    0  0.00000000000E+00  0.00000000000E+00  0.12525980253E-10  0.17130000000E+03  0.17130000000E+03 0. -1.
       11    1    1    2    0    0 -0.84346002965E-02  0.43699413953E-02  0.15174676936E+00  0.15204467141E+00  0.51109989000E-03 0. -1.
     -623    1    1    2    0    0  0.10504760629E-01 -0.65822757935E-02  0.50741988760E-03  0.17130000045E+03  0.17130000000E+03 0. -1.
      622    1    1    2    0    0 -0.20701603333E-02  0.22123343987E-02  0.38477457784E+01  0.38479548796E+01  0.40000000000E-01 0. -1.
</event>
<event>
 5   0  0.7212170E+07  0.9118800E+02  0.7818608E-02  0.1180000E+00
       11   -1    0    0    0    0  0.00000000000E+00  0.00000000000E+00  0.39999999673E+01  0.40000000000E+01  0.51109989000E-03 0. -1.
     -623   -1    0    0    0    0  0.00000000000E+00  0.00000000000E+00  0.12525980253E-10  0.17130000000E+03  0.17130000000E+03 0. -1.
       11    1    1    2    0    0 -0.17776169467E-01  0.14753208036E-01  0.74956472431E+00  0.74992078682E+00  0.51109989000E-03 0. -1.
     -623    1    1    2    0    0  0.66173098714E-02 -0.50904962596E-02  0.63591483230E-03  0.17130000020E+03  0.17130000000E+03 0. -1.
      622    1    1    2    0    0  0.11158859596E-01 -0.96627117771E-02  0.32497993278E+01  0.32500790081E+01  0.40000000000E-01 0.  0.
</event>
<event>
 5   0  0.7212170E+07  0.9118800E+02  0.7818608E-02  0.1180000E+00
       11   -1    0    0    0    0  0.00000000000E+00  0.00000000000E+00  0.39999999673E+01  0.40000000000E+01  0.51109989000E-03 0. -1.
     -623   -1    0    0    0    0  0.00000000000E+00  0.00000000000E+00  0.12525980253E-10  0.17130000000E+03  0.17130000000E+03 0.  1.
       11    1    1    2    0    0  0.10637902569E-02  0.77913404632E-03  0.12460443100E+00  0.12461245582E+00  0.51109989000E-03 0. -1.
     -623    1    1    2    0    0  0.55705586951E-03 -0.96454587800E-03  0.21477581556E-03  0.17130000000E+03  0.17130000000E+03 0.  1.
      622    1    1    2    0    0 -0.16208461266E-02  0.18541183204E-03  0.38751807621E+01  0.38753875419E+01  0.40000000000E-01 0. -1.
</event>
<event>
 5   0  0.7212170E+07  0.9118800E+02  0.7818608E-02  0.1180000E+00
       11   -1    0    0    0    0  0.00000000000E+00  0.00000000000E+00  0.39999999673E+01  0.40000000000E+01  0.51109989000E-03 0.  1.
     -623   -1    0    0    0    0  0.00000000000E+00  0.00000000000E+00  0.12525980253E-10  0.17130000000E+03  0.17130000000E+03 0. -1.
       11    1    1    2    0    0  0.83134981234E-03 -0.47034354812E-02  0.81075919318E+00  0.81077342335E+00  0.51109989000E-03 0.  1.
     -623    1    1    2    0    0  0.44220174801E-03  0.20743465161E-02  0.26640329640E-03  0.17130000001E+03  0.17130000000E+03 0. -1.
      622    1    1    2    0    0 -0.12735515605E-02  0.26290889642E-02  0.31889743725E+01  0.31892265649E+01  0.40000000000E-01 0.  1.
</event>
<event>
 5   0  0.7212170E+07  0.9118800E+02  0.7818608E-02  0.1180000E+00
       11   -1    0    0    0    0  0.00000000000E+00  0.00000000000E+00  0.39999999673E+01  0.40000000000E+01  0.51109989000E-03 0. -1.
     -623   -1    0    0    0    0  0.00000000000E+00  0.00000000000E+00  0.12525980253E-10  0.17130000000E+03  0.17130000000E+03 0.  1.
       11    1    1    2    0    0  0.58810726539E-03 -0.14610625637E-02  0.29709746600E-01  0.29755853880E-01  0.51109989000E-03 0. -1.
     -623    1    1    2    0    0  0.16811139185E-03  0.10062418923E-02  0.24767998878E-03  0.17130000000E+03  0.17130000000E+03 0.  1.
      622    1    1    2    0    0 -0.75621865732E-03  0.45482067092E-03  0.39700425427E+01  0.39702441448E+01  0.40000000000E-01 0. -1.
</event>
<event>
 5   0  0.7212170E+07  0.9118800E+02  0.7818608E-02  0.1180000E+00
       11   -1    0    0    0    0  0.00000000000E+00  0.00000000000E+00  0.39999999673E+01  0.40000000000E+01  0.51109989000E-03 0. -1.
     -623   -1    0    0    0    0  0.00000000000E+00  0.00000000000E+00  0.12525980253E-10  0.17130000000E+03  0.17130000000E+03 0. -1.
       11    1    1    2    0    0  0.45724697248E-02  0.30454253102E-02  0.92050467693E-01  0.92215681531E-01  0.51109989000E-03 0. -1.
     -623    1    1    2    0    0 -0.15610273732E-02 -0.46829205565E-02  0.37148119013E-03  0.17130000007E+03  0.17130000000E+03 0. -1.
      622    1    1    2    0    0 -0.30114423516E-02  0.16374952462E-02  0.39075780184E+01  0.39077842468E+01  0.40000000000E-01 0. -1.
</event>
<event>
 5   0  0.7212170E+07  0.9118800E+02  0.7818608E-02  0.1180000E+00
       11   -1    0    0    0    0  0.00000000000E+00  0.00000000000E+00  0.39999999673E+01  0.40000000000E+01  0.51109989000E-03 0.  1.
     -623   -1    0    0    0    0  0.00000000000E+00  0.00000000000E+00  0.12525980253E-10  0.17130000000E+03  0.17130000000E+03 0.  1.
       11    1    1    2    0    0  0.23448822034E-02  0.16110055446E-02  0.32834616958E-01  0.32961600466E-01  0.51109989000E-03 0.  1.
     -623    1    1    2    0    0 -0.10204464095E-03  0.70783534101E-03  0.32993137225E-03  0.17130000000E+03  0.17130000000E+03 0.  1.
      622    1    1    2    0    0 -0.22428375624E-02 -0.23188408857E-02  0.39668354193E+01  0.39670383980E+01  0.40000000000E-01 0.  1.
</event>
<event>
 5   0  0.7212170E+07  0.9118800E+02  0.7818608E-02  0.1180000E+00
       11   -1    0    0    0    0  0.00000000000E+00  0.00000000000E+00  0.39999999673E+01  0.40000000000E+01  0.51109989000E-03 0.  1.
     -623   -1    0    0    0    0  0.00000000000E+00  0.00000000000E+00  0.12525980253E-10  0.17130000000E+03  0.17130000000E+03 0.  1.
       11    1    1    2    0    0  0.21298982596E-02 -0.63466235858E-03  0.17254874913E+00  0.17256381808E+00  0.51109989000E-03 0.  1.
     -623    1    1    2    0    0 -0.54133158030E-03  0.15498924509E-05  0.22444227606E-03  0.17130000000E+03  0.17130000000E+03 0.  1.
      622    1    1    2    0    0 -0.15885666793E-02  0.63311246613E-03  0.38272267761E+01  0.38274361811E+01  0.40000000000E-01 0.  1.
</event>
<event>
 5   0  0.7212170E+07  0.9118800E+02  0.7818608E-02  0.1180000E+00
       11   -1    0    0    0    0  0.00000000000E+00  0.00000000000E+00  0.39999999673E+01  0.40000000000E+01  0.51109989000E-03 0.  1.
     -623   -1    0    0    0    0  0.00000000000E+00  0.00000000000E+00  0.12525980253E-10  0.17130000000E+03  0.17130000000E+03 0.  1.
       11    1    1    2    0    0  0.69427553632E-03 -0.11749987460E-01  0.15400087732E+01  0.15400538389E+01  0.51109989000E-03 0.  1.
     -623    1    1    2    0    0 -0.26211523218E-03  0.24706328155E-02  0.38782550638E-03  0.17130000002E+03  0.17130000000E+03 0.  1.
      622    1    1    2    0    0 -0.43216030417E-03  0.92793546448E-02  0.24596033682E+01  0.24599461421E+01  0.40000000000E-01 0.  1.
</event>
<event>
 5   0  0.7212170E+07  0.9118800E+02  0.7818608E-02  0.1180000E+00
       11   -1    0    0    0    0  0.00000000000E+00  0.00000000000E+00  0.39999999673E+01  0.40000000000E+01  0.51109989000E-03 0. -1.
     -623   -1    0    0    0    0  0.00000000000E+00  0.00000000000E+00  0.12525980253E-10  0.17130000000E+03  0.17130000000E+03 0. -1.
       11    1    1    2    0    0 -0.15601283673E-02 -0.49104131400E-03  0.23636768251E-01  0.23698800783E-01  0.51109989000E-03 0. -1.
     -623    1    1    2    0    0  0.20489142685E-02 -0.18807053827E-02  0.26395718414E-03  0.17130000002E+03  0.17130000000E+03 0. -1.
      622    1    1    2    0    0 -0.48878590175E-03  0.23717466972E-02  0.39760992429E+01  0.39763011774E+01  0.40000000000E-01 0. -1.
</event>
<event>
 5   0  0.7212170E+07  0.9118800E+02  0.7818608E-02  0.1180000E+00
       11   -1    0    0    0    0  0.00000000000E+00  0.00000000000E+00  0.39999999673E+01  0.40000000000E+01  0.51109989000E-03 0.  1.
     -623   -1    0    0    0    0  0.00000000000E+00  0.00000000000E+00  0.12525980253E-10  0.17130000000E+03  0.17130000000E+03 0. -1.
       11    1    1    2    0    0  0.13534550127E-02  0.85832076174E-02  0.29526262100E+00  0.29539089336E+00  0.51109989000E-03 0.  1.
     -623    1    1    2    0    0  0.13372176250E-02 -0.64539765475E-02  0.34590948115E-03  0.17130000013E+03  0.17130000000E+03 0. -1.
      622    1    1    2    0    0 -0.26906726382E-02 -0.21292310676E-02  0.37043914383E+01  0.37046089809E+01  0.40000000000E-01 0.  1.
</event>
<event>
 5   0  0.7212170E+07  0.9118800E+02  0.7818608E-02  0.1180000E+00
       11   -1    0    0    0    0  0.00000000000E+00  0.00000000000E+00  0.39999999673E+01  0.40000000000E+01  0.51109989000E-03 0. -1.
     -623   -1    0    0    0    0  0.00000000000E+00  0.00000000000E+00  0.12525980253E-10  0.17130000000E+03  0.17130000000E+03 0.  1.
       11    1    1    2    0    0 -0.14119111635E-02  0.88321389552E-02  0.23967373200E+00  0.23984111241E+00  0.51109989000E-03 0. -1.
     -623    1    1    2    0    0 -0.57081007303E-03  0.80398198410E-03  0.39298473884E-03  0.17130000000E+03  0.17130000000E+03 0.  1.
      622    1    1    2    0    0  0.19827212365E-02 -0.96361209392E-02  0.37599332502E+01  0.37601588839E+01  0.40000000000E-01 0.  0.
</event>
<event>
 5   0  0.7212170E+07  0.9118800E+02  0.7818608E-02  0.1180000E+00
       11   -1    0    0    0    0  0.00000000000E+00  0.00000000000E+00  0.39999999673E+01  0.40000000000E+01  0.51109989000E-03 0. -1.
     -623   -1    0    0    0    0  0.00000000000E+00  0.00000000000E+00  0.12525980253E-10  0.17130000000E+03  0.17130000000E+03 0.  1.
       11    1    1    2    0    0 -0.75462851428E-03 -0.47428626104E-03  0.24915938942E-01  0.24937113869E-01  0.51109989000E-03 0. -1.
     -623    1    1    2    0    0 -0.25413403742E-04  0.13390448297E-03  0.22249337115E-03  0.17130000000E+03  0.17130000000E+03 0.  1.
      622    1    1    2    0    0  0.78004191804E-03  0.34038177799E-03  0.39748615377E+01  0.39750628886E+01  0.40000000000E-01 0. -1.
</event>
<event>
 5   0  0.7212170E+07  0.9118800E+02  0.7818608E-02  0.1180000E+00
       11   -1    0    0    0    0  0.00000000000E+00  0.00000000000E+00  0.39999999673E+01  0.40000000000E+01  0.51109989000E-03 0.  1.
     -623   -1    0    0    0    0  0.00000000000E+00  0.00000000000E+00  0.12525980253E-10  0.17130000000E+03  0.17130000000E+03 0.  1.
       11    1    1    2    0    0 -0.41147768112E-02 -0.20093534449E-01  0.11877927995E+01  0.11879699816E+01  0.51109989000E-03 0.  1.
     -623    1    1    2    0    0 -0.65207705241E-02  0.15780216136E-01  0.48593080727E-03  0.17130000085E+03  0.17130000000E+03 0.  1.
      622    1    1    2    0    0  0.10635547335E-01  0.43133183134E-02  0.28117212369E+01  0.28120291665E+01  0.40000000000E-01 0.  1.
</event>
<event>
 5   0  0.7212170E+07  0.9118800E+02  0.7818608E-02  0.1180000E+00
       11   -1    0    0    0    0  0.00000000000E+00  0.00000000000E+00  0.39999999673E+01  0.40000000000E+01  0.51109989000E-03 0. -1.
     -623   -1    0    0    0    0  0.00000000000E+00  0.00000000000E+00  0.12525980253E-10  0.17130000000E+03  0.17130000000E+03 0.  1.
       11    1    1    2    0    0 -0.85017124492E-02  0.12808789941E-02  0.71838227369E-01  0.72352691037E-01  0.51109989000E-03 0. -1.
     -623    1    1    2    0    0  0.57269636313E-02  0.38438099919E-02  0.72258461301E-03  0.17130000014E+03  0.17130000000E+03 0.  1.
      622    1    1    2    0    0  0.27747488174E-02 -0.51246889863E-02  0.39274391557E+01  0.39276471689E+01  0.40000000000E-01 0. -1.
</event>
<event>
 5   0  0.7212170E+07  0.9118800E+02  0.7818608E-02  0.1180000E+00
       11   -1    0    0    0    0  0.00000000000E+00  0.00000000000E+00  0.39999999673E+01  0.40000000000E+01  0.51109989000E-03 0.  1.
     -623   -1    0    0    0    0  0.00000000000E+00  0.00000000000E+00  0.12525980253E-10  0.17130000000E+03  0.17130000000E+03 0.  1.
       11    1    1    2    0    0 -0.26314549032E-03  0.81833790488E-03  0.85207650190E-02  0.85792530026E-02  0.51109989000E-03 0.  1.
     -623    1    1    2    0    0  0.86429818899E-04 -0.32264955744E-03  0.25892547514E-03  0.17130000000E+03  0.17130000000E+03 0.  1.
      622    1    1    2    0    0  0.17671567142E-03 -0.49568834743E-03  0.39912202769E+01  0.39914207465E+01  0.40000000000E-01 0.  1.
</event>
<event>
 5   0  0.7212170E+07  0.9118800E+02  0.7818608E-02  0.1180000E+00
       11   -1    0    0    0    0  0.00000000000E+00  0.00000000000E+00  0.39999999673E+01  0.40000000000E+01  0.51109989000E-03 0. -1.
     -623   -1    0    0    0    0  0.00000000000E+00  0.00000000000E+00  0.12525980253E-10  0.17130000000E+03  0.17130000000E+03 0.  1.
       11    1    1    2    0    0  0.83503912146E-02  0.75215170699E-03  0.26261367407E+00  0.26274797392E+00  0.51109989000E-03 0. -1.
     -623    1    1    2    0    0 -0.12389026870E-03 -0.49035815427E-03  0.35739933636E-03  0.17130000000E+03  0.17130000000E+03 0.  1.
      622    1    1    2    0    0 -0.82265009459E-02 -0.26179355270E-03  0.37370288941E+01  0.37372520251E+01  0.40000000000E-01 0. -1.
</event>
<event>
 5   0  0.7212170E+07  0.9118800E+02  0.7818608E-02  0.1180000E+00
       11   -1    0    0    0    0  0.00000000000E+00  0.00000000000E+00  0.39999999673E+01  0.40000000000E+01  0.51109989000E-03 0. -1.
     -623   -1    0    0    0    0  0.00000000000E+00  0.00000000000E+00  0.12525980253E-10  0.17130000000E+03  0.17130000000E+03 0. -1.
       11    1    1    2    0    0 -0.68537841515E-03  0.14864133399E-02  0.56560611587E-01  0.56586598893E-01  0.51109989000E-03 0. -1.
     -623    1    1    2    0    0 -0.17233693629E-02 -0.17495736961E-02  0.22959205834E-03  0.17130000002E+03  0.17130000000E+03 0. -1.
      622    1    1    2    0    0  0.24087477783E-02  0.26316035638E-03  0.39432097642E+01  0.39434133839E+01  0.40000000000E-01 0. -1.
</event>
<event>
 5   0  0.7212170E+07  0.9118800E+02  0.7818608E-02  0.1180000E+00
       11   -1    0    0    0    0  0.00000000000E+00  0.00000000000E+00  0.39999999673E+01  0.40000000000E+01  0.51109989000E-03 0. -1.
     -623   -1    0    0    0    0  0.00000000000E+00  0.00000000000E+00  0.12525980253E-10  0.17130000000E+03  0.17130000000E+03 0. -1.
       11    1    1    2    0    0  0.12225959892E-01  0.95854194068E-02  0.28550773481E-01  0.32507879813E-01  0.51109989000E-03 0. -1.
     -623    1    1    2    0    0  0.10514235557E-02 -0.65392487463E-02  0.41822839593E-02  0.17130000018E+03  0.17130000000E+03 0. -1.
      622    1    1    2    0    0 -0.13277383448E-01 -0.30461706603E-02  0.39672669100E+01  0.39674919412E+01  0.40000000000E-01 0. -1.
</event>
<event>
 5   0  0.7212170E+07  0.9118800E+02  0.7818608E-02  0.1180000E+00
       11   -1    0    0    0    0  0.00000000000E+00  0.00000000000E+00  0.39999999673E+01  0.40000000000E+01  0.51109989000E-03 0. -1.
     -623   -1    0    0    0    0  0.00000000000E+00  0.00000000000E+00  0.12525980253E-10  0.17130000000E+03  0.17130000000E+03 0. -1.
       11    1    1    2    0    0 -0.41464634720E-02 -0.93348980389E-03  0.38444762164E+00  0.38447145482E+00  0.51109989000E-03 0. -1.
     -623    1    1    2    0    0  0.11820750564E-02  0.26869287212E-02  0.24674097253E-03  0.17130000003E+03  0.17130000000E+03 0. -1.
      622    1    1    2    0    0  0.29643884159E-02 -0.17534389166E-02  0.36153056036E+01  0.36155285187E+01  0.40000000000E-01 0. -1.
</event>
<event>
 5   0  0.7212170E+07  0.9118800E+02  0.7818608E-02  0.1180000E+00
       11   -1    0    0    0    0  0.00000000000E+00  0.00000000000E+00  0.39999999673E+01  0.40000000000E+01  0.51109989000E-03 0. -1.
     -623   -1    0    0    0    0  0.00000000000E+00  0.00000000000E+00  0.12525980253E-10  0.17130000000E+03  0.17130000000E+03 0. -1.
       11    1    1    2    0    0 -0.67565935460E-02 -0.24229297100E-02  0.39309649895E+00  0.39316235941E+00  0.51109989000E-03 0.  1.
     -623    1    1    2    0    0 -0.73658631779E-03 -0.24994361794E-04  0.29625216962E-03  0.17130000000E+03  0.17130000000E+03 0. -1.
      622    1    1    2    0    0  0.74931798639E-02  0.24479240718E-02  0.36066072168E+01  0.36068376393E+01  0.40000000000E-01 0. -1.
</event>
<event>
 5   0  0.7212170E+07  0.9118800E+02  0.7818608E-02  0.1180000E+00
       11   -1    0    0    0    0  0.00000000000E+00  0.00000000000E+00  0.39999999673E+01  0.40000000000E+01  0.51109989000E-03 0.  1.
     -623   -1    0    0    0    0  0.00000000000E+00  0.00000000000E+00  0.12525980253E-10  0.17130000000E+03  0.17130000000E+03 0. -1.
       11    1    1    2    0    0  0.11759957766E-02 -0.53937404162E-03  0.36919424395E-01  0.36945622355E-01  0.51109989000E-03 0.  1.
     -623    1    1    2    0    0 -0.11004611891E-02 -0.83175059798E-03  0.22827859061E-03  0.17130000001E+03  0.17130000000E+03 0. -1.
      622    1    1    2    0    0 -0.75534587749E-04  0.13711246394E-02  0.39628522633E+01  0.39630543708E+01  0.40000000000E-01 0.  1.
</event>
<event>
 5   0  0.7212170E+07  0.9118800E+02  0.7818608E-02  0.1180000E+00
       11   -1    0    0    0    0  0.00000000000E+00  0.00000000000E+00  0.39999999673E+01  0.40000000000E+01  0.51109989000E-03 0. -1.
     -623   -1    0    0    0    0  0.00000000000E+00  0.00000000000E+00  0.12525980253E-10  0.17130000000E+03  0.17130000000E+03 0. -1.
       11    1    1    2    0    0 -0.11080590387E-01 -0.33197207854E-01  0.99419069740E+00  0.99480663353E+00  0.51109989000E-03 0. -1.
     -623    1    1    2    0    0 -0.28076013775E-02  0.15765242960E-02  0.10806269695E-02  0.17130000003E+03  0.17130000000E+03 0. -1.
      622    1    1    2    0    0  0.13888191765E-01  0.31620683558E-01  0.30047286430E+01  0.30051933328E+01  0.40000000000E-01 0. -1.
</event>
<event>
 5   0  0.7212170E+07  0.9118800E+02  0.7818608E-02  0.1180000E+00
       11   -1    0    0    0    0  0.00000000000E+00  0.00000000000E+00  0.39999999673E+01  0.40000000000E+01  0.51109989000E-03 0. -1.
     -623   -1    0    0    0    0  0.00000000000E+00  0.00000000000E+00  0.12525980253E-10  0.17130000000E+03  0.17130000000E+03 0. -1.
       11    1    1    2    0    0  0.62714208722E-02 -0.89354278234E-06  0.11804619906E+00  0.11821377693E+00  0.51109989000E-03 0. -1.
     -623    1    1    2    0    0 -0.78069905594E-02  0.14125904370E-02  0.37438598596E-03  0.17130000018E+03  0.17130000000E+03 0. -1.
      622    1    1    2    0    0  0.15355696879E-02 -0.14116968944E-02  0.38815793827E+01  0.38817860393E+01  0.40000000000E-01 0. -1.
</event>
<event>
 5   0  0.7212170E+07  0.9118800E+02  0.7818608E-02  0.1180000E+00
       11   -1    0    0    0    0  0.00000000000E+00  0.00000000000E+00  0.39999999673E+01  0.40000000000E+01  0.51109989000E-03 0. -1.
     -623   -1    0    0    0    0  0.00000000000E+00  0.00000000000E+00  0.12525980253E-10  0.17130000000E+03  0.17130000000E+03 0. -1.
       11    1    1    2    0    0 -0.13670729376E-02 -0.18597946683E-03  0.75891285256E-03  0.16554904392E-02  0.51109989000E-03 0. -1.
     -623    1    1    2    0    0  0.42871741360E-03  0.55142276905E-03  0.10967645132E-02  0.17130000000E+03  0.17130000000E+03 0. -1.
      622    1    1    2    0    0  0.93835552397E-03 -0.36544330229E-03  0.39981442905E+01  0.39983445051E+01  0.40000000000E-01 0. -1.
</event>
<event>
 5   0  0.7212170E+07  0.9118800E+02  0.7818608E-02  0.1180000E+00
       11   -1    0    0    0    0  0.00000000000E+00  0.00000000000E+00  0.39999999673E+01  0.40000000000E+01  0.51109989000E-03 0.  1.
     -623   -1    0    0    0    0  0.00000000000E+00  0.00000000000E+00  0.12525980253E-10  0.17130000000E+03  0.17130000000E+03 0.  1.
       11    1    1    2    0    0  0.32608752267E-01  0.34697928258E-01  0.25466714451E+01  0.25471166027E+01  0.51109989000E-03 0.  1.
     -623    1    1    2    0    0 -0.16188420066E-01 -0.21808383889E-01  0.11480476238E-02  0.17130000216E+03  0.17130000000E+03 0.  1.
      622    1    1    2    0    0 -0.16420332200E-01 -0.12889544368E-01  0.14521804747E+01  0.14528812404E+01  0.40000000000E-01 0.  1.
</event>
<event>
 5   0  0.7212170E+07  0.9118800E+02  0.7818608E-02  0.1180000E+00
       11   -1    0    0    0    0  0.00000000000E+00  0.00000000000E+00  0.39999999673E+01  0.40000000000E+01  0.51109989000E-03 0. -1.
     -623   -1    0    0    0    0  0.00000000000E+00  0.00000000000E+00  0.12525980253E-10  0.17130000000E+03  0.17130000000E+03 0.  1.
       11    1    1    2    0    0 -0.33509827562E-03 -0.88276647808E-03  0.66316778881E-02  0.67180311266E-02  0.51109989000E-03 0. -1.
     -623    1    1    2    0    0  0.42197249023E-04  0.83427408485E-03  0.28667540416E-03  0.17130000000E+03  0.17130000000E+03 0.  1.
      622    1    1    2    0    0  0.29290102659E-03  0.48492393080E-04  0.39930816148E+01  0.39932819673E+01  0.40000000000E-01 0. -1.
</event>
<event>
 5   0  0.7212170E+07  0.9118800E+02  0.7818608E-02  0.1180000E+00
       11   -1    0    0    0    0  0.00000000000E+00  0.00000000000E+00  0.39999999673E+01  0.40000000000E+01  0.51109989000E-03 0.  1.
     -623   -1    0    0    0    0  0.00000000000E+00  0.00000000000E+00  0.12525980253E-10  0.17130000000E+03  0.17130000000E+03 0. -1.
       11    1    1    2    0    0  0.83159806713E-02 -0.23752449044E-02  0.44109461215E-01  0.44952231475E-01  0.51109989000E-03 0.  1.
     -623    1    1    2    0    0 -0.42050874541E-02  0.37800739933E-02  0.10474985390E-02  0.17130000010E+03  0.17130000000E+03 0. -1.
      622    1    1    2    0    0 -0.41108932172E-02 -0.14048290888E-02  0.39548430075E+01  0.39550476719E+01  0.40000000000E-01 0.  0.
</event>
<event>
 5   0  0.7212170E+07  0.9118800E+02  0.7818608E-02  0.1180000E+00
       11   -1    0    0    0    0  0.00000000000E+00  0.00000000000E+00  0.39999999673E+01  0.40000000000E+01  0.51109989000E-03 0. -1.
     -623   -1    0    0    0    0  0.00000000000E+00  0.00000000000E+00  0.12525980253E-10  0.17130000000E+03  0.17130000000E+03 0.  1.
       11    1    1    2    0    0  0.39438448023E-02 -0.91563880047E-04  0.11905720492E-01  0.12552676977E-01  0.51109989000E-03 0. -1.
     -623    1    1    2    0    0 -0.25278400316E-02  0.28947670146E-02  0.84884053923E-03  0.17130000005E+03  0.17130000000E+03 0.  1.
      622    1    1    2    0    0 -0.14160047706E-02 -0.28032031346E-02  0.39872454065E+01  0.39874472779E+01  0.40000000000E-01 0. -1.
</event>
<event>
 5   0  0.7212170E+07  0.9118800E+02  0.7818608E-02  0.1180000E+00
       11   -1    0    0    0    0  0.00000000000E+00  0.00000000000E+00  0.39999999673E+01  0.40000000000E+01  0.51109989000E-03 0. -1.
     -623   -1    0    0    0    0  0.00000000000E+00  0.00000000000E+00  0.12525980253E-10  0.17130000000E+03  0.17130000000E+03 0. -1.
       11    1    1    2    0    0 -0.10485791915E-01 -0.19887767339E-01  0.38657879442E+00  0.38723236001E+00  0.51109989000E-03 0. -1.
     -623    1    1    2    0    0  0.19071072423E-01  0.25962472080E-01  0.89331725885E-03  0.17130000303E+03  0.17130000000E+03 0. -1.
      622    1    1    2    0    0 -0.85852805077E-02 -0.60747047397E-02  0.36125278556E+01  0.36127646085E+01  0.40000000000E-01 0. -1.
</event>
<event>
 5   0  0.7212170E+07  0.9118800E+02  0.7818608E-02  0.1180000E+00
       11   -1    0    0    0    0  0.00000000000E+00  0.00000000000E+00  0.39999999673E+01  0.40000000000E+01  0.51109989000E-03 0. -1.
     -623   -1    0    0    0    0  0.00000000000E+00  0.00000000000E+00  0.12525980253E-10  0.17130000000E+03  0.17130000000E+03 0. -1.
       11    1    1    2    0    0  0.14624861098E-02  0.66776275065E-02  0.55238048209E-01  0.55661771152E-01  0.51109989000E-03 0. -1.
     -623    1    1    2    0    0 -0.53128748417E-02 -0.35468712724E-02  0.62976014861E-03  0.17130000012E+03  0.17130000000E+03 0. -1.
      622    1    1    2    0    0  0.38503887324E-02 -0.31307562337E-02  0.39441321594E+01  0.39443381090E+01  0.40000000000E-01 0. -1.
</event>
<event>
 5   0  0.7212170E+07  0.9118800E+02  0.7818608E-02  0.1180000E+00
       11   -1    0    0    0    0  0.00000000000E+00  0.00000000000E+00  0.39999999673E+01  0.40000000000E+01  0.51109989000E-03 0.  1.
     -623   -1    0    0    0    0  0.00000000000E+00  0.00000000000E+00  0.12525980253E-10  0.17130000000E+03  0.17130000000E+03 0.  1.
       11    1    1    2    0    0  0.99227753266E-03 -0.93998578805E-04  0.21290870451E-02  0.24057608314E-02  0.51109989000E-03 0.  1.
     -623    1    1    2    0    0 -0.74801796735E-03  0.17052635332E-02  0.47710949789E-03  0.17130000001E+03  0.17130000000E+03 0.  1.
      622    1    1    2    0    0 -0.24425956522E-03 -0.16112649546E-02  0.39973937713E+01  0.39975942289E+01  0.40000000000E-01 0.  1.
</event>
<event>
 5   0  0.7212170E+07  0.9118800E+02  0.7818608E-02  0.1180000E+00
       11   -1    0    0    0    0  0.00000000000E+00  0.00000000000E+00  0.39999999673E+01  0.40000000000E+01  0.51109989000E-03 0. -1.
     -623   -1    0    0    0    0  0.00000000000E+00  0.00000000000E+00  0.12525980253E-10  0.17130000000E+03  0.17130000000E+03 0.  1.
       11    1    1    2    0    0 -0.37147493520E-02 -0.31342731183E-02  0.25930274784E-01  0.26386803600E-01  0.51109989000E-03 0. -1.
     -623    1    1    2    0    0 -0.46206791798E-03 -0.64363565284E-03  0.66182382040E-03  0.17130000000E+03  0.17130000000E+03 0.  1.
      622    1    1    2    0    0  0.41768172700E-02  0.37779087712E-02  0.39734078687E+01  0.39736131933E+01  0.40000000000E-01 0. -1.
</event>
<event>
 5   0  0.7212170E+07  0.9118800E+02  0.7818608E-02  0.1180000E+00
       11   -1    0    0    0    0  0.00000000000E+00  0.00000000000E+00  0.39999999673E+01  0.40000000000E+01  0.51109989000E-03 0.  1.
     -623   -1    0    0    0    0  0.00000000000E+00  0.00000000000E+00  0.12525980253E-10  0.17130000000E+03  0.17130000000E+03 0. -1.
       11    1    1    2    0    0 -0.16687892577E-01 -0.25731061116E-02  0.63658762010E-01  0.65862021207E-01  0.51109989000E-03 0.  1.
     -623    1    1    2    0    0 -0.41299068372E-02  0.34846020757E-02  0.24618713075E-02  0.17130000010E+03  0.17130000000E+03 0. -1.
      622    1    1    2    0    0  0.20817799414E-01 -0.91149596419E-03  0.39338793342E+01  0.39341378760E+01  0.40000000000E-01 0.  1.
</event>
<event>
 5   0  0.7212170E+07  0.9118800E+02  0.7818608E-02  0.1180000E+00
       11   -1    0    0    0    0  0.00000000000E+00  0.00000000000E+00  0.39999999673E+01  0.40000000000E+01  0.51109989000E-03 0. -1.
     -623   -1    0    0    0    0  0.00000000000E+00  0.00000000000E+00  0.12525980253E-10  0.17130000000E+03  0.17130000000E+03 0. -1.
       11    1    1    2    0    0 -0.32652537608E-01 -0.10853865726E-01  0.10671644921E+01  0.10677192089E+01  0.51109989000E-03 0. -1.
     -623    1    1    2    0    0  0.25519685272E-01  0.19246169735E-01  0.85119351140E-03  0.17130000298E+03  0.17130000000E+03 0. -1.
      622    1    1    2    0    0  0.71328523361E-02 -0.83923040080E-02  0.29319842817E+01  0.29322778069E+01  0.40000000000E-01 0.  1.
</event>
<event>
 5   0  0.7212170E+07  0.9118800E+02  0.7818608E-02  0.1180000E+00
       11   -1    0    0    0    0  0.00000000000E+00  0.00000000000E+00  0.39999999673E+01  0.40000000000E+01  0.51109989000E-03 0. -1.
     -623   -1    0    0    0    0  0.00000000000E+00  0.00000000000E+00  0.12525980253E-10  0.17130000000E+03  0.17130000000E+03 0.  1.
       11    1    1    2    0    0 -0.75507097697E-02 -0.82587432318E-03  0.13267472253E+00  0.13289295884E+00  0.51109989000E-03 0. -1.
     -623    1    1    2    0    0  0.23598350999E-02  0.11058617068E-02  0.42859676924E-03  0.17130000002E+03  0.17130000000E+03 0.  1.
      622    1    1    2    0    0  0.51908746703E-02 -0.27998738341E-03  0.38668966472E+01  0.38671070199E+01  0.40000000000E-01 0. -1.
</event>
<event>
 5   0  0.7212170E+07  0.9118800E+02  0.7818608E-02  0.1180000E+00
       11   -1    0    0    0    0  0.00000000000E+00  0.00000000000E+00  0.39999999673E+01  0.40000000000E+01  0.51109989000E-03 0. -1.
     -623   -1    0    0    0    0  0.00000000000E+00  0.00000000000E+00  0.12525980253E-10  0.17130000000E+03  0.17130000000E+03 0.  1.
       11    1    1    2    0    0 -0.88920963818E-03 -0.66862886430E-03  0.84073329018E-01  0.84082243272E-01  0.51109989000E-03 0. -1.
     -623    1    1    2    0    0  0.81210910686E-03  0.35619647290E-03  0.21319697713E-03  0.17130000000E+03  0.17130000000E+03 0.  1.
      622    1    1    2    0    0  0.77100531470E-04  0.31243239147E-03  0.39157134406E+01  0.39159177536E+01  0.40000000000E-01 0. -1.
</event>
<event>
 5   0  0.7212170E+07  0.9118800E+02  0.7818608E-02  0.1180000E+00
       11   -1    0    0    0    0  0.00000000000E+00  0.00000000000E+00  0.39999999673E+01  0.40000000000E+01  0.51109989000E-03 0.  1.
     -623   -1    0    0    0    0  0.00000000000E+00  0.00000000000E+00  0.12525980253E-10  0.17130000000E+03  0.17130000000E+03 0. -1.
       11    1    1    2    0    0 -0.90054755544E-01  0.32410448386E-01  0.25553224857E+01  0.25571143039E+01  0.51109989000E-03 0.  1.
     -623    1    1    2    0    0  0.51169046735E-01 -0.83341819915E-03  0.32241257283E-02  0.17130000767E+03  0.17130000000E+03 0. -1.
      622    1    1    2    0    0  0.38885708809E-01 -0.31577030187E-01  0.14414533559E+01  0.14428780214E+01  0.40000000000E-01 0.  0.
</event>
<event>
 5   0  0.7212170E+07  0.9118800E+02  0.7818608E-02  0.1180000E+00
       11   -1    0    0    0    0  0.00000000000E+00  0.00000000000E+00  0.39999999673E+01  0.40000000000E+01  0.51109989000E-03 0.  1.
     -623   -1    0    0    0    0  0.00000000000E+00  0.00000000000E+00  0.12525980253E-10  0.17130000000E+03  0.17130000000E+03 0. -1.
       11    1    1    2    0    0  0.57939140413E-03  0.10303581979E-01  0.65470429290E+00  0.65478582136E+00  0.51109989000E-03 0.  1.
     -623    1    1    2    0    0 -0.51943517974E-03  0.95076752817E-04  0.33681707741E-03  0.17130000000E+03  0.17130000000E+03 0. -1.
      622    1    1    2    0    0 -0.59956224298E-04 -0.10398658732E-01  0.33449588581E+01  0.33452141782E+01  0.40000000000E-01 0.  1.
</event>
<event>
 5   0  0.7212170E+07  0.9118800E+02  0.7818608E-02  0.1180000E+00
       11   -1    0    0    0    0  0.00000000000E+00  0.00000000000E+00  0.39999999673E+01  0.40000000000E+01  0.51109989000E-03 0.  1.
     -623   -1    0    0    0    0  0.00000000000E+00  0.00000000000E+00  0.12525980253E-10  0.17130000000E+03  0.17130000000E+03 0. -1.
       11    1    1    2    0    0 -0.13137950371E-01 -0.66166487378E-02  0.11311764903E+00  0.11407124759E+00  0.51109989000E-03 0.  1.
     -623    1    1    2    0    0 -0.58911097563E-02 -0.98059160903E-02  0.12411280551E-02  0.17130000039E+03  0.17130000000E+03 0. -1.
      622    1    1    2    0    0  0.19029060127E-01  0.16422564828E-01  0.38856411904E+01  0.38859283661E+01  0.40000000000E-01 0.  1.
</event>
<event>
 5   0  0.7212170E+07  0.9118800E+02  0.7818608E-02  0.1180000E+00
       11   -1    0    0    0    0  0.00000000000E+00  0.00000000000E+00  0.39999999673E+01  0.40000000000E+01  0.51109989000E-03 0.  1.
     -623   -1    0    0    0    0  0.00000000000E+00  0.00000000000E+00  0.12525980253E-10  0.17130000000E+03  0.17130000000E+03 0.  1.
       11    1    1    2    0    0 -0.20480872279E-03 -0.10282458023E-02  0.38725185252E-01  0.38742746830E-01  0.51109989000E-03 0.  1.
     -623    1    1    2    0    0 -0.19196272060E-01  0.12043335183E-01  0.28381842441E-03  0.17130000150E+03  0.17130000000E+03 0.  1.
      622    1    1    2    0    0  0.19401080782E-01 -0.11015089381E-01  0.39609909635E+01  0.39612557538E+01  0.40000000000E-01 0.  1.
</event>
<event>
 5   0  0.7212170E+07  0.9118800E+02  0.7818608E-02  0.1180000E+00
       11   -1    0    0    0    0  0.00000000000E+00  0.00000000000E+00  0.39999999673E+01  0.40000000000E+01  0.51109989000E-03 0. -1.
     -623   -1    0    0    0    0  0.00000000000E+00  0.00000000000E+00  0.12525980253E-10  0.17130000000E+03  0.17130000000E+03 0. -1.
       11    1    1    2    0    0  0.71487450138E-04  0.16241086310E-03  0.15040513632E-02  0.15983996199E-02  0.51109989000E-03 0.  1.
     -623    1    1    2    0    0  0.82708753668E-04 -0.27538651771E-03  0.29440563858E-03  0.17130000000E+03  0.17130000000E+03 0. -1.
      622    1    1    2    0    0 -0.15419620381E-03  0.11297565461E-03  0.39982015104E+01  0.39984015999E+01  0.40000000000E-01 0. -1.
</event>
<event>
 5   0  0.7212170E+07  0.9118800E+02  0.7818608E-02  0.1180000E+00
       11   -1    0    0    0    0  0.00000000000E+00  0.00000000000E+00  0.39999999673E+01  0.40000000000E+01  0.51109989000E-03 0.  1.
     -623   -1    0    0    0    0  0.00000000000E+00  0.00000000000E+00  0.12525980253E-10  0.17130000000E+03  0.17130000000E+03 0. -1.
       11    1    1    2    0    0 -0.12241552241E-01 -0.18120900314E-01  0.24689885579E+01  0.24690854547E+01  0.51109989000E-03 0.  1.
     -623    1    1    2    0    0  0.54158037630E-02  0.35263041820E-02  0.70445526408E-03  0.17130000012E+03  0.17130000000E+03 0. -1.
      622    1    1    2    0    0  0.68257484781E-02  0.14594596132E-01  0.15303069541E+01  0.15309144218E+01  0.40000000000E-01 0.  0.
</event>
<event>
 5   0  0.7212170E+07  0.9118800E+02  0.7818608E-02  0.1180000E+00
       11   -1    0    0    0    0  0.00000000000E+00  0.00000000000E+00  0.39999999673E+01  0.40000000000E+01  0.51109989000E-03 0.  1.
     -623   -1    0    0    0    0  0.00000000000E+00  0.00000000000E+00  0.12525980253E-10  0.17130000000E+03  0.17130000000E+03 0. -1.
       11    1    1    2    0    0 -0.41177039766E-02 -0.98391446060E-02  0.78646423695E+00  0.78653672608E+00  0.51109989000E-03 0.  1.
     -623    1    1    2    0    0  0.16926781417E-02  0.80083346321E-02  0.32305126826E-03  0.17130000020E+03  0.17130000000E+03 0. -1.
      622    1    1    2    0    0  0.24250258350E-02  0.18308099744E-02  0.32132126789E+01  0.32134630778E+01  0.40000000000E-01 0.  1.
</event>
<event>
 5   0  0.7212170E+07  0.9118800E+02  0.7818608E-02  0.1180000E+00
       11   -1    0    0    0    0  0.00000000000E+00  0.00000000000E+00  0.39999999673E+01  0.40000000000E+01  0.51109989000E-03 0.  1.
     -623   -1    0    0    0    0  0.00000000000E+00  0.00000000000E+00  0.12525980253E-10  0.17130000000E+03  0.17130000000E+03 0.  1.
       11    1    1    2    0    0  0.80338725943E-02  0.99070625650E-02  0.94772742549E+00  0.94781339263E+00  0.51109989000E-03 0.  1.
     -623    1    1    2    0    0 -0.23385793021E-02  0.15774393584E-02  0.37499906493E-03  0.17130000002E+03  0.17130000000E+03 0.  1.
      622    1    1    2    0    0 -0.56952932925E-02 -0.11484501923E-01  0.30518975423E+01  0.30521865832E+01  0.40000000000E-01 0.  1.
</event>
<event>
 5   0  0.7212170E+07  0.9118800E+02  0.7818608E-02  0.1180000E+00
       11   -1    0    0    0    0  0.00000000000E+00  0.00000000000E+00  0.39999999673E+01  0.40000000000E+01  0.51109989000E-03 0. -1.
     -623   -1    0    0    0    0  0.00000000000E+00  0.00000000000E+00  0.12525980253E-10  0.17130000000E+03  0.17130000000E+03 0.  1.
       11    1    1    2    0    0  0.51695618451E-03  0.30694117435E-03  0.59340197183E-02  0.59862567349E-02  0.51109989000E-03 0. -1.
     -623    1    1    2    0    0 -0.20023670441E-03  0.15272971885E-03  0.25254854331E-03  0.17130000000E+03  0.17130000000E+03 0.  1.
      622    1    1    2    0    0 -0.31671948007E-03 -0.45967089322E-03  0.39938133998E+01  0.39940137436E+01  0.40000000000E-01 0. -1.
</event>
<event>
 5   0  0.7212170E+07  0.9118800E+02  0.7818608E-02  0.1180000E+00
       11   -1    0    0    0    0  0.00000000000E+00  0.00000000000E+00  0.39999999673E+01  0.40000000000E+01  0.51109989000E-03 0. -1.
     -623   -1    0    0    0    0  0.00000000000E+00  0.00000000000E+00  0.12525980253E-10  0.17130000000E+03  0.17130000000E+03 0.  1.
       11    1    1    2    0    0  0.20412447028E-01  0.92417985521E-02  0.44847078473E+00  0.44903049431E+00  0.51109989000E-03 0. -1.
     -623    1    1    2    0    0  0.72996039304E-02 -0.10015161428E-01  0.89365160472E-03  0.17130000045E+03  0.17130000000E+03 0.  1.
      622    1    1    2    0    0 -0.27712050958E-01  0.77336287508E-03  0.35506355308E+01  0.35509690548E+01  0.40000000000E-01 0. -1.
</event>
<event>
 5   0  0.7212170E+07  0.9118800E+02  0.7818608E-02  0.1180000E+00
       11   -1    0    0    0    0  0.00000000000E+00  0.00000000000E+00  0.39999999673E+01  0.40000000000E+01  0.51109989000E-03 0.  1.
     -623   -1    0    0    0    0  0.00000000000E+00  0.00000000000E+00  0.12525980253E-10  0.17130000000E+03  0.17130000000E+03 0. -1.
       11    1    1    2    0    0  0.18069922139E-01 -0.52289498615E-01  0.20915236729E+01  0.20922553022E+01  0.51109989000E-03 0.  1.
     -623    1    1    2    0    0 -0.52170308997E-02 -0.74152059607E-02  0.21292594916E-02  0.17130000025E+03  0.17130000000E+03 0. -1.
      622    1    1    2    0    0 -0.12852891239E-01  0.59704704577E-01  0.19063470351E+01  0.19077444448E+01  0.40000000000E-01 0.  1.
</event>
<event>
 5   0  0.7212170E+07  0.9118800E+02  0.7818608E-02  0.1180000E+00
       11   -1    0    0    0    0  0.00000000000E+00  0.00000000000E+00  0.39999999673E+01  0.40000000000E+01  0.51109989000E-03 0.  1.
     -623   -1    0    0    0    0  0.00000000000E+00  0.00000000000E+00  0.12525980253E-10  0.17130000000E+03  0.17130000000E+03 0. -1.
       11    1    1    2    0    0  0.10630444170E-01  0.11184883645E-01  0.21517249336E+01  0.21517803232E+01  0.51109989000E-03 0.  1.
     -623    1    1    2    0    0 -0.82408965627E-03 -0.19198363770E-02  0.53752046947E-03  0.17130000001E+03  0.17130000000E+03 0. -1.
      622    1    1    2    0    0 -0.98063545139E-02 -0.92650472684E-02  0.18477375133E+01  0.18482196633E+01  0.40000000000E-01 0.  0.
</event>
<event>
 5   0  0.7212170E+07  0.9118800E+02  0.7818608E-02  0.1180000E+00
       11   -1    0    0    0    0  0.00000000000E+00  0.00000000000E+00  0.39999999673E+01  0.40000000000E+01  0.51109989000E-03 0.  1.
     -623   -1    0    0    0    0  0.00000000000E+00  0.00000000000E+00  0.12525980253E-10  0.17130000000E+03  0.17130000000E+03 0.  1.
       11    1    1    2    0    0  0.60380589232E-02 -0.30971459318E-02  0.53002132522E-01  0.53437231809E-01  0.51109989000E-03 0.  1.
     -623    1    1    2    0    0 -0.97540374191E-02 -0.86699029108E-02  0.65757104247E-03  0.17130000050E+03  0.17130000000E+03 0.  1.
      622    1    1    2    0    0  0.37159784965E-02  0.11767048843E-01  0.39463402641E+01  0.39465622701E+01  0.40000000000E-01 0.  1.
</event>
<event>
 5   0  0.7212170E+07  0.9118800E+02  0.7818608E-02  0.1180000E+00
       11   -1    0    0    0    0  0.00000000000E+00  0.00000000000E+00  0.39999999673E+01  0.40000000000E+01  0.51109989000E-03 0. -1.
     -623   -1    0    0    0    0  0.00000000000E+00  0.00000000000E+00  0.12525980253E-10  0.17130000000E+03  0.17130000000E+03 0.  1.
       11    1    1    2    0    0  0.16011663974E-01 -0.96282659723E-02  0.21317123614E+01  0.21317942982E+01  0.51109989000E-03 0. -1.
     -623    1    1    2    0    0 -0.38257043509E-01  0.33984506082E-01  0.80911992795E-03  0.17130000765E+03  0.17130000000E+03 0.  1.
      622    1    1    2    0    0  0.22245379539E-01 -0.24356240113E-01  0.18674784864E+01  0.18681980571E+01  0.40000000000E-01 0.  0.
</event>
<event>
 5   0  0.7212170E+07  0.9118800E+02  0.7818608E-02  0.1180000E+00
       11   -1    0    0    0    0  0.00000000000E+00  0.00000000000E+00  0.39999999673E+01  0.40000000000E+01  0.51109989000E-03 0.  1.
     -623   -1    0    0    0    0  0.00000000000E+00  0.00000000000E+00  0.12525980253E-10  0.17130000000E+03  0.17130000000E+03 0. -1.
       11    1    1    2    0    0 -0.16405076428E-03  0.51529127263E-01  0.54504493880E+00  0.54747559252E+00  0.51109989000E-03 0.  1.
     -623    1    1    2    0    0 -0.18488951428E-01 -0.25056208764E-01  0.28170922706E-02  0.17130000285E+03  0.17130000000E+03 0. -1.
      622    1    1    2    0    0  0.18653002193E-01 -0.26472918499E-01  0.34521379363E+01  0.34525215541E+01  0.40000000000E-01 0.  1.
</event>
<event>
 5   0  0.7212170E+07  0.9118800E+02  0.7818608E-02  0.1180000E+00
       11   -1    0    0    0    0  0.00000000000E+00  0.00000000000E+00  0.39999999673E+01  0.40000000000E+01  0.51109989000E-03 0.  1.
     -623   -1    0    0    0    0  0.00000000000E+00  0.00000000000E+00  0.12525980253E-10  0.17130000000E+03  0.17130000000E+03 0. -1.
       11    1    1    2    0    0  0.15758986930E-01 -0.43336521207E-01  0.13023313157E+01  0.13031475422E+01  0.51109989000E-03 0.  1.
     -623    1    1    2    0    0 -0.24038793548E-01  0.47188031708E-01  0.11365054151E-02  0.17130000819E+03  0.17130000000E+03 0. -1.
      622    1    1    2    0    0  0.82798066174E-02 -0.38515105010E-02  0.26965321463E+01  0.26968442679E+01  0.40000000000E-01 0.  1.
</event>
<event>
 5   0  0.7212170E+07  0.9118800E+02  0.7818608E-02  0.1180000E+00
       11   -1    0    0    0    0  0.00000000000E+00  0.00000000000E+00  0.39999999673E+01  0.40000000000E+01  0.51109989000E-03 0.  1.
     -623   -1    0    0    0    0  0.00000000000E+00  0.00000000000E+00  0.12525980253E-10  0.17130000000E+03  0.17130000000E+03 0. -1.
       11    1    1    2    0    0  0.11173531963E-02 -0.63503017007E-03  0.85026892538E-02  0.86144465363E-02  0.51109989000E-03 0. -1.
     -623    1    1    2    0    0  0.14374973228E-02  0.35330122846E-03  0.31299566222E-03  0.17130000001E+03  0.17130000000E+03 0. -1.
      622    1    1    2    0    0 -0.25548505190E-02  0.28172894163E-03  0.39911842823E+01  0.39913855466E+01  0.40000000000E-01 0.  1.
</event>
<event>
 5   0  0.7212170E+07  0.9118800E+02  0.7818608E-02  0.1180000E+00
       11   -1    0    0    0    0  0.00000000000E+00  0.00000000000E+00  0.39999999673E+01  0.40000000000E+01  0.51109989000E-03 0. -1.
     -623   -1    0    0    0    0  0.00000000000E+00  0.00000000000E+00  0.12525980253E-10  0.17130000000E+03  0.17130000000E+03 0. -1.
       11    1    1    2    0    0 -0.25826964936E-02  0.54244994724E-04  0.11060747866E-01  0.11369900182E-01  0.51109989000E-03 0. -1.
     -623    1    1    2    0    0  0.12548206522E-02 -0.27038888374E-03  0.50992730597E-03  0.17130000001E+03  0.17130000000E+03 0. -1.
      622    1    1    2    0    0  0.13278758410E-02  0.21614388909E-03  0.39884292932E+01  0.39886300953E+01  0.40000000000E-01 0. -1.
</event>
<event>
 5   0  0.7212170E+07  0.9118800E+02  0.7818608E-02  0.1180000E+00
       11   -1    0    0    0    0  0.00000000000E+00  0.00000000000E+00  0.39999999673E+01  0.40000000000E+01  0.51109989000E-03 0. -1.
     -623   -1    0    0    0    0  0.00000000000E+00  0.00000000000E+00  0.12525980253E-10  0.17130000000E+03  0.17130000000E+03 0.  1.
       11    1    1    2    0    0  0.78078362784E-02  0.14779076233E-02  0.62185509647E+00  0.62190607711E+00  0.51109989000E-03 0. -1.
     -623    1    1    2    0    0 -0.91026669218E-02 -0.22255345592E-02  0.28836372191E-03  0.17130000026E+03  0.17130000000E+03 0.  1.
      622    1    1    2    0    0  0.12948306444E-02  0.74762693618E-03  0.33778565076E+01  0.33780936667E+01  0.40000000000E-01 0. -1.
</event>
<event>
 5   0  0.7212170E+07  0.9118800E+02  0.7818608E-02  0.1180000E+00
       11   -1    0    0    0    0  0.00000000000E+00  0.00000000000E+00  0.39999999673E+01  0.40000000000E+01  0.51109989000E-03 0. -1.
     -623   -1    0    0    0    0  0.00000000000E+00  0.00000000000E+00  0.12525980253E-10  0.17130000000E+03  0.17130000000E+03 0.  1.
       11    1    1    2    0    0 -0.21233739839E-02 -0.56494809277E-02  0.11524810885E+01  0.11524970048E+01  0.51109989000E-03 0. -1.
     -623    1    1    2    0    0  0.13602600502E-03  0.33440174508E-03  0.30250058227E-03  0.17130000000E+03  0.17130000000E+03 0.  1.
      622    1    1    2    0    0  0.19873479788E-02  0.53150791826E-02  0.28472163784E+01  0.28475029947E+01  0.40000000000E-01 0. -1.
</event>
<event>
 5   0  0.7212170E+07  0.9118800E+02  0.7818608E-02  0.1180000E+00
       11   -1    0    0    0    0  0.00000000000E+00  0.00000000000E+00  0.39999999673E+01  0.40000000000E+01  0.51109989000E-03 0.  1.
     -623   -1    0    0    0    0  0.00000000000E+00  0.00000000000E+00  0.12525980253E-10  0.17130000000E+03  0.17130000000E+03 0. -1.
       11    1    1    2    0    0  0.13094946176E-01  0.84685086847E-01  0.23745502062E+01  0.23760959545E+01  0.51109989000E-03 0.  1.
     -623    1    1    2    0    0 -0.23092691734E-02 -0.76074995298E-02  0.39053367823E-02  0.17130000023E+03  0.17130000000E+03 0. -1.
      622    1    1    2    0    0 -0.10785677002E-01 -0.77077587317E-01  0.16215444244E+01  0.16239038166E+01  0.40000000000E-01 0.  1.
</event>
<event>
 5   0  0.7212170E+07  0.9118800E+02  0.7818608E-02  0.1180000E+00
       11   -1    0    0    0    0  0.00000000000E+00  0.00000000000E+00  0.39999999673E+01  0.40000000000E+01  0.51109989000E-03 0.  1.
     -623   -1    0    0    0    0  0.00000000000E+00  0.00000000000E+00  0.12525980253E-10  0.17130000000E+03  0.17130000000E+03 0. -1.
       11    1    1    2    0    0 -0.49442556085E-02  0.39045037989E-03  0.86266953375E-01  0.86410917034E-01  0.51109989000E-03 0.  1.
     -623    1    1    2    0    0  0.50869810546E-02 -0.24892744435E-02  0.34901170254E-03  0.17130000009E+03  0.17130000000E+03 0. -1.
      622    1    1    2    0    0 -0.14272544617E-03  0.20988240637E-02  0.39133840023E+01  0.39135889890E+01  0.40000000000E-01 0.  1.
</event>
<event>
 5   0  0.7212170E+07  0.9118800E+02  0.7818608E-02  0.1180000E+00
       11   -1    0    0    0    0  0.00000000000E+00  0.00000000000E+00  0.39999999673E+01  0.40000000000E+01  0.51109989000E-03 0.  1.
     -623   -1    0    0    0    0  0.00000000000E+00  0.00000000000E+00  0.12525980253E-10  0.17130000000E+03  0.17130000000E+03 0.  1.
       11    1    1    2    0    0  0.13764434004E-01  0.28817574468E-02  0.22724822762E+00  0.22768351356E+00  0.51109989000E-03 0.  1.
     -623    1    1    2    0    0  0.71668415843E-02  0.17059225891E-02  0.70835418888E-03  0.17130000016E+03  0.17130000000E+03 0.  1.
      622    1    1    2    0    0 -0.20931275588E-01 -0.45876800360E-02  0.37720433858E+01  0.37723163268E+01  0.40000000000E-01 0.  1.
</event>
<event>
 5   0  0.7212170E+07  0.9118800E+02  0.7818608E-02  0.1180000E+00
       11   -1    0    0    0    0  0.00000000000E+00  0.00000000000E+00  0.39999999673E+01  0.40000000000E+01  0.51109989000E-03 0.  1.
     -623   -1    0    0    0    0  0.00000000000E+00  0.00000000000E+00  0.12525980253E-10  0.17130000000E+03  0.17130000000E+03 0. -1.
       11    1    1    2    0    0 -0.15121063510E-02 -0.24152598513E-02  0.48453176602E+00  0.48454041468E+00  0.51109989000E-03 0.  1.
     -623    1    1    2    0    0 -0.20934693883E-02 -0.22378990408E-02  0.24114607141E-03  0.17130000003E+03  0.17130000000E+03 0. -1.
      622    1    1    2    0    0  0.36055757396E-02  0.46531588926E-02  0.35152270560E+01  0.35154595585E+01  0.40000000000E-01 0.  0.
</event>
<event>
 5   0  0.7212170E+07  0.9118800E+02  0.7818608E-02  0.1180000E+00
       11   -1    0    0    0    0  0.00000000000E+00  0.00000000000E+00  0.39999999673E+01  0.40000000000E+01  0.51109989000E-03 0.  1.
     -623   -1    0    0    0    0  0.00000000000E+00  0.00000000000E+00  0.12525980253E-10  0.17130000000E+03  0.17130000000E+03 0.  1.
       11    1    1    2    0    0 -0.75430269350E-03 -0.12497311637E-02  0.13014472860E-01  0.13106049269E-01  0.51109989000E-03 0.  1.
     -623    1    1    2    0    0 -0.31687123545E-03  0.18895476750E-03  0.29249195364E-03  0.17130000000E+03  0.17130000000E+03 0.  1.
      622    1    1    2    0    0  0.10711739289E-02  0.10607763962E-02  0.39866930019E+01  0.39868939494E+01  0.40000000000E-01 0.  1.
</event>
<event>
 5   0  0.7212170E+07  0.9118800E+02  0.7818608E-02  0.1180000E+00
       11   -1    0    0    0    0  0.00000000000E+00  0.00000000000E+00  0.39999999673E+01  0.40000000000E+01  0.51109989000E-03 0. -1.
     -623   -1    0    0    0    0  0.00000000000E+00  0.00000000000E+00  0.12525980253E-10  0.17130000000E+03  0.17130000000E+03 0. -1.
       11    1    1    2    0    0 -0.60869400493E-03  0.94330263896E-02  0.11528603782E+00  0.11567404305E+00  0.51109989000E-03 0. -1.
     -623    1    1    2    0    0 -0.13482154921E-01  0.24212322458E-02  0.63813206552E-03  0.17130000055E+03  0.17130000000E+03 0. -1.
      622    1    1    2    0    0  0.14090848929E-01 -0.11854258636E-01  0.38840757983E+01  0.38843254089E+01  0.40000000000E-01 0. -1.
</event>
<event>
 5   0  0.7212170E+07  0.9118800E+02  0.7818608E-02  0.1180000E+00
       11   -1    0    0    0    0  0.00000000000E+00  0.00000000000E+00  0.39999999673E+01  0.40000000000E+01  0.51109989000E-03 0. -1.
     -623   -1    0    0    0    0  0.00000000000E+00  0.00000000000E+00  0.12525980253E-10  0.17130000000E+03  0.17130000000E+03 0.  1.
       11    1    1    2    0    0 -0.78518146228E-03 -0.18676515317E-01  0.23349515345E+01  0.23350264150E+01  0.51109989000E-03 0. -1.
     -623    1    1    2    0    0  0.26116475813E-01  0.45856645644E-01  0.97826380079E-03  0.17130000813E+03  0.17130000000E+03 0.  1.
      622    1    1    2    0    0 -0.25331294351E-01 -0.27180130329E-01  0.16640701691E+01  0.16649654536E+01  0.40000000000E-01 0.  0.
</event>
<event>
 5   0  0.7212170E+07  0.9118800E+02  0.7818608E-02  0.1180000E+00
       11   -1    0    0    0    0  0.00000000000E+00  0.00000000000E+00  0.39999999673E+01  0.40000000000E+01  0.51109989000E-03 0.  1.
     -623   -1    0    0    0    0  0.00000000000E+00  0.00000000000E+00  0.12525980253E-10  0.17130000000E+03  0.17130000000E+03 0. -1.
       11    1    1    2    0    0 -0.36381632785E-02 -0.90488236897E-02  0.14150698861E+00  0.14184359870E+00  0.51109989000E-03 0.  1.
     -623    1    1    2    0    0 -0.69357159556E-03  0.22116259603E-02  0.55244293853E-03  0.17130000002E+03  0.17130000000E+03 0. -1.
      622    1    1    2    0    0  0.43317348740E-02  0.68371977294E-02  0.38579405358E+01  0.38581563847E+01  0.40000000000E-01 0.  1.
</event>
<event>
 5   0  0.7212170E+07  0.9118800E+02  0.7818608E-02  0.1180000E+00
       11   -1    0    0    0    0  0.00000000000E+00  0.00000000000E+00  0.39999999673E+01  0.40000000000E+01  0.51109989000E-03 0.  1.
     -623   -1    0    0    0    0  0.00000000000E+00  0.00000000000E+00  0.12525980253E-10  0.17130000000E+03  0.17130000000E+03 0. -1.
       11    1    1    2    0    0 -0.71309741764E-04 -0.29545749140E-03  0.32891948889E-02  0.33425149698E-02  0.51109989000E-03 0.  1.
     -623    1    1    2    0    0 -0.51800034924E-03 -0.88603983663E-04  0.25352261635E-03  0.17130000000E+03  0.17130000000E+03 0. -1.
      622    1    1    2    0    0  0.58931009105E-03  0.38406147507E-03  0.39964572502E+01  0.39966574844E+01  0.40000000000E-01 0.  1.
</event>
<event>
 5   0  0.7212170E+07  0.9118800E+02  0.7818608E-02  0.1180000E+00
       11   -1    0    0    0    0  0.00000000000E+00  0.00000000000E+00  0.39999999673E+01  0.40000000000E+01  0.51109989000E-03 0. -1.
     -623   -1    0    0    0    0  0.00000000000E+00  0.00000000000E+00  0.12525980253E-10  0.17130000000E+03  0.17130000000E+03 0. -1.
       11    1    1    2    0    0 -0.20256363575E-03  0.24121259463E-03  0.15674101882E-01  0.15685595572E-01  0.51109989000E-03 0. -1.
     -623    1    1    2    0    0  0.10206718120E-03 -0.26233224040E-03  0.21225516308E-03  0.17130000000E+03  0.17130000000E+03 0. -1.
      622    1    1    2    0    0  0.10049645457E-03  0.21119645718E-04  0.39841136095E+01  0.39843144033E+01  0.40000000000E-01 0. -1.
</event>
<event>
 5   0  0.7212170E+07  0.9118800E+02  0.7818608E-02  0.1180000E+00
       11   -1    0    0    0    0  0.00000000000E+00  0.00000000000E+00  0.39999999673E+01  0.40000000000E+01  0.51109989000E-03 0. -1.
     -623   -1    0    0    0    0  0.00000000000E+00  0.00000000000E+00  0.12525980253E-10  0.17130000000E+03  0.17130000000E+03 0. -1.
       11    1    1    2    0    0 -0.13745484737E-02  0.67215075076E-03  0.10595838298E-01  0.10717937417E-01  0.51109989000E-03 0. -1.
     -623    1    1    2    0    0  0.33099102761E-03 -0.72368491772E-03  0.32274784050E-03  0.17130000000E+03  0.17130000000E+03 0. -1.
      622    1    1    2    0    0  0.10435574460E-02  0.51534167257E-04  0.39890813829E+01  0.39892820621E+01  0.40000000000E-01 0. -1.
</event>
<event>
 5   0  0.7212170E+07  0.9118800E+02  0.7818608E-02  0.1180000E+00
       11   -1    0    0    0    0  0.00000000000E+00  0.00000000000E+00  0.39999999673E+01  0.40000000000E+01  0.51109989000E-03 0.  1.
     -623   -1    0    0    0    0  0.00000000000E+00  0.00000000000E+00  0.12525980253E-10  0.17130000000E+03  0.17130000000E+03 0.  1.
       11    1    1    2    0    0 -0.12206318574E-02  0.37423143505E-03  0.18159731008E-01  0.18211728218E-01  0.51109989000E-03 0.  1.
     -623    1    1    2    0    0  0.31936332539E-03  0.35528317569E-03  0.25305407996E-03  0.17130000000E+03  0.17130000000E+03 0.  1.
      622    1    1    2    0    0  0.90126853201E-03 -0.72951461069E-03  0.39815871818E+01  0.39817882704E+01  0.40000000000E-01 0.  1.
</event>
<event>
 5   0  0.7212170E+07  0.9118800E+02  0.7818608E-02  0.1180000E+00
       11   -1    0    0    0    0  0.00000000000E+00  0.00000000000E+00  0.39999999673E+01  0.40000000000E+01  0.51109989000E-03 0.  1.
     -623   -1    0    0    0    0  0.00000000000E+00  0.00000000000E+00  0.12525980253E-10  0.17130000000E+03  0.17130000000E+03 0. -1.
       11    1    1    2    0    0  0.74615387022E-02  0.39957096777E-02  0.88047697141E-01  0.88455064584E-01  0.51109989000E-03 0.  1.
     -623    1    1    2    0    0 -0.44617640080E-02 -0.26892699498E-01  0.68220392249E-03  0.17130000217E+03  0.17130000000E+03 0. -1.
      622    1    1    2    0    0 -0.29997746948E-02  0.22896989816E-01  0.39112700658E+01  0.39115427644E+01  0.40000000000E-01 0.  1.
</event>
<event>
 5   0  0.7212170E+07  0.9118800E+02  0.7818608E-02  0.1180000E+00
       11   -1    0    0    0    0  0.00000000000E+00  0.00000000000E+00  0.39999999673E+01  0.40000000000E+01  0.51109989000E-03 0.  1.
     -623   -1    0    0    0    0  0.00000000000E+00  0.00000000000E+00  0.12525980253E-10  0.17130000000E+03  0.17130000000E+03 0. -1.
       11    1    1    2    0    0 -0.19715918534E-02 -0.95206146809E-03  0.10241215439E-01  0.10485099534E-01  0.51109989000E-03 0.  1.
     -623    1    1    2    0    0  0.93717940413E-02  0.14205849247E-03  0.45158510836E-03  0.17130000026E+03  0.17130000000E+03 0. -1.
      622    1    1    2    0    0 -0.74002021887E-02  0.81000297560E-03  0.39893071672E+01  0.39895146438E+01  0.40000000000E-01 0.  1.
</event>
<event>
 5   0  0.7212170E+07  0.9118800E+02  0.7818608E-02  0.1180000E+00
       11   -1    0    0    0    0  0.00000000000E+00  0.00000000000E+00  0.39999999673E+01  0.40000000000E+01  0.51109989000E-03 0.  1.
     -623   -1    0    0    0    0  0.00000000000E+00  0.00000000000E+00  0.12525980253E-10  0.17130000000E+03  0.17130000000E+03 0.  1.
       11    1    1    2    0    0 -0.34376458793E-01 -0.25101666319E-02  0.42934767810E+00  0.43072930219E+00  0.51109989000E-03 0.  1.
     -623    1    1    2    0    0  0.65741477515E-02  0.39645136068E-03  0.17147845052E-02  0.17130000014E+03  0.17130000000E+03 0.  1.
      622    1    1    2    0    0  0.27802311041E-01  0.21137152712E-02  0.35689375047E+01  0.35692705626E+01  0.40000000000E-01 0.  1.
</event>
<event>
 5   0  0.7212170E+07  0.9118800E+02  0.7818608E-02  0.1180000E+00
       11   -1    0    0    0    0  0.00000000000E+00  0.00000000000E+00  0.39999999673E+01  0.40000000000E+01  0.51109989000E-03 0.  1.
     -623   -1    0    0    0    0  0.00000000000E+00  0.00000000000E+00  0.12525980253E-10  0.17130000000E+03  0.17130000000E+03 0. -1.
       11    1    1    2    0    0 -0.28177434623E-03 -0.35142973182E-03  0.88542874077E-03  0.11171869992E-02  0.51109989000E-03 0.  1.
     -623    1    1    2    0    0  0.28855833712E-03  0.33163260978E-03  0.43178766066E-03  0.17130000000E+03  0.17130000000E+03 0. -1.
      622    1    1    2    0    0 -0.67839909323E-05  0.19797121987E-04  0.39986827516E+01  0.39988828126E+01  0.40000000000E-01 0.  1.
</event>
<event>
 5   0  0.7212170E+07  0.9118800E+02  0.7818608E-02  0.1180000E+00
       11   -1    0    0    0    0  0.00000000000E+00  0.00000000000E+00  0.39999999673E+01  0.40000000000E+01  0.51109989000E-03 0. -1.
     -623   -1    0    0    0    0  0.00000000000E+00  0.00000000000E+00  0.12525980253E-10  0.17130000000E+03  0.17130000000E+03 0. -1.
       11    1    1    2    0    0 -0.56196919094E-03  0.28275387502E-02  0.39689261211E-01  0.39797103705E-01  0.51109989000E-03 0. -1.
     -623    1    1    2    0    0 -0.16493640336E-02 -0.19318320760E-02  0.31056269721E-03  0.17130000002E+03  0.17130000000E+03 0. -1.
      622    1    1    2    0    0  0.22113332247E-02 -0.89570667401E-03  0.39600001438E+01  0.39602028775E+01  0.40000000000E-01 0. -1.
</event>
<event>
 5   0  0.7212170E+07  0.9118800E+02  0.7818608E-02  0.1180000E+00
       11   -1    0    0    0    0  0.00000000000E+00  0.00000000000E+00  0.39999999673E+01  0.40000000000E+01  0.51109989000E-03 0. -1.
     -623   -1    0    0    0    0  0.00000000000E+00  0.00000000000E+00  0.12525980253E-10  0.17130000000E+03  0.17130000000E+03 0.  1.
       11    1    1    2    0    0  0.13416608628E-02 -0.41090910794E-03  0.57024684570E+00  0.57024880110E+00  0.51109989000E-03 0. -1.
     -623    1    1    2    0    0 -0.17331685329E-04 -0.58003522078E-03  0.23558376972E-03  0.17130000000E+03  0.17130000000E+03 0.  1.
      622    1    1    2    0    0 -0.13243291775E-02  0.99094432881E-03  0.34295175385E+01  0.34297511984E+01  0.40000000000E-01 0. -1.
</event>
<event>
 5   0  0.7212170E+07  0.9118800E+02  0.7818608E-02  0.1180000E+00
       11   -1    0    0    0    0  0.00000000000E+00  0.00000000000E+00  0.39999999673E+01  0.40000000000E+01  0.51109989000E-03 0. -1.
     -623   -1    0    0    0    0  0.00000000000E+00  0.00000000000E+00  0.12525980253E-10  0.17130000000E+03  0.17130000000E+03 0. -1.
       11    1    1    2    0    0 -0.64081628381E-03  0.29545347714E-02  0.12293485169E-01  0.12670079792E-01  0.51109989000E-03 0. -1.
     -623    1    1    2    0    0  0.20136588488E-02 -0.72665939722E-03  0.57807567928E-03  0.17130000001E+03  0.17130000000E+03 0. -1.
      622    1    1    2    0    0 -0.13728425651E-02 -0.22278753742E-02  0.39871284067E+01  0.39873299061E+01  0.40000000000E-01 0. -1.
</event>
<event>
 5   0  0.7212170E+07  0.9118800E+02  0.7818608E-02  0.1180000E+00
       11   -1    0    0    0    0  0.00000000000E+00  0.00000000000E+00  0.39999999673E+01  0.40000000000E+01  0.51109989000E-03 0.  1.
     -623   -1    0    0    0    0  0.00000000000E+00  0.00000000000E+00  0.12525980253E-10  0.17130000000E+03  0.17130000000E+03 0.  1.
       11    1    1    2    0    0 -0.62451925449E-02 -0.13918755686E-01  0.56528245362E+00  0.56548850367E+00  0.51109989000E-03 0.  1.
     -623    1    1    2    0    0  0.40808253212E-02 -0.10858269052E-02  0.47246796468E-03  0.17130000005E+03  0.17130000000E+03 0.  1.
      622    1    1    2    0    0  0.21643672229E-02  0.15004582591E-01  0.34342450466E+01  0.34345114445E+01  0.40000000000E-01 0.  1.
</event>
<event>
 5   0  0.7212170E+07  0.9118800E+02  0.7818608E-02  0.1180000E+00
       11   -1    0    0    0    0  0.00000000000E+00  0.00000000000E+00  0.39999999673E+01  0.40000000000E+01  0.51109989000E-03 0.  1.
     -623   -1    0    0    0    0  0.00000000000E+00  0.00000000000E+00  0.12525980253E-10  0.17130000000E+03  0.17130000000E+03 0. -1.
       11    1    1    2    0    0 -0.84846277857E-02 -0.11493745554E-01  0.25692477660E+00  0.25732216607E+00  0.51109989000E-03 0.  1.
     -623    1    1    2    0    0 -0.19775611688E-01  0.12808390622E-01  0.71966796099E-03  0.17130000162E+03  0.17130000000E+03 0. -1.
      622    1    1    2    0    0  0.28260239473E-01 -0.13146450675E-02  0.37423555227E+01  0.37426762120E+01  0.40000000000E-01 0.  1.
</event>
<event>
 5   0  0.7212170E+07  0.9118800E+02  0.7818608E-02  0.1180000E+00
       11   -1    0    0    0    0  0.00000000000E+00  0.00000000000E+00  0.39999999673E+01  0.40000000000E+01  0.51109989000E-03 0.  1.
     -623   -1    0    0    0    0  0.00000000000E+00  0.00000000000E+00  0.12525980253E-10  0.17130000000E+03  0.17130000000E+03 0.  1.
       11    1    1    2    0    0 -0.47664194434E-02  0.81795620172E-03  0.40536216612E-02  0.63309460847E-02  0.51109989000E-03 0.  1.
     -623    1    1    2    0    0 -0.13770230192E-02 -0.28145756032E-02  0.24828850913E-02  0.17130000005E+03  0.17130000000E+03 0.  1.
      622    1    1    2    0    0  0.61434424625E-02  0.19966194015E-02  0.39934634606E+01  0.39936690073E+01  0.40000000000E-01 0.  1.
</event>
<event>
 5   0  0.7212170E+07  0.9118800E+02  0.7818608E-02  0.1180000E+00
       11   -1    0    0    0    0  0.00000000000E+00  0.00000000000E+00  0.39999999673E+01  0.40000000000E+01  0.51109989000E-03 0. -1.
     -623   -1    0    0    0    0  0.00000000000E+00  0.00000000000E+00  0.12525980253E-10  0.17130000000E+03  0.17130000000E+03 0.  1.
       11    1    1    2    0    0 -0.33725809975E-01 -0.21385711787E-01  0.25078076065E+00  0.25394099721E+00  0.51109989000E-03 0. -1.
     -623    1    1    2    0    0  0.82467491766E-02  0.24118790563E-02  0.35087293962E-02  0.17130000025E+03  0.17130000000E+03 0.  1.
      622    1    1    2    0    0  0.25479060798E-01  0.18973832730E-01  0.37457104774E+01  0.37460587515E+01  0.40000000000E-01 0. -1.
</event>
<event>
 5   0  0.7212170E+07  0.9118800E+02  0.7818608E-02  0.1180000E+00
       11   -1    0    0    0    0  0.00000000000E+00  0.00000000000E+00  0.39999999673E+01  0.40000000000E+01  0.51109989000E-03 0. -1.
     -623   -1    0    0    0    0  0.00000000000E+00  0.00000000000E+00  0.12525980253E-10  0.17130000000E+03  0.17130000000E+03 0. -1.
       11    1    1    2    0    0  0.10795908803E-06  0.75821345760E-02  0.37048267875E+00  0.37056060941E+00  0.51109989000E-03 0. -1.
     -623    1    1    2    0    0 -0.31686471348E-02 -0.36301574986E-02  0.30192735381E-03  0.17130000007E+03  0.17130000000E+03 0. -1.
      622    1    1    2    0    0  0.31685391769E-02 -0.39519770759E-02  0.36292153628E+01  0.36294393241E+01  0.40000000000E-01 0. -1.
</event>
<event>
 5   0  0.7212170E+07  0.9118800E+02  0.7818608E-02  0.1180000E+00
       11   -1    0    0    0    0  0.00000000000E+00  0.00000000000E+00  0.39999999673E+01  0.40000000000E+01  0.51109989000E-03 0.  1.
     -623   -1    0    0    0    0  0.00000000000E+00  0.00000000000E+00  0.12525980253E-10  0.17130000000E+03  0.17130000000E+03 0.  1.
       11    1    1    2    0    0  0.16225231330E-02 -0.98298565268E-02  0.10698700959E+00  0.10745110565E+00  0.51109989000E-03 0.  1.
     -623    1    1    2    0    0  0.14844903312E-02  0.79405463305E-02  0.67148009745E-03  0.17130000019E+03  0.17130000000E+03 0.  1.
      622    1    1    2    0    0 -0.31070134645E-02  0.18893101947E-02  0.38923414785E+01  0.38925487034E+01  0.40000000000E-01 0.  1.
</event>
<event>
 5   0  0.7212170E+07  0.9118800E+02  0.7818608E-02  0.1180000E+00
       11   -1    0    0    0    0  0.00000000000E+00  0.00000000000E+00  0.39999999673E+01  0.40000000000E+01  0.51109989000E-03 0.  1.
     -623   -1    0    0    0    0  0.00000000000E+00  0.00000000000E+00  0.12525980253E-10  0.17130000000E+03  0.17130000000E+03 0. -1.
       11    1    1    2    0    0 -0.36574582276E-02 -0.99458632643E-02  0.92854115184E+00  0.92860176022E+00  0.51109989000E-03 0.  1.
     -623    1    1    2    0    0 -0.23516317004E-03  0.38677638909E-03  0.33839896739E-03  0.17130000000E+03  0.17130000000E+03 0. -1.
      622    1    1    2    0    0  0.38926213977E-02  0.95590868752E-02  0.30711204172E+01  0.30713982395E+01  0.40000000000E-01 0.  1.
</event>
<event>
 5   0  0.7212170E+07  0.9118800E+02  0.7818608E-02  0.1180000E+00
       11   -1    0    0    0    0  0.00000000000E+00  0.00000000000E+00  0.39999999673E+01  0.40000000000E+01  0.51109989000E-03 0.  1.
     -623   -1    0    0    0    0  0.00000000000E+00  0.00000000000E+00  0.12525980253E-10  0.17130000000E+03  0.17130000000E+03 0.  1.
       11    1    1    2    0    0  0.86389656253E-02  0.20746908581E-01  0.40315145057E+00  0.40377768545E+00  0.51109989000E-03 0.  1.
     -623    1    1    2    0    0  0.31443171080E-02 -0.10655094737E-02  0.92186525034E-03  0.17130000003E+03  0.17130000000E+03 0.  1.
      622    1    1    2    0    0 -0.11783282733E-01 -0.19681399107E-01  0.35959266513E+01  0.35962222797E+01  0.40000000000E-01 0.  1.
</event>
<event>
 5   0  0.7212170E+07  0.9118800E+02  0.7818608E-02  0.1180000E+00
       11   -1    0    0    0    0  0.00000000000E+00  0.00000000000E+00  0.39999999673E+01  0.40000000000E+01  0.51109989000E-03 0. -1.
     -623   -1    0    0    0    0  0.00000000000E+00  0.00000000000E+00  0.12525980253E-10  0.17130000000E+03  0.17130000000E+03 0. -1.
       11    1    1    2    0    0 -0.12686742091E-02  0.74332654016E-03  0.38511324030E-02  0.41538551343E-02  0.51109989000E-03 0. -1.
     -623    1    1    2    0    0  0.12414319081E-02  0.21450515048E-02  0.50396575709E-03  0.17130000002E+03  0.17130000000E+03 0. -1.
      622    1    1    2    0    0  0.27242300874E-04 -0.28883780451E-02  0.39956448696E+01  0.39958461266E+01  0.40000000000E-01 0. -1.
</event>
<event>
 5   0  0.7212170E+07  0.9118800E+02  0.7818608E-02  0.1180000E+00
       11   -1    0    0    0    0  0.00000000000E+00  0.00000000000E+00  0.39999999673E+01  0.40000000000E+01  0.51109989000E-03 0.  1.
     -623   -1    0    0    0    0  0.00000000000E+00  0.00000000000E+00  0.12525980253E-10  0.17130000000E+03  0.17130000000E+03 0. -1.
       11    1    1    2    0    0  0.57956737826E-02 -0.12453172562E-02  0.18438536542E-01  0.19374764581E-01  0.51109989000E-03 0.  1.
     -623    1    1    2    0    0  0.34342982458E-02  0.14518114227E-02  0.11479251436E-02  0.17130000004E+03  0.17130000000E+03 0. -1.
      622    1    1    2    0    0 -0.92299720282E-02 -0.20649416645E-03  0.39804135054E+01  0.39806251908E+01  0.40000000000E-01 0.  1.
</event>
<event>
 5   0  0.7212170E+07  0.9118800E+02  0.7818608E-02  0.1180000E+00
       11   -1    0    0    0    0  0.00000000000E+00  0.00000000000E+00  0.39999999673E+01  0.40000000000E+01  0.51109989000E-03 0. -1.
     -623   -1    0    0    0    0  0.00000000000E+00  0.00000000000E+00  0.12525980253E-10  0.17130000000E+03  0.17130000000E+03 0.  1.
       11    1    1    2    0    0  0.16994033612E-02  0.74369443009E-02  0.59592174928E-01  0.60080651196E-01  0.51109989000E-03 0. -1.
     -623    1    1    2    0    0 -0.61773990618E-03  0.98130347256E-03  0.70064646564E-03  0.17130000001E+03  0.17130000000E+03 0.  1.
      622    1    1    2    0    0 -0.10816634550E-02 -0.84182477735E-02  0.39397071460E+01  0.39399193435E+01  0.40000000000E-01 0. -1.
</event>
<event>
 5   0  0.7212170E+07  0.9118800E+02  0.7818608E-02  0.1180000E+00
       11   -1    0    0    0    0  0.00000000000E+00  0.00000000000E+00  0.39999999673E+01  0.40000000000E+01  0.51109989000E-03 0. -1.
     -623   -1    0    0    0    0  0.00000000000E+00  0.00000000000E+00  0.12525980253E-10  0.17130000000E+03  0.17130000000E+03 0. -1.
       11    1    1    2    0    0 -0.18147952900E-02 -0.33781305653E-02  0.41455557082E-01  0.41635678019E-01  0.51109989000E-03 0. -1.
     -623    1    1    2    0    0 -0.19183000943E-03  0.47273081950E-02  0.38300148419E-03  0.17130000007E+03  0.17130000000E+03 0. -1.
      622    1    1    2    0    0  0.20066252994E-02 -0.13491776300E-02  0.39581614091E+01  0.39583642565E+01  0.40000000000E-01 0. -1.
</event>
<event>
 5   0  0.7212170E+07  0.9118800E+02  0.7818608E-02  0.1180000E+00
       11   -1    0    0    0    0  0.00000000000E+00  0.00000000000E+00  0.39999999673E+01  0.40000000000E+01  0.51109989000E-03 0.  1.
     -623   -1    0    0    0    0  0.00000000000E+00  0.00000000000E+00  0.12525980253E-10  0.17130000000E+03  0.17130000000E+03 0.  1.
       11    1    1    2    0    0  0.98380763516E-03 -0.19017550999E-02  0.76074114847E-02  0.79195001432E-02  0.51109989000E-03 0.  1.
     -623    1    1    2    0    0  0.83175655793E-03  0.20047461876E-02  0.51288652865E-03  0.17130000001E+03  0.17130000000E+03 0.  1.
      622    1    1    2    0    0 -0.18155641931E-02 -0.10299108767E-03  0.39918796694E+01  0.39920804854E+01  0.40000000000E-01 0.  1.
</event>
<event>
 5   0  0.7212170E+07  0.9118800E+02  0.7818608E-02  0.1180000E+00
       11   -1    0    0    0    0  0.00000000000E+00  0.00000000000E+00  0.39999999673E+01  0.40000000000E+01  0.51109989000E-03 0. -1.
     -623   -1    0    0    0    0  0.00000000000E+00  0.00000000000E+00  0.12525980253E-10  0.17130000000E+03  0.17130000000E+03 0.  1.
       11    1    1    2    0    0 -0.30745868167E-02  0.18123005088E-02  0.93313331238E+00  0.93314027746E+00  0.51109989000E-03 0. -1.
     -623    1    1    2    0    0  0.60013143846E-04  0.45995456165E-03  0.27012106824E-03  0.17130000000E+03  0.17130000000E+03 0.  1.
      622    1    1    2    0    0  0.30145736728E-02 -0.22722550707E-02  0.30665965359E+01  0.30668597237E+01  0.40000000000E-01 0. -1.
</event>
<event>
 5   0  0.7212170E+07  0.9118800E+02  0.7818608E-02  0.1180000E+00
       11   -1    0    0    0    0  0.00000000000E+00  0.00000000000E+00  0.39999999673E+01  0.40000000000E+01  0.51109989000E-03 0.  1.
     -623   -1    0    0    0    0  0.00000000000E+00  0.00000000000E+00  0.12525980253E-10  0.17130000000E+03  0.17130000000E+03 0.  1.
       11    1    1    2    0    0 -0.19356647234E-02  0.96219005402E-02  0.90959964437E-01  0.91489366165E-01  0.51109989000E-03 0.  1.
     -623    1    1    2    0    0  0.12230300171E-02 -0.23558285004E-02  0.74089744750E-03  0.17130000002E+03  0.17130000000E+03 0.  1.
      622    1    1    2    0    0  0.71263470625E-03 -0.72660720396E-02  0.39082991058E+01  0.39085106120E+01  0.40000000000E-01 0.  0.
</event>
<event>
 5   0  0.7212170E+07  0.9118800E+02  0.7818608E-02  0.1180000E+00
       11   -1    0    0    0    0  0.00000000000E+00  0.00000000000E+00  0.39999999673E+01  0.40000000000E+01  0.51109989000E-03 0.  1.
     -623   -1    0    0    0    0  0.00000000000E+00  0.00000000000E+00  0.12525980253E-10  0.17130000000E+03  0.17130000000E+03 0.  1.
       11    1    1    2    0    0  0.24702270934E-02 -0.61372151054E-04  0.91974283223E-01  0.92008889712E-01  0.51109989000E-03 0.  1.
     -623    1    1    2    0    0 -0.35919864680E-04 -0.40083627565E-03  0.24007415303E-03  0.17130000000E+03  0.17130000000E+03 0.  1.
      622    1    1    2    0    0 -0.24343072287E-02  0.46220842670E-03  0.39077856099E+01  0.39079911095E+01  0.40000000000E-01 0.  1.
</event>
<event>
 5   0  0.7212170E+07  0.9118800E+02  0.7818608E-02  0.1180000E+00
       11   -1    0    0    0    0  0.00000000000E+00  0.00000000000E+00  0.39999999673E+01  0.40000000000E+01  0.51109989000E-03 0.  1.
     -623   -1    0    0    0    0  0.00000000000E+00  0.00000000000E+00  0.12525980253E-10  0.17130000000E+03  0.17130000000E+03 0.  1.
       11    1    1    2    0    0 -0.98437720799E-03  0.25601036637E-03  0.65248040998E-02  0.66233549983E-02  0.51109989000E-03 0.  1.
     -623    1    1    2    0    0  0.19969844933E-02 -0.20628788323E-02  0.29941650950E-03  0.17130000002E+03  0.17130000000E+03 0.  1.
      622    1    1    2    0    0 -0.10126072860E-02  0.18068684666E-02  0.39931757480E+01  0.39933766219E+01  0.40000000000E-01 0.  1.
</event>
<event>
 5   0  0.7212170E+07  0.9118800E+02  0.7818608E-02  0.1180000E+00
       11   -1    0    0    0    0  0.00000000000E+00  0.00000000000E+00  0.39999999673E+01  0.40000000000E+01  0.51109989000E-03 0. -1.
     -623   -1    0    0    0    0  0.00000000000E+00  0.00000000000E+00  0.12525980253E-10  0.17130000000E+03  0.17130000000E+03 0. -1.
       11    1    1    2    0    0  0.78317831994E-02 -0.38695833235E-03  0.10883322007E+00  0.10911653210E+00  0.51109989000E-03 0. -1.
     -623    1    1    2    0    0  0.92230339457E-02 -0.23873675795E-02  0.52752871105E-03  0.17130000027E+03  0.17130000000E+03 0. -1.
      622    1    1    2    0    0 -0.17054817145E-01  0.27743259118E-02  0.38906392185E+01  0.38908832020E+01  0.40000000000E-01 0. -1.
</event>
<event>
 5   0  0.7212170E+07  0.9118800E+02  0.7818608E-02  0.1180000E+00
       11   -1    0    0    0    0  0.00000000000E+00  0.00000000000E+00  0.39999999673E+01  0.40000000000E+01  0.51109989000E-03 0. -1.
     -623   -1    0    0    0    0  0.00000000000E+00  0.00000000000E+00  0.12525980253E-10  0.17130000000E+03  0.17130000000E+03 0.  1.
       11    1    1    2    0    0  0.79563602811E-02 -0.64261089278E-02  0.98049782459E+00  0.98055129585E+00  0.51109989000E-03 0. -1.
     -623    1    1    2    0    0 -0.41524541558E-03  0.30271582858E-03  0.33402787209E-03  0.17130000000E+03  0.17130000000E+03 0.  1.
      622    1    1    2    0    0 -0.75411148653E-02  0.61233930991E-02  0.30191681167E+01  0.30194487048E+01  0.40000000000E-01 0. -1.
</event>
<event>
 5   0  0.7212170E+07  0.9118800E+02  0.7818608E-02  0.1180000E+00
       11   -1    0    0    0    0  0.00000000000E+00  0.00000000000E+00  0.39999999673E+01  0.40000000000E+01  0.51109989000E-03 0.  1.
     -623   -1    0    0    0    0  0.00000000000E+00  0.00000000000E+00  0.12525980253E-10  0.17130000000E+03  0.17130000000E+03 0.  1.
       11    1    1    2    0    0 -0.31089890974E-01  0.12293511482E-01  0.33227591296E+00  0.33395397183E+00  0.51109989000E-03 0.  1.
     -623    1    1    2    0    0  0.30141433111E-01  0.13979035859E-01  0.19937555450E-02  0.17130000323E+03  0.17130000000E+03 0.  1.
      622    1    1    2    0    0  0.94845786248E-03 -0.26272547341E-01  0.36657302989E+01  0.36660427944E+01  0.40000000000E-01 0.  1.
</event>
<event>
 5   0  0.7212170E+07  0.9118800E+02  0.7818608E-02  0.1180000E+00
       11   -1    0    0    0    0  0.00000000000E+00  0.00000000000E+00  0.39999999673E+01  0.40000000000E+01  0.51109989000E-03 0.  1.
     -623   -1    0    0    0    0  0.00000000000E+00  0.00000000000E+00  0.12525980253E-10  0.17130000000E+03  0.17130000000E+03 0. -1.
       11    1    1    2    0    0 -0.27336336332E-03  0.63012557636E-02  0.23659160093E+00  0.23667620794E+00  0.51109989000E-03 0.  1.
     -623    1    1    2    0    0 -0.93775524257E-03  0.59673860317E-03  0.30367939648E-03  0.17130000000E+03  0.17130000000E+03 0. -1.
      622    1    1    2    0    0  0.12111186060E-02 -0.68979943668E-02  0.37631046875E+01  0.37633237886E+01  0.40000000000E-01 0.  1.
</event>
<event>
 5   0  0.7212170E+07  0.9118800E+02  0.7818608E-02  0.1180000E+00
       11   -1    0    0    0    0  0.00000000000E+00  0.00000000000E+00  0.39999999673E+01  0.40000000000E+01  0.51109989000E-03 0. -1.
     -623   -1    0    0    0    0  0.00000000000E+00  0.00000000000E+00  0.12525980253E-10  0.17130000000E+03  0.17130000000E+03 0. -1.
       11    1    1    2    0    0  0.24831175154E-03  0.67919825329E-03  0.28958121282E-02  0.30281875722E-02  0.51109989000E-03 0. -1.
     -623    1    1    2    0    0 -0.75636411524E-03  0.27539481978E-03  0.33264784241E-03  0.17130000000E+03  0.17130000000E+03 0. -1.
      622    1    1    2    0    0  0.50805236404E-03 -0.95459307320E-03  0.39967715092E+01  0.39969718120E+01  0.40000000000E-01 0. -1.
</event>
<event>
 5   0  0.7212170E+07  0.9118800E+02  0.7818608E-02  0.1180000E+00
       11   -1    0    0    0    0  0.00000000000E+00  0.00000000000E+00  0.39999999673E+01  0.40000000000E+01  0.51109989000E-03 0.  1.
     -623   -1    0    0    0    0  0.00000000000E+00  0.00000000000E+00  0.12525980253E-10  0.17130000000E+03  0.17130000000E+03 0.  1.
       11    1    1    2    0    0 -0.17063165049E-01  0.21333047251E-01  0.23239528286E+00  0.23399589574E+00  0.51109989000E-03 0.  1.
     -623    1    1    2    0    0  0.49394435334E-03 -0.20534294317E-01  0.18507911273E-02  0.17130000124E+03  0.17130000000E+03 0.  1.
      622    1    1    2    0    0  0.16569220696E-01 -0.79875293387E-03  0.37657538935E+01  0.37660028629E+01  0.40000000000E-01 0.  1.
</event>
<event>
 5   0  0.7212170E+07  0.9118800E+02  0.7818608E-02  0.1180000E+00
       11   -1    0    0    0    0  0.00000000000E+00  0.00000000000E+00  0.39999999673E+01  0.40000000000E+01  0.51109989000E-03 0.  1.
     -623   -1    0    0    0    0  0.00000000000E+00  0.00000000000E+00  0.12525980253E-10  0.17130000000E+03  0.17130000000E+03 0.  1.
       11    1    1    2    0    0  0.15575964597E-02  0.23431005178E-02  0.43861506614E+00  0.43862438794E+00  0.51109989000E-03 0.  1.
     -623    1    1    2    0    0  0.21728050179E-02  0.24864643982E-02  0.23918927351E-03  0.17130000003E+03  0.17130000000E+03 0.  1.
      622    1    1    2    0    0 -0.37304014786E-02 -0.48295649173E-02  0.35611457140E+01  0.35613755821E+01  0.40000000000E-01 0.  1.
</event>
<event>
 5   0  0.7212170E+07  0.9118800E+02  0.7818608E-02  0.1180000E+00
       11   -1    0    0    0    0  0.00000000000E+00  0.00000000000E+00  0.39999999673E+01  0.40000000000E+01  0.51109989000E-03 0. -1.
     -623   -1    0    0    0    0  0.00000000000E+00  0.00000000000E+00  0.12525980253E-10  0.17130000000E+03  0.17130000000E+03 0.  1.
       11    1    1    2    0    0 -0.14974268593E-01  0.51501162198E-02  0.57364286371E+00  0.57386161112E+00  0.51109989000E-03 0. -1.
     -623    1    1    2    0    0  0.81139660273E-03  0.51848552028E-03  0.48619007937E-03  0.17130000000E+03  0.17130000000E+03 0.  1.
      622    1    1    2    0    0  0.14162871990E-01 -0.56686017402E-02  0.34258709147E+01  0.34261383866E+01  0.40000000000E-01 0. -1.
</event>
<event>
 5   0  0.7212170E+07  0.9118800E+02  0.7818608E-02  0.1180000E+00
       11   -1    0    0    0    0  0.00000000000E+00  0.00000000000E+00  0.39999999673E+01  0.40000000000E+01  0.51109989000E-03 0.  1.
     -623   -1    0    0    0    0  0.00000000000E+00  0.00000000000E+00  0.12525980253E-10  0.17130000000E+03  0.17130000000E+03 0.  1.
       11    1    1    2    0    0 -0.38936400115E-02 -0.20013150299E-02  0.31540109417E-01  0.31846591961E-01  0.51109989000E-03 0.  1.
     -623    1    1    2    0    0  0.81996461261E-03 -0.55073120923E-04  0.50978619865E-03  0.17130000000E+03  0.17130000000E+03 0.  1.
      622    1    1    2    0    0  0.30736753988E-02  0.20563881508E-02  0.39679500720E+01  0.39681534056E+01  0.40000000000E-01 0.  1.
</event>
<event>
 5   0  0.7212170E+07  0.9118800E+02  0.7818608E-02  0.1180000E+00
       11   -1    0    0    0    0  0.00000000000E+00  0.00000000000E+00  0.39999999673E+01  0.40000000000E+01  0.51109989000E-03 0.  1.
     -623   -1    0    0    0    0  0.00000000000E+00  0.00000000000E+00  0.12525980253E-10  0.17130000000E+03  0.17130000000E+03 0.  1.
       11    1    1    2    0    0 -0.99996002570E-03 -0.31112872592E-03  0.29793063209E-02  0.31990952453E-02  0.51109989000E-03 0.  1.
     -623    1    1    2    0    0  0.45324196157E-03  0.40595180630E-03  0.41996149395E-03  0.17130000000E+03  0.17130000000E+03 0.  1.
      622    1    1    2    0    0  0.54671806404E-03 -0.94823080454E-04  0.39966007003E+01  0.39968009039E+01  0.40000000000E-01 0.  1.
</event>
<event>
 5   0  0.7212170E+07  0.9118800E+02  0.7818608E-02  0.1180000E+00
       11   -1    0    0    0    0  0.00000000000E+00  0.00000000000E+00  0.39999999673E+01  0.40000000000E+01  0.51109989000E-03 0. -1.
     -623   -1    0    0    0    0  0.00000000000E+00  0.00000000000E+00  0.12525980253E-10  0.17130000000E+03  0.17130000000E+03 0.  1.
       11    1    1    2    0    0  0.11199293540E-02 -0.77177678177E-03  0.26350163647E-01  0.26390191900E-01  0.51109989000E-03 0. -1.
     -623    1    1    2    0    0 -0.32961511452E-03 -0.29980988410E-03  0.24155283043E-03  0.17130000000E+03  0.17130000000E+03 0.  1.
      622    1    1    2    0    0 -0.79031423951E-03  0.10715866658E-02  0.39734082506E+01  0.39736098070E+01  0.40000000000E-01 0. -1.
</event>
<event>
 5   0  0.7212170E+07  0.9118800E+02  0.7818608E-02  0.1180000E+00
       11   -1    0    0    0    0  0.00000000000E+00  0.00000000000E+00  0.39999999673E+01  0.40000000000E+01  0.51109989000E-03 0. -1.
     -623   -1    0    0    0    0  0.00000000000E+00  0.00000000000E+00  0.12525980253E-10  0.17130000000E+03  0.17130000000E+03 0. -1.
       11    1    1    2    0    0 -0.15421223841E-02  0.92195369035E-02  0.48124435953E-01  0.49026529155E-01  0.51109989000E-03 0. -1.
     -623    1    1    2    0    0 -0.19757163277E-02 -0.82589715010E-02  0.11064445177E-02  0.17130000021E+03  0.17130000000E+03 0. -1.
      622    1    1    2    0    0  0.35178387117E-02 -0.96056540257E-03  0.39507690869E+01  0.39509732568E+01  0.40000000000E-01 0. -1.
</event>
<event>
 5   0  0.7212170E+07  0.9118800E+02  0.7818608E-02  0.1180000E+00
       11   -1    0    0    0    0  0.00000000000E+00  0.00000000000E+00  0.39999999673E+01  0.40000000000E+01  0.51109989000E-03 0.  1.
     -623   -1    0    0    0    0  0.00000000000E+00  0.00000000000E+00  0.12525980253E-10  0.17130000000E+03  0.17130000000E+03 0.  1.
       11    1    1    2    0    0 -0.47243116411E-02 -0.60028871112E-02  0.13066076744E+00  0.13088487745E+00  0.51109989000E-03 0.  1.
     -623    1    1    2    0    0 -0.47432525150E-02  0.39298871243E-02  0.44309922049E-03  0.17130000011E+03  0.17130000000E+03 0.  1.
      622    1    1    2    0    0  0.94675641552E-02  0.20729999876E-02  0.38688960999E+01  0.38691150104E+01  0.40000000000E-01 0.  1.
</event>
<event>
 5   0  0.7212170E+07  0.9118800E+02  0.7818608E-02  0.1180000E+00
       11   -1    0    0    0    0  0.00000000000E+00  0.00000000000E+00  0.39999999673E+01  0.40000000000E+01  0.51109989000E-03 0. -1.
     -623   -1    0    0    0    0  0.00000000000E+00  0.00000000000E+00  0.12525980253E-10  0.17130000000E+03  0.17130000000E+03 0. -1.
       11    1    1    2    0    0 -0.17751042475E-02 -0.61756466203E-03  0.39633975737E-01  0.39681804861E-01  0.51109989000E-03 0. -1.
     -623    1    1    2    0    0  0.24487311384E-03  0.29663703512E-03  0.25011487371E-03  0.17130000000E+03  0.17130000000E+03 0. -1.
      622    1    1    2    0    0  0.15302311337E-02  0.32092762690E-03  0.39601158767E+01  0.39603181945E+01  0.40000000000E-01 0. -1.
</event>
<event>
 5   0  0.7212170E+07  0.9118800E+02  0.7818608E-02  0.1180000E+00
       11   -1    0    0    0    0  0.00000000000E+00  0.00000000000E+00  0.39999999673E+01  0.40000000000E+01  0.51109989000E-03 0.  1.
     -623   -1    0    0    0    0  0.00000000000E+00  0.00000000000E+00  0.12525980253E-10  0.17130000000E+03  0.17130000000E+03 0. -1.
       11    1    1    2    0    0 -0.37966754673E-02 -0.21234458049E-01  0.87734814655E+00  0.87761343906E+00  0.51109989000E-03 0.  1.
     -623    1    1    2    0    0  0.64483973440E-02 -0.33068225959E-02  0.61921919203E-03  0.17130000015E+03  0.17130000000E+03 0. -1.
      622    1    1    2    0    0 -0.26517218769E-02  0.24541280645E-01  0.31220326018E+01  0.31223864067E+01  0.40000000000E-01 0.  1.
</event>
<event>
 5   0  0.7212170E+07  0.9118800E+02  0.7818608E-02  0.1180000E+00
       11   -1    0    0    0    0  0.00000000000E+00  0.00000000000E+00  0.39999999673E+01  0.40000000000E+01  0.51109989000E-03 0.  1.
     -623   -1    0    0    0    0  0.00000000000E+00  0.00000000000E+00  0.12525980253E-10  0.17130000000E+03  0.17130000000E+03 0. -1.
       11    1    1    2    0    0 -0.10429650430E-02  0.60111323314E-02  0.81918593008E-01  0.82147054674E-01  0.51109989000E-03 0.  1.
     -623    1    1    2    0    0 -0.42582326837E-02 -0.50872084144E-02  0.43645247592E-03  0.17130000013E+03  0.17130000000E+03 0. -1.
      622    1    1    2    0    0  0.53011977281E-02 -0.92392391530E-03  0.39176449232E+01  0.39178528176E+01  0.40000000000E-01 0.  1.
</event>
<event>
 5   0  0.7212170E+07  0.9118800E+02  0.7818608E-02  0.1180000E+00
       11   -1    0    0    0    0  0.00000000000E+00  0.00000000000E+00  0.39999999673E+01  0.40000000000E+01  0.51109989000E-03 0.  1.
     -623   -1    0    0    0    0  0.00000000000E+00  0.00000000000E+00  0.12525980253E-10  0.17130000000E+03  0.17130000000E+03 0. -1.
       11    1    1    2    0    0  0.65754371255E-02 -0.48327888682E-02  0.10965238175E+00  0.10995680183E+00  0.51109989000E-03 0.  1.
     -623    1    1    2    0    0  0.11433656800E-03  0.83469022979E-02  0.51759021786E-03  0.17130000020E+03  0.17130000000E+03 0. -1.
      622    1    1    2    0    0 -0.66897736935E-02 -0.35141134314E-02  0.38898299962E+01  0.38900429948E+01  0.40000000000E-01 0.  1.
</event>
<event>
 5   0  0.7212170E+07  0.9118800E+02  0.7818608E-02  0.1180000E+00
       11   -1    0    0    0    0  0.00000000000E+00  0.00000000000E+00  0.39999999673E+01  0.40000000000E+01  0.51109989000E-03 0. -1.
     -623   -1    0    0    0    0  0.00000000000E+00  0.00000000000E+00  0.12525980253E-10  0.17130000000E+03  0.17130000000E+03 0.  1.
       11    1    1    2    0    0  0.16524394891E-03  0.18756469788E-02  0.84037880667E-01  0.84060525619E-01  0.51109989000E-03 0. -1.
     -623    1    1    2    0    0 -0.35889506962E-04 -0.48258284280E-03  0.22716165951E-03  0.17130000000E+03  0.17130000000E+03 0.  1.
      622    1    1    2    0    0 -0.12935444195E-03 -0.13930641361E-02  0.39157349245E+01  0.39159394731E+01  0.40000000000E-01 0. -1.
</event>
<event>
 5   0  0.7212170E+07  0.9118800E+02  0.7818608E-02  0.1180000E+00
       11   -1    0    0    0    0  0.00000000000E+00  0.00000000000E+00  0.39999999673E+01  0.40000000000E+01  0.51109989000E-03 0.  1.
     -623   -1    0    0    0    0  0.00000000000E+00  0.00000000000E+00  0.12525980253E-10  0.17130000000E+03  0.17130000000E+03 0.  1.
       11    1    1    2    0    0  0.57285519479E-02  0.80466792781E-03  0.73316931858E+00  0.73319231770E+00  0.51109989000E-03 0.  1.
     -623    1    1    2    0    0  0.26881566999E-02 -0.24312592685E-01  0.36504256489E-03  0.17130000175E+03  0.17130000000E+03 0.  1.
      622    1    1    2    0    0 -0.84167086489E-02  0.23507924768E-01  0.32664656079E+01  0.32668059371E+01  0.40000000000E-01 0.  1.
</event>
<event>
 5   0  0.7212170E+07  0.9118800E+02  0.7818608E-02  0.1180000E+00
       11   -1    0    0    0    0  0.00000000000E+00  0.00000000000E+00  0.39999999673E+01  0.40000000000E+01  0.51109989000E-03 0. -1.
     -623   -1    0    0    0    0  0.00000000000E+00  0.00000000000E+00  0.12525980253E-10  0.17130000000E+03  0.17130000000E+03 0. -1.
       11    1    1    2    0    0  0.35115996851E-02 -0.56220882193E-02  0.73671347882E-01  0.73970723467E-01  0.51109989000E-03 0. -1.
     -623    1    1    2    0    0 -0.31605412070E-02  0.74176799505E-02  0.50373329119E-03  0.17130000019E+03  0.17130000000E+03 0. -1.
      622    1    1    2    0    0 -0.35105847812E-03 -0.17955917312E-02  0.39258248861E+01  0.39260290860E+01  0.40000000000E-01 0. -1.
</event>
<event>
 5   0  0.7212170E+07  0.9118800E+02  0.7818608E-02  0.1180000E+00
       11   -1    0    0    0    0  0.00000000000E+00  0.00000000000E+00  0.39999999673E+01  0.40000000000E+01  0.51109989000E-03 0.  1.
     -623   -1    0    0    0    0  0.00000000000E+00  0.00000000000E+00  0.12525980253E-10  0.17130000000E+03  0.17130000000E+03 0. -1.
       11    1    1    2    0    0 -0.66666690923E-02 -0.18806377727E-02  0.13756895150E+00  0.13774417924E+00  0.51109989000E-03 0.  1.
     -623    1    1    2    0    0 -0.44401750169E-03  0.13831411690E-02  0.38891813201E-03  0.17130000001E+03  0.17130000000E+03 0. -1.
      622    1    1    2    0    0  0.71106865941E-02  0.49749660332E-03  0.38620420988E+01  0.38622558153E+01  0.40000000000E-01 0.  1.
</event>
<event>
 5   0  0.7212170E+07  0.9118800E+02  0.7818608E-02  0.1180000E+00
       11   -1    0    0    0    0  0.00000000000E+00  0.00000000000E+00  0.39999999673E+01  0.40000000000E+01  0.51109989000E-03 0. -1.
     -623   -1    0    0    0    0  0.00000000000E+00  0.00000000000E+00  0.12525980253E-10  0.17130000000E+03  0.17130000000E+03 0.  1.
       11    1    1    2    0    0 -0.12369771207E-02  0.40988447872E-02  0.69199790094E-01  0.69333994642E-01  0.51109989000E-03 0. -1.
     -623    1    1    2    0    0  0.11626711580E-02 -0.29457723351E-03  0.33955132884E-03  0.17130000000E+03  0.17130000000E+03 0.  1.
      622    1    1    2    0    0  0.74305962828E-04 -0.38042675538E-02  0.39304606256E+01  0.39306660005E+01  0.40000000000E-01 0. -1.
</event>
<event>
 5   0  0.7212170E+07  0.9118800E+02  0.7818608E-02  0.1180000E+00
       11   -1    0    0    0    0  0.00000000000E+00  0.00000000000E+00  0.39999999673E+01  0.40000000000E+01  0.51109989000E-03 0. -1.
     -623   -1    0    0    0    0  0.00000000000E+00  0.00000000000E+00  0.12525980253E-10  0.17130000000E+03  0.17130000000E+03 0.  1.
       11    1    1    2    0    0  0.49300406635E-02 -0.33725047564E-02  0.10583345482E-01  0.12163367707E-01  0.51109989000E-03 0. -1.
     -623    1    1    2    0    0  0.53799594869E-03  0.27226784723E-02  0.17844383982E-02  0.17130000003E+03  0.17130000000E+03 0.  1.
      622    1    1    2    0    0 -0.54680366121E-02  0.64982628419E-03  0.39876321833E+01  0.39878366003E+01  0.40000000000E-01 0. -1.
</event>
<event>
 5   0  0.7212170E+07  0.9118800E+02  0.7818608E-02  0.1180000E+00
       11   -1    0    0    0    0  0.00000000000E+00  0.00000000000E+00  0.39999999673E+01  0.40000000000E+01  0.51109989000E-03 0.  1.
     -623   -1    0    0    0    0  0.00000000000E+00  0.00000000000E+00  0.12525980253E-10  0.17130000000E+03  0.17130000000E+03 0. -1.
       11    1    1    2    0    0  0.64436723781E-01  0.85019842959E-02  0.10825093636E+01  0.10844589244E+01  0.51109989000E-03 0.  1.
     -623    1    1    2    0    0  0.65240451658E-02 -0.25307106593E-02  0.30939800017E-02  0.17130000017E+03  0.17130000000E+03 0. -1.
      622    1    1    2    0    0 -0.70960768947E-01 -0.59712736365E-02  0.29143966239E+01  0.29155409049E+01  0.40000000000E-01 0.  0.
</event>
<event>
 5   0  0.7212170E+07  0.9118800E+02  0.7818608E-02  0.1180000E+00
       11   -1    0    0    0    0  0.00000000000E+00  0.00000000000E+00  0.39999999673E+01  0.40000000000E+01  0.51109989000E-03 0. -1.
     -623   -1    0    0    0    0  0.00000000000E+00  0.00000000000E+00  0.12525980253E-10  0.17130000000E+03  0.17130000000E+03 0.  1.
       11    1    1    2    0    0 -0.15869089343E-02  0.43173069555E-02  0.28989677839E-01  0.29356772023E-01  0.51109989000E-03 0. -1.
     -623    1    1    2    0    0  0.18159746502E-02  0.31965484453E-02  0.57570217212E-03  0.17130000004E+03  0.17130000000E+03 0.  1.
      622    1    1    2    0    0 -0.22906571594E-03 -0.75138554007E-02  0.39704345874E+01  0.39706431876E+01  0.40000000000E-01 0. -1.
</event>
<event>
 5   0  0.7212170E+07  0.9118800E+02  0.7818608E-02  0.1180000E+00
       11   -1    0    0    0    0  0.00000000000E+00  0.00000000000E+00  0.39999999673E+01  0.40000000000E+01  0.51109989000E-03 0. -1.
     -623   -1    0    0    0    0  0.00000000000E+00  0.00000000000E+00  0.12525980253E-10  0.17130000000E+03  0.17130000000E+03 0. -1.
       11    1    1    2    0    0  0.73509403853E-02 -0.49392451123E-02  0.10423571130E+00  0.10461250977E+00  0.51109989000E-03 0. -1.
     -623    1    1    2    0    0 -0.31716165196E-02 -0.15998960014E-01  0.64143835010E-03  0.17130000078E+03  0.17130000000E+03 0. -1.
      622    1    1    2    0    0 -0.41793238658E-02  0.20938205125E-01  0.38951228175E+01  0.38953867123E+01  0.40000000000E-01 0. -1.
</event>
<event>
 5   0  0.7212170E+07  0.9118800E+02  0.7818608E-02  0.1180000E+00
       11   -1    0    0    0    0  0.00000000000E+00  0.00000000000E+00  0.39999999673E+01  0.40000000000E+01  0.51109989000E-03 0.  1.
     -623   -1    0    0    0    0  0.00000000000E+00  0.00000000000E+00  0.12525980253E-10  0.17130000000E+03  0.17130000000E+03 0.  1.
       11    1    1    2    0    0 -0.13886910979E-01  0.31809634709E-02  0.15537279163E+01  0.15537933144E+01  0.51109989000E-03 0.  1.
     -623    1    1    2    0    0  0.21078170881E-02 -0.38438570695E-02  0.42093434762E-03  0.17130000006E+03  0.17130000000E+03 0.  1.
      622    1    1    2    0    0  0.11779093891E-01  0.66289359857E-03  0.24458511168E+01  0.24462066291E+01  0.40000000000E-01 0.  1.
</event>
<event>
 5   0  0.7212170E+07  0.9118800E+02  0.7818608E-02  0.1180000E+00
       11   -1    0    0    0    0  0.00000000000E+00  0.00000000000E+00  0.39999999673E+01  0.40000000000E+01  0.51109989000E-03 0.  1.
     -623   -1    0    0    0    0  0.00000000000E+00  0.00000000000E+00  0.12525980253E-10  0.17130000000E+03  0.17130000000E+03 0.  1.
       11    1    1    2    0    0 -0.89457759803E-04 -0.86490806790E-04  0.32910897908E-02  0.33328634024E-02  0.51109989000E-03 0. -1.
     -623    1    1    2    0    0  0.47174660811E-04 -0.90188384621E-04  0.24191709655E-03  0.17130000000E+03  0.17130000000E+03 0.  1.
      622    1    1    2    0    0  0.42283098993E-04  0.17667919141E-03  0.39964669604E+01  0.39966671363E+01  0.40000000000E-01 0.  1.
</event>
<event>
 5   0  0.7212170E+07  0.9118800E+02  0.7818608E-02  0.1180000E+00
       11   -1    0    0    0    0  0.00000000000E+00  0.00000000000E+00  0.39999999673E+01  0.40000000000E+01  0.51109989000E-03 0. -1.
     -623   -1    0    0    0    0  0.00000000000E+00  0.00000000000E+00  0.12525980253E-10  0.17130000000E+03  0.17130000000E+03 0.  1.
       11    1    1    2    0    0 -0.30919079975E-03 -0.63349988252E-03  0.25745568867E-02  0.27178092854E-02  0.51109989000E-03 0. -1.
     -623    1    1    2    0    0  0.61519496223E-03  0.73892521083E-03  0.34337689832E-03  0.17130000000E+03  0.17130000000E+03 0.  1.
      622    1    1    2    0    0 -0.30600416256E-03 -0.10542532840E-03  0.39970820340E+01  0.39972821881E+01  0.40000000000E-01 0. -1.
</event>
<event>
 5   0  0.7212170E+07  0.9118800E+02  0.7818608E-02  0.1180000E+00
       11   -1    0    0    0    0  0.00000000000E+00  0.00000000000E+00  0.39999999673E+01  0.40000000000E+01  0.51109989000E-03 0.  1.
     -623   -1    0    0    0    0  0.00000000000E+00  0.00000000000E+00  0.12525980253E-10  0.17130000000E+03  0.17130000000E+03 0.  1.
       11    1    1    2    0    0 -0.48005190826E-03  0.57269063373E-03  0.22343244821E-02  0.24107785849E-02  0.51109989000E-03 0.  1.
     -623    1    1    2    0    0  0.66874910552E-03 -0.96160197151E-03  0.37657487472E-03  0.17130000000E+03  0.17130000000E+03 0.  1.
      622    1    1    2    0    0 -0.18869719728E-03  0.38891133781E-03  0.39973890681E+01  0.39975892171E+01  0.40000000000E-01 0.  1.
</event>
<event>
 5   0  0.7212170E+07  0.9118800E+02  0.7818608E-02  0.1180000E+00
       11   -1    0    0    0    0  0.00000000000E+00  0.00000000000E+00  0.39999999673E+01  0.40000000000E+01  0.51109989000E-03 0. -1.
     -623   -1    0    0    0    0  0.00000000000E+00  0.00000000000E+00  0.12525980253E-10  0.17130000000E+03  0.17130000000E+03 0.  1.
       11    1    1    2    0    0  0.37511520608E-02  0.40343832720E-03  0.17113450337E+00  0.17117684823E+00  0.51109989000E-03 0. -1.
     -623    1    1    2    0    0 -0.76542383044E-03  0.13052909778E-02  0.25281179175E-03  0.17130000001E+03  0.17130000000E+03 0.  1.
      622    1    1    2    0    0 -0.29857282300E-02 -0.17087293054E-02  0.38286126537E+01  0.38288231464E+01  0.40000000000E-01 0. -1.
</event>
<event>
 5   0  0.7212170E+07  0.9118800E+02  0.7818608E-02  0.1180000E+00
       11   -1    0    0    0    0  0.00000000000E+00  0.00000000000E+00  0.39999999673E+01  0.40000000000E+01  0.51109989000E-03 0.  1.
     -623   -1    0    0    0    0  0.00000000000E+00  0.00000000000E+00  0.12525980253E-10  0.17130000000E+03  0.17130000000E+03 0. -1.
       11    1    1    2    0    0 -0.73812960094E-03  0.10671632032E-02  0.22602723899E-01  0.22645706511E-01  0.51109989000E-03 0.  1.
     -623    1    1    2    0    0  0.60773683755E-03 -0.15107508992E-02  0.24412857892E-03  0.17130000001E+03  0.17130000000E+03 0. -1.
      622    1    1    2    0    0  0.13039276310E-03  0.44358769670E-03  0.39771531167E+01  0.39773542874E+01  0.40000000000E-01 0.  1.
</event>
<event>
 5   0  0.7212170E+07  0.9118800E+02  0.7818608E-02  0.1180000E+00
       11   -1    0    0    0    0  0.00000000000E+00  0.00000000000E+00  0.39999999673E+01  0.40000000000E+01  0.51109989000E-03 0.  1.
     -623   -1    0    0    0    0  0.00000000000E+00  0.00000000000E+00  0.12525980253E-10  0.17130000000E+03  0.17130000000E+03 0. -1.
       11    1    1    2    0    0 -0.77141771574E-02  0.38200057421E-02  0.21428616083E-01  0.23098653281E-01  0.51109989000E-03 0.  1.
     -623    1    1    2    0    0 -0.43301052625E-02 -0.52027742978E-03  0.18908456287E-02  0.17130000007E+03  0.17130000000E+03 0. -1.
      622    1    1    2    0    0  0.12044282420E-01 -0.32997283123E-02  0.39766805057E+01  0.39769012809E+01  0.40000000000E-01 0.  1.
</event>
<event>
 5   0  0.7212170E+07  0.9118800E+02  0.7818608E-02  0.1180000E+00
       11   -1    0    0    0    0  0.00000000000E+00  0.00000000000E+00  0.39999999673E+01  0.40000000000E+01  0.51109989000E-03 0. -1.
     -623   -1    0    0    0    0  0.00000000000E+00  0.00000000000E+00  0.12525980253E-10  0.17130000000E+03  0.17130000000E+03 0.  1.
       11    1    1    2    0    0 -0.17797015289E-02  0.76220404691E-03  0.94021474167E-01  0.94042794090E-01  0.51109989000E-03 0. -1.
     -623    1    1    2    0    0  0.12997526047E-02 -0.30960905322E-02  0.22686786392E-03  0.17130000003E+03  0.17130000000E+03 0.  1.
      622    1    1    2    0    0  0.47994892382E-03  0.23338864861E-02  0.39057516263E+01  0.39059571738E+01  0.40000000000E-01 0. -1.
</event>
<event>
 5   0  0.7212170E+07  0.9118800E+02  0.7818608E-02  0.1180000E+00
       11   -1    0    0    0    0  0.00000000000E+00  0.00000000000E+00  0.39999999673E+01  0.40000000000E+01  0.51109989000E-03 0.  1.
     -623   -1    0    0    0    0  0.00000000000E+00  0.00000000000E+00  0.12525980253E-10  0.17130000000E+03  0.17130000000E+03 0.  1.
       11    1    1    2    0    0 -0.12210566845E-01 -0.40247783374E-02  0.63337268131E-01  0.64631010674E-01  0.51109989000E-03 0.  1.
     -623    1    1    2    0    0  0.49192934141E-03 -0.10878469653E-02  0.15177805408E-02  0.17130000001E+03  0.17130000000E+03 0.  1.
      622    1    1    2    0    0  0.11718637504E-01  0.51126253027E-02  0.39351449186E+01  0.39353689784E+01  0.40000000000E-01 0.  1.
</event>
<event>
 5   0  0.7212170E+07  0.9118800E+02  0.7818608E-02  0.1180000E+00
       11   -1    0    0    0    0  0.00000000000E+00  0.00000000000E+00  0.39999999673E+01  0.40000000000E+01  0.51109989000E-03 0.  1.
     -623   -1    0    0    0    0  0.00000000000E+00  0.00000000000E+00  0.12525980253E-10  0.17130000000E+03  0.17130000000E+03 0.  1.
       11    1    1    2    0    0 -0.12498879831E-01  0.10538628201E-01  0.10887853371E+00  0.11010032247E+00  0.51109989000E-03 0.  1.
     -623    1    1    2    0    0 -0.85827329249E-02 -0.54480969339E-01  0.17416637767E-02  0.17130000889E+03  0.17130000000E+03 0.  1.
      622    1    1    2    0    0  0.21081612756E-01  0.43942341139E-01  0.38893797699E+01  0.38898907900E+01  0.40000000000E-01 0.  1.
</event>
<event>
 5   0  0.7212170E+07  0.9118800E+02  0.7818608E-02  0.1180000E+00
       11   -1    0    0    0    0  0.00000000000E+00  0.00000000000E+00  0.39999999673E+01  0.40000000000E+01  0.51109989000E-03 0.  1.
     -623   -1    0    0    0    0  0.00000000000E+00  0.00000000000E+00  0.12525980253E-10  0.17130000000E+03  0.17130000000E+03 0.  1.
       11    1    1    2    0    0 -0.40223338698E-02  0.11995567644E-01  0.18095327985E+01  0.18095771006E+01  0.51109989000E-03 0.  1.
     -623    1    1    2    0    0 -0.52078142284E-03  0.94055820271E-03  0.45244796636E-03  0.17130000000E+03  0.17130000000E+03 0.  1.
      622    1    1    2    0    0  0.45431152926E-02 -0.12936125846E-01  0.21900147208E+01  0.21904228954E+01  0.40000000000E-01 0.  0.
</event>
<event>
 5   0  0.7212170E+07  0.9118800E+02  0.7818608E-02  0.1180000E+00
       11   -1    0    0    0    0  0.00000000000E+00  0.00000000000E+00  0.39999999673E+01  0.40000000000E+01  0.51109989000E-03 0.  1.
     -623   -1    0    0    0    0  0.00000000000E+00  0.00000000000E+00  0.12525980253E-10  0.17130000000E+03  0.17130000000E+03 0.  1.
       11    1    1    2    0    0  0.16093208344E-01  0.12278769532E-01  0.18296882910E+00  0.18408588534E+00  0.51109989000E-03 0.  1.
     -623    1    1    2    0    0 -0.18350414806E-01  0.29459991388E-01  0.15591592488E-02  0.17130000352E+03  0.17130000000E+03 0.  1.
      622    1    1    2    0    0  0.22572064621E-02 -0.41738760921E-01  0.38154719791E+01  0.38159105915E+01  0.40000000000E-01 0.  1.
</event>
<event>
 5   0  0.7212170E+07  0.9118800E+02  0.7818608E-02  0.1180000E+00
       11   -1    0    0    0    0  0.00000000000E+00  0.00000000000E+00  0.39999999673E+01  0.40000000000E+01  0.51109989000E-03 0.  1.
     -623   -1    0    0    0    0  0.00000000000E+00  0.00000000000E+00  0.12525980253E-10  0.17130000000E+03  0.17130000000E+03 0.  1.
       11    1    1    2    0    0  0.11133911069E-01 -0.21664998566E-02  0.12116467319E+01  0.12116999306E+01  0.51109989000E-03 0.  1.
     -623    1    1    2    0    0  0.35880796521E-03 -0.64352957931E-02  0.37717297844E-03  0.17130000012E+03  0.17130000000E+03 0.  1.
      622    1    1    2    0    0 -0.11492719034E-01  0.86017956512E-02  0.27879760634E+01  0.27882999487E+01  0.40000000000E-01 0. -1.
</event>
<event>
 5   0  0.7212170E+07  0.9118800E+02  0.7818608E-02  0.1180000E+00
       11   -1    0    0    0    0  0.00000000000E+00  0.00000000000E+00  0.39999999673E+01  0.40000000000E+01  0.51109989000E-03 0.  1.
     -623   -1    0    0    0    0  0.00000000000E+00  0.00000000000E+00  0.12525980253E-10  0.17130000000E+03  0.17130000000E+03 0.  1.
       11    1    1    2    0    0  0.28429479880E-01  0.73226785553E-02  0.10093239762E+01  0.10097509629E+01  0.51109989000E-03 0.  1.
     -623    1    1    2    0    0 -0.66505200897E-02 -0.69085056708E-02  0.77412094832E-03  0.17130000027E+03  0.17130000000E+03 0.  1.
      622    1    1    2    0    0 -0.21778959790E-01 -0.41417288453E-03  0.29899018702E+01  0.29902487669E+01  0.40000000000E-01 0.  0.
</event>
<event>
 5   0  0.7212170E+07  0.9118800E+02  0.7818608E-02  0.1180000E+00
       11   -1    0    0    0    0  0.00000000000E+00  0.00000000000E+00  0.39999999673E+01  0.40000000000E+01  0.51109989000E-03 0. -1.
     -623   -1    0    0    0    0  0.00000000000E+00  0.00000000000E+00  0.12525980253E-10  0.17130000000E+03  0.17130000000E+03 0. -1.
       11    1    1    2    0    0  0.31421849049E-01 -0.26548481499E-02  0.24102356897E+01  0.24104420180E+01  0.51109989000E-03 0. -1.
     -623    1    1    2    0    0 -0.20042065831E-02 -0.76945258518E-03  0.98568925830E-03  0.17130000002E+03  0.17130000000E+03 0. -1.
      622    1    1    2    0    0 -0.29417642466E-01  0.34243007351E-02  0.15887785888E+01  0.15895579661E+01  0.40000000000E-01 0.  0.
</event>
<event>
 5   0  0.7212170E+07  0.9118800E+02  0.7818608E-02  0.1180000E+00
       11   -1    0    0    0    0  0.00000000000E+00  0.00000000000E+00  0.39999999673E+01  0.40000000000E+01  0.51109989000E-03 0.  1.
     -623   -1    0    0    0    0  0.00000000000E+00  0.00000000000E+00  0.12525980253E-10  0.17130000000E+03  0.17130000000E+03 0. -1.
       11    1    1    2    0    0  0.16313094918E-03  0.27226085307E-02  0.70545147817E-02  0.75806735071E-02  0.51109989000E-03 0.  1.
     -623    1    1    2    0    0 -0.38909586195E-03 -0.24240952108E-03  0.72728984198E-03  0.17130000000E+03  0.17130000000E+03 0. -1.
      622    1    1    2    0    0  0.22596491276E-03 -0.24801990096E-02  0.39922181627E+01  0.39924193243E+01  0.40000000000E-01 0.  1.
</event>
<event>
 5   0  0.7212170E+07  0.9118800E+02  0.7818608E-02  0.1180000E+00
       11   -1    0    0    0    0  0.00000000000E+00  0.00000000000E+00  0.39999999673E+01  0.40000000000E+01  0.51109989000E-03 0. -1.
     -623   -1    0    0    0    0  0.00000000000E+00  0.00000000000E+00  0.12525980253E-10  0.17130000000E+03  0.17130000000E+03 0. -1.
       11    1    1    2    0    0  0.69980080044E-03  0.69811305192E-03  0.18332751401E-02  0.21445754429E-02  0.51109989000E-03 0. -1.
     -623    1    1    2    0    0 -0.16452688770E-02 -0.61568007986E-03  0.51150238308E-03  0.17130000001E+03  0.17130000000E+03 0. -1.
      622    1    1    2    0    0  0.94546807672E-03 -0.82432971991E-04  0.39976551903E+01  0.39978554153E+01  0.40000000000E-01 0. -1.
</event>
<event>
 5   0  0.7212170E+07  0.9118800E+02  0.7818608E-02  0.1180000E+00
       11   -1    0    0    0    0  0.00000000000E+00  0.00000000000E+00  0.39999999673E+01  0.40000000000E+01  0.51109989000E-03 0.  1.
     -623   -1    0    0    0    0  0.00000000000E+00  0.00000000000E+00  0.12525980253E-10  0.17130000000E+03  0.17130000000E+03 0.  1.
       11    1    1    2    0    0  0.61394503224E-01 -0.26012705400E-01  0.26787321117E+01  0.26795618921E+01  0.51109989000E-03 0.  1.
     -623    1    1    2    0    0  0.20839384330E-02  0.21006245745E-01  0.29739898336E-02  0.17130000133E+03  0.17130000000E+03 0.  1.
      622    1    1    2    0    0 -0.63478441657E-01  0.50064596537E-02  0.13182938660E+01  0.13204367816E+01  0.40000000000E-01 0.  1.
</event>
<event>
 5   0  0.7212170E+07  0.9118800E+02  0.7818608E-02  0.1180000E+00
       11   -1    0    0    0    0  0.00000000000E+00  0.00000000000E+00  0.39999999673E+01  0.40000000000E+01  0.51109989000E-03 0.  1.
     -623   -1    0    0    0    0  0.00000000000E+00  0.00000000000E+00  0.12525980253E-10  0.17130000000E+03  0.17130000000E+03 0. -1.
       11    1    1    2    0    0  0.27058723649E-01  0.82646627845E-01  0.10379653529E+01  0.10416021192E+01  0.51109989000E-03 0.  1.
     -623    1    1    2    0    0  0.53582583147E-02 -0.49223336981E-02  0.51063552599E-02  0.17130000023E+03  0.17130000000E+03 0. -1.
      622    1    1    2    0    0 -0.32416981963E-01 -0.77724294147E-01  0.29569282592E+01  0.29583976502E+01  0.40000000000E-01 0.  1.
</event>
<event>
 5   0  0.7212170E+07  0.9118800E+02  0.7818608E-02  0.1180000E+00
       11   -1    0    0    0    0  0.00000000000E+00  0.00000000000E+00  0.39999999673E+01  0.40000000000E+01  0.51109989000E-03 0. -1.
     -623   -1    0    0    0    0  0.00000000000E+00  0.00000000000E+00  0.12525980253E-10  0.17130000000E+03  0.17130000000E+03 0. -1.
       11    1    1    2    0    0  0.14420111606E-03 -0.31909671252E-03 -0.27345234808E-03  0.67721190040E-03  0.51109989000E-03 0. -1.
     -623    1    1    2    0    0  0.20124606041E-02 -0.12829973922E-02  0.11515934102E-02  0.17130000002E+03  0.17130000000E+03 0. -1.
      622    1    1    2    0    0 -0.21566617204E-02  0.16020941049E-02  0.39991218268E+01  0.39993227681E+01  0.40000000000E-01 0. -1.
</event>
<event>
 5   0  0.7212170E+07  0.9118800E+02  0.7818608E-02  0.1180000E+00
       11   -1    0    0    0    0  0.00000000000E+00  0.00000000000E+00  0.39999999673E+01  0.40000000000E+01  0.51109989000E-03 0.  1.
     -623   -1    0    0    0    0  0.00000000000E+00  0.00000000000E+00  0.12525980253E-10  0.17130000000E+03  0.17130000000E+03 0.  1.
       11    1    1    2    0    0 -0.17062750658E-01  0.69103970295E-03  0.11870395173E+00  0.11992707941E+00  0.51109989000E-03 0.  1.
     -623    1    1    2    0    0  0.83361223595E-03  0.41258724809E-02  0.14662730359E-02  0.17130000006E+03  0.17130000000E+03 0.  1.
      622    1    1    2    0    0  0.16229138422E-01 -0.48169121837E-02  0.38798297424E+01  0.38800728625E+01  0.40000000000E-01 0.  1.
</event>
<event>
 5   0  0.7212170E+07  0.9118800E+02  0.7818608E-02  0.1180000E+00
       11   -1    0    0    0    0  0.00000000000E+00  0.00000000000E+00  0.39999999673E+01  0.40000000000E+01  0.51109989000E-03 0. -1.
     -623   -1    0    0    0    0  0.00000000000E+00  0.00000000000E+00  0.12525980253E-10  0.17130000000E+03  0.17130000000E+03 0. -1.
       11    1    1    2    0    0  0.26866549707E-02 -0.76343930436E-02  0.52159304059E+00  0.52165607759E+00  0.51109989000E-03 0. -1.
     -623    1    1    2    0    0  0.15577741997E-01  0.35988635737E-02  0.34404982219E-03  0.17130000075E+03  0.17130000000E+03 0. -1.
      622    1    1    2    0    0 -0.18264396977E-01  0.40355294678E-02  0.34780628792E+01  0.34783431782E+01  0.40000000000E-01 0. -1.
</event>
<event>
 5   0  0.7212170E+07  0.9118800E+02  0.7818608E-02  0.1180000E+00
       11   -1    0    0    0    0  0.00000000000E+00  0.00000000000E+00  0.39999999673E+01  0.40000000000E+01  0.51109989000E-03 0. -1.
     -623   -1    0    0    0    0  0.00000000000E+00  0.00000000000E+00  0.12525980253E-10  0.17130000000E+03  0.17130000000E+03 0. -1.
       11    1    1    2    0    0  0.27112555728E-02 -0.64614366920E-02  0.30612400336E+00  0.30620461742E+00  0.51109989000E-03 0. -1.
     -623    1    1    2    0    0 -0.20064447632E-02  0.41691296120E-02  0.29800848902E-03  0.17130000006E+03  0.17130000000E+03 0. -1.
      622    1    1    2    0    0 -0.70481080901E-03  0.22923070788E-02  0.36935779567E+01  0.36937953210E+01  0.40000000000E-01 0. -1.
</event>
<event>
 5   0  0.7212170E+07  0.9118800E+02  0.7818608E-02  0.1180000E+00
       11   -1    0    0    0    0  0.00000000000E+00  0.00000000000E+00  0.39999999673E+01  0.40000000000E+01  0.51109989000E-03 0. -1.
     -623   -1    0    0    0    0  0.00000000000E+00  0.00000000000E+00  0.12525980253E-10  0.17130000000E+03  0.17130000000E+03 0.  1.
       11    1    1    2    0    0 -0.45911859900E-03  0.25701519910E-03  0.17282523851E-02  0.18774786563E-02  0.51109989000E-03 0. -1.
     -623    1    1    2    0    0  0.38954014338E-03  0.14392650477E-03  0.34931412623E-03  0.17130000000E+03  0.17130000000E+03 0.  1.
      622    1    1    2    0    0  0.69578455703E-04 -0.40094170384E-03  0.39979224000E+01  0.39981225196E+01  0.40000000000E-01 0. -1.
</event>
<event>
 5   0  0.7212170E+07  0.9118800E+02  0.7818608E-02  0.1180000E+00
       11   -1    0    0    0    0  0.00000000000E+00  0.00000000000E+00  0.39999999673E+01  0.40000000000E+01  0.51109989000E-03 0. -1.
     -623   -1    0    0    0    0  0.00000000000E+00  0.00000000000E+00  0.12525980253E-10  0.17130000000E+03  0.17130000000E+03 0. -1.
       11    1    1    2    0    0  0.28219138890E-02  0.30009561454E-03  0.11246598544E-01  0.11610359912E-01  0.51109989000E-03 0. -1.
     -623    1    1    2    0    0 -0.14379016515E-02 -0.21094956910E-02  0.56498653456E-03  0.17130000002E+03  0.17130000000E+03 0. -1.
      622    1    1    2    0    0 -0.13840122375E-02  0.18094000764E-02  0.39881883822E+01  0.39883896201E+01  0.40000000000E-01 0. -1.
</event>
<event>
 5   0  0.7212170E+07  0.9118800E+02  0.7818608E-02  0.1180000E+00
       11   -1    0    0    0    0  0.00000000000E+00  0.00000000000E+00  0.39999999673E+01  0.40000000000E+01  0.51109989000E-03 0.  1.
     -623   -1    0    0    0    0  0.00000000000E+00  0.00000000000E+00  0.12525980253E-10  0.17130000000E+03  0.17130000000E+03 0. -1.
       11    1    1    2    0    0 -0.23388477878E-01  0.20169226383E-01  0.12906607856E+01  0.12910303417E+01  0.51109989000E-03 0.  1.
     -623    1    1    2    0    0 -0.12677483352E-02 -0.41326907619E-02  0.82460673297E-03  0.17130000006E+03  0.17130000000E+03 0. -1.
      622    1    1    2    0    0  0.24656226213E-01 -0.16036535621E-01  0.27085145750E+01  0.27089696017E+01  0.40000000000E-01 0.  1.
</event>
<event>
 5   0  0.7212170E+07  0.9118800E+02  0.7818608E-02  0.1180000E+00
       11   -1    0    0    0    0  0.00000000000E+00  0.00000000000E+00  0.39999999673E+01  0.40000000000E+01  0.51109989000E-03 0. -1.
     -623   -1    0    0    0    0  0.00000000000E+00  0.00000000000E+00  0.12525980253E-10  0.17130000000E+03  0.17130000000E+03 0.  1.
       11    1    1    2    0    0  0.78198820778E-03  0.78975668962E-03  0.22274715790E-01  0.22308281149E-01  0.51109989000E-03 0. -1.
     -623    1    1    2    0    0  0.23982927442E-02 -0.45977349680E-04  0.23601740183E-03  0.17130000002E+03  0.17130000000E+03 0.  1.
      622    1    1    2    0    0 -0.31802809535E-02 -0.74377933991E-03  0.39774892366E+01  0.39776917044E+01  0.40000000000E-01 0. -1.
</event>
<event>
 5   0  0.7212170E+07  0.9118800E+02  0.7818608E-02  0.1180000E+00
       11   -1    0    0    0    0  0.00000000000E+00  0.00000000000E+00  0.39999999673E+01  0.40000000000E+01  0.51109989000E-03 0.  1.
     -623   -1    0    0    0    0  0.00000000000E+00  0.00000000000E+00  0.12525980253E-10  0.17130000000E+03  0.17130000000E+03 0.  1.
       11    1    1    2    0    0  0.38383304320E-03 -0.58966504960E-04  0.39861847038E-03  0.75559555071E-03  0.51109989000E-03 0.  1.
     -623    1    1    2    0    0 -0.26089998902E-02 -0.35519607693E-02  0.55929414842E-03  0.17130000006E+03  0.17130000000E+03 0.  1.
      622    1    1    2    0    0  0.22251668470E-02  0.36109272742E-02  0.39990420547E+01  0.39992443468E+01  0.40000000000E-01 0.  1.
</event>
<event>
 5   0  0.7212170E+07  0.9118800E+02  0.7818608E-02  0.1180000E+00
       11   -1    0    0    0    0  0.00000000000E+00  0.00000000000E+00  0.39999999673E+01  0.40000000000E+01  0.51109989000E-03 0. -1.
     -623   -1    0    0    0    0  0.00000000000E+00  0.00000000000E+00  0.12525980253E-10  0.17130000000E+03  0.17130000000E+03 0.  1.
       11    1    1    2    0    0  0.11842970091E-02  0.15956497106E-01  0.32599995692E+00  0.32639277794E+00  0.51109989000E-03 0. -1.
     -623    1    1    2    0    0 -0.79675439663E-02 -0.78056784172E-02  0.62623457561E-03  0.17130000036E+03  0.17130000000E+03 0.  1.
      622    1    1    2    0    0  0.67832469578E-02 -0.81508186885E-02  0.36733737762E+01  0.36736068581E+01  0.40000000000E-01 0. -1.
</event>
<event>
 5   0  0.7212170E+07  0.9118800E+02  0.7818608E-02  0.1180000E+00
       11   -1    0    0    0    0  0.00000000000E+00  0.00000000000E+00  0.39999999673E+01  0.40000000000E+01  0.51109989000E-03 0.  1.
     -623   -1    0    0    0    0  0.00000000000E+00  0.00000000000E+00  0.12525980253E-10  0.17130000000E+03  0.17130000000E+03 0.  1.
       11    1    1    2    0    0  0.50442988912E-02  0.27382690749E-05  0.56040960968E+00  0.56043254439E+00  0.51109989000E-03 0.  1.
     -623    1    1    2    0    0  0.51031953331E-03 -0.65258589331E-03  0.26004633794E-03  0.17130000000E+03  0.17130000000E+03 0.  1.
      622    1    1    2    0    0 -0.55546184247E-02  0.64984762452E-03  0.34393303131E+01  0.34395674552E+01  0.40000000000E-01 0.  1.
</event>
<event>
 5   0  0.7212170E+07  0.9118800E+02  0.7818608E-02  0.1180000E+00
       11   -1    0    0    0    0  0.00000000000E+00  0.00000000000E+00  0.39999999673E+01  0.40000000000E+01  0.51109989000E-03 0. -1.
     -623   -1    0    0    0    0  0.00000000000E+00  0.00000000000E+00  0.12525980253E-10  0.17130000000E+03  0.17130000000E+03 0.  1.
       11    1    1    2    0    0 -0.45738646664E-02  0.37480705170E-03  0.11583683766E+00  0.11592883550E+00  0.51109989000E-03 0. -1.
     -623    1    1    2    0    0  0.15093333324E-02  0.25651938493E-02  0.30028801225E-03  0.17130000003E+03  0.17130000000E+03 0.  1.
      622    1    1    2    0    0  0.30645313337E-02 -0.29400009016E-02  0.38838628425E+01  0.38840711392E+01  0.40000000000E-01 0. -1.
</event>
<event>
 5   0  0.7212170E+07  0.9118800E+02  0.7818608E-02  0.1180000E+00
       11   -1    0    0    0    0  0.00000000000E+00  0.00000000000E+00  0.39999999673E+01  0.40000000000E+01  0.51109989000E-03 0.  1.
     -623   -1    0    0    0    0  0.00000000000E+00  0.00000000000E+00  0.12525980253E-10  0.17130000000E+03  0.17130000000E+03 0.  1.
       11    1    1    2    0    0 -0.18414888084E-02  0.54988018245E-04  0.76519948688E-02  0.78872272241E-02  0.51109989000E-03 0.  1.
     -623    1    1    2    0    0  0.25346512223E-02  0.12682455289E-03  0.43568356083E-03  0.17130000002E+03  0.17130000000E+03 0.  1.
      622    1    1    2    0    0 -0.69316241413E-03 -0.18181257114E-03  0.39919122893E+01  0.39921127538E+01  0.40000000000E-01 0.  1.
</event>
<event>
 5   0  0.7212170E+07  0.9118800E+02  0.7818608E-02  0.1180000E+00
       11   -1    0    0    0    0  0.00000000000E+00  0.00000000000E+00  0.39999999673E+01  0.40000000000E+01  0.51109989000E-03 0.  1.
     -623   -1    0    0    0    0  0.00000000000E+00  0.00000000000E+00  0.12525980253E-10  0.17130000000E+03  0.17130000000E+03 0. -1.
       11    1    1    2    0    0 -0.29388218865E-02  0.35790134949E-02  0.10112972037E+00  0.10123698720E+00  0.51109989000E-03 0.  1.
     -623    1    1    2    0    0  0.23650662300E-02 -0.40314470462E-02  0.31256540240E-03  0.17130000006E+03  0.17130000000E+03 0. -1.
      622    1    1    2    0    0  0.57375565667E-03  0.45243355102E-03  0.38985576813E+01  0.38987629485E+01  0.40000000000E-01 0.  1.
</event>
<event>
 5   0  0.7212170E+07  0.9118800E+02  0.7818608E-02  0.1180000E+00
       11   -1    0    0    0    0  0.00000000000E+00  0.00000000000E+00  0.39999999673E+01  0.40000000000E+01  0.51109989000E-03 0.  1.
     -623   -1    0    0    0    0  0.00000000000E+00  0.00000000000E+00  0.12525980253E-10  0.17130000000E+03  0.17130000000E+03 0.  1.
       11    1    1    2    0    0 -0.45078022960E-02 -0.60526462485E-02  0.68277106599E-01  0.68694827438E-01  0.51109989000E-03 0.  1.
     -623    1    1    2    0    0  0.30848228672E-02  0.11184948040E-02  0.62457490826E-03  0.17130000003E+03  0.17130000000E+03 0.  1.
      622    1    1    2    0    0  0.14229794282E-02  0.49341514443E-02  0.39310982865E+01  0.39313051406E+01  0.40000000000E-01 0.  0.
</event>
<event>
 5   0  0.7212170E+07  0.9118800E+02  0.7818608E-02  0.1180000E+00
       11   -1    0    0    0    0  0.00000000000E+00  0.00000000000E+00  0.39999999673E+01  0.40000000000E+01  0.51109989000E-03 0.  1.
     -623   -1    0    0    0    0  0.00000000000E+00  0.00000000000E+00  0.12525980253E-10  0.17130000000E+03  0.17130000000E+03 0. -1.
       11    1    1    2    0    0  0.18227368690E-02 -0.34793109507E-02  0.30834637545E-02  0.50196559850E-02  0.51109989000E-03 0.  1.
     -623    1    1    2    0    0 -0.50834923094E-02  0.58567792340E-02  0.21386430890E-02  0.17130000019E+03  0.17130000000E+03 0. -1.
      622    1    1    2    0    0  0.32607554404E-02 -0.23774682834E-02  0.39947778605E+01  0.39949801551E+01  0.40000000000E-01 0.  1.
</event>
<event>
 5   0  0.7212170E+07  0.9118800E+02  0.7818608E-02  0.1180000E+00
       11   -1    0    0    0    0  0.00000000000E+00  0.00000000000E+00  0.39999999673E+01  0.40000000000E+01  0.51109989000E-03 0.  1.
     -623   -1    0    0    0    0  0.00000000000E+00  0.00000000000E+00  0.12525980253E-10  0.17130000000E+03  0.17130000000E+03 0.  1.
       11    1    1    2    0    0  0.47942203319E-03  0.23108567560E-03  0.62960462715E-02  0.63391377825E-02  0.51109989000E-03 0.  1.
     -623    1    1    2    0    0  0.15679954507E-02 -0.85410436895E-03  0.24396428112E-03  0.17130000001E+03  0.17130000000E+03 0.  1.
      622    1    1    2    0    0 -0.20474174842E-02  0.62301869349E-03  0.39934599575E+01  0.39936608534E+01  0.40000000000E-01 0.  1.
</event>
<event>
 5   0  0.7212170E+07  0.9118800E+02  0.7818608E-02  0.1180000E+00
       11   -1    0    0    0    0  0.00000000000E+00  0.00000000000E+00  0.39999999673E+01  0.40000000000E+01  0.51109989000E-03 0.  1.
     -623   -1    0    0    0    0  0.00000000000E+00  0.00000000000E+00  0.12525980253E-10  0.17130000000E+03  0.17130000000E+03 0.  1.
       11    1    1    2    0    0 -0.15016849287E-01 -0.11197122228E-01  0.12618612230E+00  0.12756990238E+00  0.51109989000E-03 0.  1.
     -623    1    1    2    0    0  0.49870468690E-02 -0.32387546203E-03  0.16205509858E-02  0.17130000008E+03  0.17130000000E+03 0.  1.
      622    1    1    2    0    0  0.10029802417E-01  0.11520997690E-01  0.38721932944E+01  0.38724300174E+01  0.40000000000E-01 0.  1.
</event>
<event>
 5   0  0.7212170E+07  0.9118800E+02  0.7818608E-02  0.1180000E+00
       11   -1    0    0    0    0  0.00000000000E+00  0.00000000000E+00  0.39999999673E+01  0.40000000000E+01  0.51109989000E-03 0.  1.
     -623   -1    0    0    0    0  0.00000000000E+00  0.00000000000E+00  0.12525980253E-10  0.17130000000E+03  0.17130000000E+03 0.  1.
       11    1    1    2    0    0  0.34529725338E-03  0.15288969700E-02  0.26712044425E+00  0.26712553175E+00  0.51109989000E-03 0.  1.
     -623    1    1    2    0    0 -0.41808288457E-03  0.57973148055E-03  0.21997101127E-03  0.17130000000E+03  0.17130000000E+03 0.  1.
      622    1    1    2    0    0  0.72785631044E-04 -0.21086284503E-02  0.37326595507E+01  0.37328744652E+01  0.40000000000E-01 0.  1.
</event>
<event>
 5   0  0.7212170E+07  0.9118800E+02  0.7818608E-02  0.1180000E+00
       11   -1    0    0    0    0  0.00000000000E+00  0.00000000000E+00  0.39999999673E+01  0.40000000000E+01  0.51109989000E-03 0. -1.
     -623   -1    0    0    0    0  0.00000000000E+00  0.00000000000E+00  0.12525980253E-10  0.17130000000E+03  0.17130000000E+03 0.  1.
       11    1    1    2    0    0 -0.40991491401E-02  0.44090525243E-03  0.80613573047E-02  0.90688547130E-02  0.51109989000E-03 0. -1.
     -623    1    1    2    0    0 -0.18316504777E-02 -0.16962178810E-02  0.12125512058E-02  0.17130000002E+03  0.17130000000E+03 0.  1.
      622    1    1    2    0    0  0.59307996180E-02  0.12553126288E-02  0.39907260593E+01  0.39909311233E+01  0.40000000000E-01 0. -1.
</event>
<event>
 5   0  0.7212170E+07  0.9118800E+02  0.7818608E-02  0.1180000E+00
       11   -1    0    0    0    0  0.00000000000E+00  0.00000000000E+00  0.39999999673E+01  0.40000000000E+01  0.51109989000E-03 0.  1.
     -623   -1    0    0    0    0  0.00000000000E+00  0.00000000000E+00  0.12525980253E-10  0.17130000000E+03  0.17130000000E+03 0.  1.
       11    1    1    2    0    0 -0.10150028468E-03  0.53332710917E-03  0.33996121445E-02  0.34804203688E-02  0.51109989000E-03 0.  1.
     -623    1    1    2    0    0  0.26359268282E-03 -0.43925354046E-03  0.28096016098E-03  0.17130000000E+03  0.17130000000E+03 0.  1.
      622    1    1    2    0    0 -0.16209239818E-03 -0.94073568634E-04  0.39963193958E+01  0.39965195793E+01  0.40000000000E-01 0.  1.
</event>
<event>
 5   0  0.7212170E+07  0.9118800E+02  0.7818608E-02  0.1180000E+00
       11   -1    0    0    0    0  0.00000000000E+00  0.00000000000E+00  0.39999999673E+01  0.40000000000E+01  0.51109989000E-03 0.  1.
     -623   -1    0    0    0    0  0.00000000000E+00  0.00000000000E+00  0.12525980253E-10  0.17130000000E+03  0.17130000000E+03 0.  1.
       11    1    1    2    0    0  0.37766379005E-03 -0.13521045626E-02  0.30995081451E-02  0.34407834174E-02  0.51109989000E-03 0.  1.
     -623    1    1    2    0    0 -0.35519891166E-03  0.17040232984E-02  0.54144509065E-03  0.17130000001E+03  0.17130000000E+03 0.  1.
      622    1    1    2    0    0 -0.22464878365E-04 -0.35191873583E-03  0.39963590144E+01  0.39965592071E+01  0.40000000000E-01 0.  1.
</event>
<event>
 5   0  0.7212170E+07  0.9118800E+02  0.7818608E-02  0.1180000E+00
       11   -1    0    0    0    0  0.00000000000E+00  0.00000000000E+00  0.39999999673E+01  0.40000000000E+01  0.51109989000E-03 0. -1.
     -623   -1    0    0    0    0  0.00000000000E+00  0.00000000000E+00  0.12525980253E-10  0.17130000000E+03  0.17130000000E+03 0. -1.
       11    1    1    2    0    0  0.58911384676E-03 -0.50566622065E-04  0.51380940740E-02  0.51971959669E-02  0.51109989000E-03 0. -1.
     -623    1    1    2    0    0 -0.24287143659E-03  0.10842687001E-03  0.25935029816E-03  0.17130000000E+03  0.17130000000E+03 0. -1.
      622    1    1    2    0    0 -0.34624241022E-03 -0.57860247927E-04  0.39946025222E+01  0.39948028028E+01  0.40000000000E-01 0. -1.
</event>
<event>
 5   0  0.7212170E+07  0.9118800E+02  0.7818608E-02  0.1180000E+00
       11   -1    0    0    0    0  0.00000000000E+00  0.00000000000E+00  0.39999999673E+01  0.40000000000E+01  0.51109989000E-03 0.  1.
     -623   -1    0    0    0    0  0.00000000000E+00  0.00000000000E+00  0.12525980253E-10  0.17130000000E+03  0.17130000000E+03 0. -1.
       11    1    1    2    0    0 -0.19043894743E-02 -0.63583266190E-03  0.21529730285E-01  0.21629181485E-01  0.51109989000E-03 0.  1.
     -623    1    1    2    0    0  0.63995393593E-03 -0.83685910058E-03  0.30098802077E-03  0.17130000000E+03  0.17130000000E+03 0. -1.
      622    1    1    2    0    0  0.12644355380E-02  0.14726917629E-02  0.39781692511E+01  0.39783708171E+01  0.40000000000E-01 0.  1.
</event>
<event>
 5   0  0.7212170E+07  0.9118800E+02  0.7818608E-02  0.1180000E+00
       11   -1    0    0    0    0  0.00000000000E+00  0.00000000000E+00  0.39999999673E+01  0.40000000000E+01  0.51109989000E-03 0. -1.
     -623   -1    0    0    0    0  0.00000000000E+00  0.00000000000E+00  0.12525980253E-10  0.17130000000E+03  0.17130000000E+03 0. -1.
       11    1    1    2    0    0 -0.28045335499E-02  0.37806117569E-02  0.40579602786E+00  0.40582365121E+00  0.51109989000E-03 0. -1.
     -623    1    1    2    0    0  0.20591417563E-04 -0.83455869091E-03  0.25246783815E-03  0.17130000000E+03  0.17130000000E+03 0. -1.
      622    1    1    2    0    0  0.27839421323E-02 -0.29460530657E-02  0.35939514728E+01  0.35941763477E+01  0.40000000000E-01 0. -1.
</event>
<event>
 5   0  0.7212170E+07  0.9118800E+02  0.7818608E-02  0.1180000E+00
       11   -1    0    0    0    0  0.00000000000E+00  0.00000000000E+00  0.39999999673E+01  0.40000000000E+01  0.51109989000E-03 0. -1.
     -623   -1    0    0    0    0  0.00000000000E+00  0.00000000000E+00  0.12525980253E-10  0.17130000000E+03  0.17130000000E+03 0.  1.
       11    1    1    2    0    0  0.54684947748E-02 -0.37396766200E-01  0.90604972720E+00  0.90683779803E+00  0.51109989000E-03 0. -1.
     -623    1    1    2    0    0 -0.63484128402E-03  0.12156914620E-02  0.12621035090E-02  0.17130000001E+03  0.17130000000E+03 0.  1.
      622    1    1    2    0    0 -0.48336534908E-02  0.36181074738E-01  0.30926881368E+01  0.30931621920E+01  0.40000000000E-01 0.  0.
</event>
<event>
 5   0  0.7212170E+07  0.9118800E+02  0.7818608E-02  0.1180000E+00
       11   -1    0    0    0    0  0.00000000000E+00  0.00000000000E+00  0.39999999673E+01  0.40000000000E+01  0.51109989000E-03 0.  1.
     -623   -1    0    0    0    0  0.00000000000E+00  0.00000000000E+00  0.12525980253E-10  0.17130000000E+03  0.17130000000E+03 0. -1.
       11    1    1    2    0    0 -0.33358820651E-01  0.17768108030E-01  0.91721167573E+00  0.91799021558E+00  0.51109989000E-03 0.  1.
     -623    1    1    2    0    0 -0.16292703278E-02  0.18095373124E-01  0.14463796090E-02  0.17130000097E+03  0.17130000000E+03 0. -1.
      622    1    1    2    0    0  0.34988090979E-01 -0.35863481153E-01  0.30813419119E+01  0.30820088147E+01  0.40000000000E-01 0.  1.
</event>
<event>
 5   0  0.7212170E+07  0.9118800E+02  0.7818608E-02  0.1180000E+00
       11   -1    0    0    0    0  0.00000000000E+00  0.00000000000E+00  0.39999999673E+01  0.40000000000E+01  0.51109989000E-03 0.  1.
     -623   -1    0    0    0    0  0.00000000000E+00  0.00000000000E+00  0.12525980253E-10  0.17130000000E+03  0.17130000000E+03 0. -1.
       11    1    1    2    0    0 -0.44460083608E-03 -0.27851358415E-03  0.42603074994E-03  0.84732816397E-03  0.51109989000E-03 0. -1.
     -623    1    1    2    0    0 -0.10473914691E-02 -0.14124972470E-02  0.62195816924E-03  0.17130000001E+03  0.17130000000E+03 0. -1.
      622    1    1    2    0    0  0.14919923053E-02  0.16910108313E-02  0.39989519789E+01  0.39991526622E+01  0.40000000000E-01 0.  1.
</event>
<event>
 5   0  0.7212170E+07  0.9118800E+02  0.7818608E-02  0.1180000E+00
       11   -1    0    0    0    0  0.00000000000E+00  0.00000000000E+00  0.39999999673E+01  0.40000000000E+01  0.51109989000E-03 0.  1.
     -623   -1    0    0    0    0  0.00000000000E+00  0.00000000000E+00  0.12525980253E-10  0.17130000000E+03  0.17130000000E+03 0.  1.
       11    1    1    2    0    0 -0.82178801223E-03  0.25931502822E-02  0.79770079702E-02  0.84435563110E-02  0.51109989000E-03 0.  1.
     -623    1    1    2    0    0  0.15553356942E-02 -0.25859426414E-02  0.66703909708E-03  0.17130000003E+03  0.17130000000E+03 0.  1.
      622    1    1    2    0    0 -0.73354768186E-03 -0.72076409042E-05  0.39913559201E+01  0.39915564156E+01  0.40000000000E-01 0.  1.
</event>
<event>
 5   0  0.7212170E+07  0.9118800E+02  0.7818608E-02  0.1180000E+00
       11   -1    0    0    0    0  0.00000000000E+00  0.00000000000E+00  0.39999999673E+01  0.40000000000E+01  0.51109989000E-03 0.  1.
     -623   -1    0    0    0    0  0.00000000000E+00  0.00000000000E+00  0.12525980253E-10  0.17130000000E+03  0.17130000000E+03 0. -1.
       11    1    1    2    0    0  0.68753573685E-02 -0.36330192993E-02  0.76917025398E+00  0.76920973096E+00  0.51109989000E-03 0.  1.
     -623    1    1    2    0    0 -0.18945302766E-02 -0.97813436516E-03  0.29421538642E-03  0.17130000001E+03  0.17130000000E+03 0. -1.
      622    1    1    2    0    0 -0.49808270912E-02  0.46111536648E-02  0.32305354995E+01  0.32307902570E+01  0.40000000000E-01 0.  1.
</event>
<event>
 5   0  0.7212170E+07  0.9118800E+02  0.7818608E-02  0.1180000E+00
       11   -1    0    0    0    0  0.00000000000E+00  0.00000000000E+00  0.39999999673E+01  0.40000000000E+01  0.51109989000E-03 0.  1.
     -623   -1    0    0    0    0  0.00000000000E+00  0.00000000000E+00  0.12525980253E-10  0.17130000000E+03  0.17130000000E+03 0.  1.
       11    1    1    2    0    0 -0.55955076087E-02  0.34380982869E-03  0.34363572196E+00  0.34368182748E+00  0.51109989000E-03 0.  1.
     -623    1    1    2    0    0  0.33550231087E-03  0.10970413876E-03  0.26869123784E-03  0.17130000000E+03  0.17130000000E+03 0.  1.
      622    1    1    2    0    0  0.52600052977E-02 -0.45351396750E-03  0.36560955561E+01  0.36563181739E+01  0.40000000000E-01 0.  1.
</event>
<event>
 5   0  0.7212170E+07  0.9118800E+02  0.7818608E-02  0.1180000E+00
       11   -1    0    0    0    0  0.00000000000E+00  0.00000000000E+00  0.39999999673E+01  0.40000000000E+01  0.51109989000E-03 0. -1.
     -623   -1    0    0    0    0  0.00000000000E+00  0.00000000000E+00  0.12525980253E-10  0.17130000000E+03  0.17130000000E+03 0.  1.
       11    1    1    2    0    0  0.21601356781E-01 -0.11309966332E-01  0.10238485728E+01  0.10241390018E+01  0.51109989000E-03 0. -1.
     -623    1    1    2    0    0 -0.97325589188E-02  0.33286807403E-01  0.66758041324E-03  0.17130000351E+03  0.17130000000E+03 0.  1.
      622    1    1    2    0    0 -0.11868797863E-01 -0.21976841066E-01  0.29754838137E+01  0.29758574857E+01  0.40000000000E-01 0. -1.
</event>
<event>
 5   0  0.7212170E+07  0.9118800E+02  0.7818608E-02  0.1180000E+00
       11   -1    0    0    0    0  0.00000000000E+00  0.00000000000E+00  0.39999999673E+01  0.40000000000E+01  0.51109989000E-03 0. -1.
     -623   -1    0    0    0    0  0.00000000000E+00  0.00000000000E+00  0.12525980253E-10  0.17130000000E+03  0.17130000000E+03 0. -1.
       11    1    1    2    0    0  0.34587975796E-01  0.31322453342E-01  0.44425789138E+00  0.44670209248E+00  0.51109989000E-03 0. -1.
     -623    1    1    2    0    0 -0.74203149084E-01 -0.95328509502E-02  0.29733544348E-02  0.17130001636E+03  0.17130000000E+03 0. -1.
      622    1    1    2    0    0  0.39615173286E-01 -0.21789602392E-01  0.35527687215E+01  0.35532815448E+01  0.40000000000E-01 0. -1.
</event>
<event>
 5   0  0.7212170E+07  0.9118800E+02  0.7818608E-02  0.1180000E+00
       11   -1    0    0    0    0  0.00000000000E+00  0.00000000000E+00  0.39999999673E+01  0.40000000000E+01  0.51109989000E-03 0. -1.
     -623   -1    0    0    0    0  0.00000000000E+00  0.00000000000E+00  0.12525980253E-10  0.17130000000E+03  0.17130000000E+03 0. -1.
       11    1    1    2    0    0 -0.34356770563E-02 -0.20801536440E-01  0.95852346504E+00  0.95875544434E+00  0.51109989000E-03 0. -1.
     -623    1    1    2    0    0  0.22918735033E-02 -0.17651856019E-02  0.57898224824E-03  0.17130000003E+03  0.17130000000E+03 0. -1.
      622    1    1    2    0    0  0.11438035533E-02  0.22566722042E-01  0.30408975196E+01  0.30412445298E+01  0.40000000000E-01 0. -1.
</event>
<event>
 5   0  0.7212170E+07  0.9118800E+02  0.7818608E-02  0.1180000E+00
       11   -1    0    0    0    0  0.00000000000E+00  0.00000000000E+00  0.39999999673E+01  0.40000000000E+01  0.51109989000E-03 0. -1.
     -623   -1    0    0    0    0  0.00000000000E+00  0.00000000000E+00  0.12525980253E-10  0.17130000000E+03  0.17130000000E+03 0.  1.
       11    1    1    2    0    0  0.58553729416E-02 -0.12225005164E-02  0.29291527893E+00  0.29297679388E+00  0.51109989000E-03 0. -1.
     -623    1    1    2    0    0 -0.38461535599E-03 -0.40892428265E-03  0.28169239368E-03  0.17130000000E+03  0.17130000000E+03 0.  1.
      622    1    1    2    0    0 -0.54707575856E-02  0.16314247991E-02  0.37068029963E+01  0.37070232052E+01  0.40000000000E-01 0. -1.
</event>
<event>
 5   0  0.7212170E+07  0.9118800E+02  0.7818608E-02  0.1180000E+00
       11   -1    0    0    0    0  0.00000000000E+00  0.00000000000E+00  0.39999999673E+01  0.40000000000E+01  0.51109989000E-03 0. -1.
     -623   -1    0    0    0    0  0.00000000000E+00  0.00000000000E+00  0.12525980253E-10  0.17130000000E+03  0.17130000000E+03 0.  1.
       11    1    1    2    0    0  0.10874102919E-01 -0.16024014441E-01  0.33831024353E+00  0.33886442311E+00  0.51109989000E-03 0. -1.
     -623    1    1    2    0    0 -0.57805287656E-05 -0.26878318396E-02  0.83664164555E-03  0.17130000002E+03  0.17130000000E+03 0.  1.
      622    1    1    2    0    0 -0.10868322390E-01  0.18711846280E-01  0.36608530819E+01  0.36611355535E+01  0.40000000000E-01 0. -1.
</event>
<event>
 5   0  0.7212170E+07  0.9118800E+02  0.7818608E-02  0.1180000E+00
       11   -1    0    0    0    0  0.00000000000E+00  0.00000000000E+00  0.39999999673E+01  0.40000000000E+01  0.51109989000E-03 0.  1.
     -623   -1    0    0    0    0  0.00000000000E+00  0.00000000000E+00  0.12525980253E-10  0.17130000000E+03  0.17130000000E+03 0. -1.
       11    1    1    2    0    0  0.49042964459E-02  0.18474525731E-02  0.44330262008E-01  0.44641892404E-01  0.51109989000E-03 0.  1.
     -623    1    1    2    0    0 -0.11376790908E-01 -0.52588523051E-02  0.52108677275E-03  0.17130000046E+03  0.17130000000E+03 0. -1.
      622    1    1    2    0    0  0.64724944655E-02  0.34113997335E-02  0.39551486197E+01  0.39553576494E+01  0.40000000000E-01 0.  1.
</event>
<event>
 5   0  0.7212170E+07  0.9118800E+02  0.7818608E-02  0.1180000E+00
       11   -1    0    0    0    0  0.00000000000E+00  0.00000000000E+00  0.39999999673E+01  0.40000000000E+01  0.51109989000E-03 0.  1.
     -623   -1    0    0    0    0  0.00000000000E+00  0.00000000000E+00  0.12525980253E-10  0.17130000000E+03  0.17130000000E+03 0.  1.
       11    1    1    2    0    0 -0.75497119489E-04  0.29794576498E-02  0.26948048379E-01  0.27117179098E-01  0.51109989000E-03 0.  1.
     -623    1    1    2    0    0  0.56907410784E-04 -0.24884358023E-02  0.37051716977E-03  0.17130000002E+03  0.17130000000E+03 0.  1.
      622    1    1    2    0    0  0.18589708695E-04 -0.49102184704E-03  0.39726814025E+01  0.39728828031E+01  0.40000000000E-01 0.  1.
</event>
<event>
 5   0  0.7212170E+07  0.9118800E+02  0.7818608E-02  0.1180000E+00
       11   -1    0    0    0    0  0.00000000000E+00  0.00000000000E+00  0.39999999673E+01  0.40000000000E+01  0.51109989000E-03 0. -1.
     -623   -1    0    0    0    0  0.00000000000E+00  0.00000000000E+00  0.12525980253E-10  0.17130000000E+03  0.17130000000E+03 0.  1.
       11    1    1    2    0    0 -0.15295406644E-02  0.68346953796E-02  0.35519320419E-01  0.36206848823E-01  0.51109989000E-03 0. -1.
     -623    1    1    2    0    0  0.25885331470E-02  0.22258805007E-02  0.89986166763E-03  0.17130000004E+03  0.17130000000E+03 0.  1.
      622    1    1    2    0    0 -0.10589924826E-02 -0.90605758803E-02  0.39635807853E+01  0.39637931148E+01  0.40000000000E-01 0. -1.
</event>
<event>
 5   0  0.7212170E+07  0.9118800E+02  0.7818608E-02  0.1180000E+00
       11   -1    0    0    0    0  0.00000000000E+00  0.00000000000E+00  0.39999999673E+01  0.40000000000E+01  0.51109989000E-03 0. -1.
     -623   -1    0    0    0    0  0.00000000000E+00  0.00000000000E+00  0.12525980253E-10  0.17130000000E+03  0.17130000000E+03 0.  1.
       11    1    1    2    0    0  0.84050861705E-02  0.21538971898E-01  0.14802309663E+01  0.14804116142E+01  0.51109989000E-03 0. -1.
     -623    1    1    2    0    0  0.13013142250E-01 -0.26467378781E-01  0.59655674851E-03  0.17130000254E+03  0.17130000000E+03 0.  1.
      622    1    1    2    0    0 -0.21418228422E-01  0.49284068862E-02  0.25191724450E+01  0.25195858464E+01  0.40000000000E-01 0. -1.
</event>
<event>
 5   0  0.7212170E+07  0.9118800E+02  0.7818608E-02  0.1180000E+00
       11   -1    0    0    0    0  0.00000000000E+00  0.00000000000E+00  0.39999999673E+01  0.40000000000E+01  0.51109989000E-03 0. -1.
     -623   -1    0    0    0    0  0.00000000000E+00  0.00000000000E+00  0.12525980253E-10  0.17130000000E+03  0.17130000000E+03 0.  1.
       11    1    1    2    0    0  0.11958423053E-02  0.45814942214E-03  0.11548984331E+00  0.11549807388E+00  0.51109989000E-03 0. -1.
     -623    1    1    2    0    0 -0.97378303580E-03  0.65233490326E-03  0.21431923135E-03  0.17130000000E+03  0.17130000000E+03 0.  1.
      622    1    1    2    0    0 -0.22205926923E-03 -0.11104843256E-02  0.38842958060E+01  0.38845019231E+01  0.40000000000E-01 0. -1.
</event>
<event>
 5   0  0.7212170E+07  0.9118800E+02  0.7818608E-02  0.1180000E+00
       11   -1    0    0    0    0  0.00000000000E+00  0.00000000000E+00  0.39999999673E+01  0.40000000000E+01  0.51109989000E-03 0. -1.
     -623   -1    0    0    0    0  0.00000000000E+00  0.00000000000E+00  0.12525980253E-10  0.17130000000E+03  0.17130000000E+03 0. -1.
       11    1    1    2    0    0 -0.59070811902E-03  0.12477245117E-02  0.32495819502E-02  0.35674582671E-02  0.51109989000E-03 0. -1.
     -623    1    1    2    0    0  0.17291642909E-03  0.55889213473E-03  0.51845921322E-03  0.17130000000E+03  0.17130000000E+03 0. -1.
      622    1    1    2    0    0  0.41779168992E-03 -0.18066166464E-02  0.39962319262E+01  0.39964325399E+01  0.40000000000E-01 0. -1.
</event>
<event>
 5   0  0.7212170E+07  0.9118800E+02  0.7818608E-02  0.1180000E+00
       11   -1    0    0    0    0  0.00000000000E+00  0.00000000000E+00  0.39999999673E+01  0.40000000000E+01  0.51109989000E-03 0.  1.
     -623   -1    0    0    0    0  0.00000000000E+00  0.00000000000E+00  0.12525980253E-10  0.17130000000E+03  0.17130000000E+03 0.  1.
       11    1    1    2    0    0  0.10377467505E-01 -0.77765318557E-02  0.15572816957E+00  0.15626800792E+00  0.51109989000E-03 0.  1.
     -623    1    1    2    0    0 -0.14647111938E-02 -0.10863140398E-02  0.76850628825E-03  0.17130000001E+03  0.17130000000E+03 0.  1.
      622    1    1    2    0    0 -0.89127563106E-02  0.88628458957E-02  0.38435032922E+01  0.38437319813E+01  0.40000000000E-01 0.  1.
</event>
<event>
 5   0  0.7212170E+07  0.9118800E+02  0.7818608E-02  0.1180000E+00
       11   -1    0    0    0    0  0.00000000000E+00  0.00000000000E+00  0.39999999673E+01  0.40000000000E+01  0.51109989000E-03 0. -1.
     -623   -1    0    0    0    0  0.00000000000E+00  0.00000000000E+00  0.12525980253E-10  0.17130000000E+03  0.17130000000E+03 0. -1.
       11    1    1    2    0    0 -0.30633411396E-01 -0.42247478711E-01  0.12880166054E+01  0.12890734240E+01  0.51109989000E-03 0. -1.
     -623    1    1    2    0    0  0.57012880708E-03  0.33854898086E-01  0.15349704008E-02  0.17130000335E+03  0.17130000000E+03 0. -1.
      622    1    1    2    0    0  0.30063282589E-01  0.83925806228E-02  0.27104483919E+01  0.27109232231E+01  0.40000000000E-01 0. -1.
</event>
<event>
 5   0  0.7212170E+07  0.9118800E+02  0.7818608E-02  0.1180000E+00
       11   -1    0    0    0    0  0.00000000000E+00  0.00000000000E+00  0.39999999673E+01  0.40000000000E+01  0.51109989000E-03 0.  1.
     -623   -1    0    0    0    0  0.00000000000E+00  0.00000000000E+00  0.12525980253E-10  0.17130000000E+03  0.17130000000E+03 0.  1.
       11    1    1    2    0    0 -0.52842611637E-02 -0.72485697428E-02  0.30951637513E+01  0.30951767920E+01  0.51109989000E-03 0.  1.
     -623    1    1    2    0    0 -0.45847165226E-03  0.70305222243E-03  0.93953691829E-03  0.17130000000E+03  0.17130000000E+03 0.  1.
      622    1    1    2    0    0  0.57427328159E-02  0.65455175204E-02  0.90389667902E+00  0.90482320324E+00  0.40000000000E-01 0.  1.
</event>
<event>
 5   0  0.7212170E+07  0.9118800E+02  0.7818608E-02  0.1180000E+00
       11   -1    0    0    0    0  0.00000000000E+00  0.00000000000E+00  0.39999999673E+01  0.40000000000E+01  0.51109989000E-03 0.  1.
     -623   -1    0    0    0    0  0.00000000000E+00  0.00000000000E+00  0.12525980253E-10  0.17130000000E+03  0.17130000000E+03 0.  1.
       11    1    1    2    0    0  0.15782231979E-01  0.27973940907E-02  0.18573369165E+00  0.18642470249E+00  0.51109989000E-03 0.  1.
     -623    1    1    2    0    0  0.24314577175E-02  0.27215248558E-04  0.94532391827E-03  0.17130000002E+03  0.17130000000E+03 0.  1.
      622    1    1    2    0    0 -0.18213689697E-01 -0.28246093393E-02  0.38133209521E+01  0.38135752779E+01  0.40000000000E-01 0.  1.
</event>
<event>
 5   0  0.7212170E+07  0.9118800E+02  0.7818608E-02  0.1180000E+00
       11   -1    0    0    0    0  0.00000000000E+00  0.00000000000E+00  0.39999999673E+01  0.40000000000E+01  0.51109989000E-03 0. -1.
     -623   -1    0    0    0    0  0.00000000000E+00  0.00000000000E+00  0.12525980253E-10  0.17130000000E+03  0.17130000000E+03 0. -1.
       11    1    1    2    0    0  0.55673732515E-02  0.61957658274E-03  0.86456623848E+00  0.86458453691E+00  0.51109989000E-03 0. -1.
     -623    1    1    2    0    0  0.77338983359E-05 -0.70808803423E-03  0.27838568920E-03  0.17130000000E+03  0.17130000000E+03 0. -1.
      622    1    1    2    0    0 -0.55751071498E-02  0.88511451403E-04  0.31351553427E+01  0.31354154609E+01  0.40000000000E-01 0. -1.
</event>
<event>
 5   0  0.7212170E+07  0.9118800E+02  0.7818608E-02  0.1180000E+00
       11   -1    0    0    0    0  0.00000000000E+00  0.00000000000E+00  0.39999999673E+01  0.40000000000E+01  0.51109989000E-03 0.  1.
     -623   -1    0    0    0    0  0.00000000000E+00  0.00000000000E+00  0.12525980253E-10  0.17130000000E+03  0.17130000000E+03 0.  1.
       11    1    1    2    0    0 -0.38003135947E-02  0.58857036889E-03  0.14285041209E-01  0.14802446553E-01  0.51109989000E-03 0.  1.
     -623    1    1    2    0    0  0.10790795500E-02  0.27360551055E-02  0.72046336522E-03  0.17130000003E+03  0.17130000000E+03 0.  1.
      622    1    1    2    0    0  0.27212340448E-02 -0.33246254744E-02  0.39849944628E+01  0.39851975266E+01  0.40000000000E-01 0.  1.
</event>
<event>
 5   0  0.7212170E+07  0.9118800E+02  0.7818608E-02  0.1180000E+00
       11   -1    0    0    0    0  0.00000000000E+00  0.00000000000E+00  0.39999999673E+01  0.40000000000E+01  0.51109989000E-03 0. -1.
     -623   -1    0    0    0    0  0.00000000000E+00  0.00000000000E+00  0.12525980253E-10  0.17130000000E+03  0.17130000000E+03 0.  1.
       11    1    1    2    0    0 -0.23017601187E-02  0.98459740038E-02  0.80334280217E+00  0.80340659713E+00  0.51109989000E-03 0. -1.
     -623    1    1    2    0    0  0.92255770145E-03  0.34580138452E-02  0.34206124297E-03  0.17130000004E+03  0.17130000000E+03 0.  1.
      622    1    1    2    0    0  0.13792024172E-02 -0.13303987849E-01  0.31963151045E+01  0.31965933657E+01  0.40000000000E-01 0. -1.
</event>
<event>
 5   0  0.7212170E+07  0.9118800E+02  0.7818608E-02  0.1180000E+00
       11   -1    0    0    0    0  0.00000000000E+00  0.00000000000E+00  0.39999999673E+01  0.40000000000E+01  0.51109989000E-03 0. -1.
     -623   -1    0    0    0    0  0.00000000000E+00  0.00000000000E+00  0.12525980253E-10  0.17130000000E+03  0.17130000000E+03 0. -1.
       11    1    1    2    0    0  0.95613124728E-03 -0.29775363604E-03  0.26301749295E-02  0.28603998754E-02  0.51109989000E-03 0. -1.
     -623    1    1    2    0    0 -0.18946915219E-02 -0.13576435634E-02  0.43080984103E-03  0.17130000002E+03  0.17130000000E+03 0. -1.
      622    1    1    2    0    0  0.93856027447E-03  0.16553971993E-02  0.39969389823E+01  0.39971395835E+01  0.40000000000E-01 0. -1.
</event>
<event>
 5   0  0.7212170E+07  0.9118800E+02  0.7818608E-02  0.1180000E+00
       11   -1    0    0    0    0  0.00000000000E+00  0.00000000000E+00  0.39999999673E+01  0.40000000000E+01  0.51109989000E-03 0.  1.
     -623   -1    0    0    0    0  0.00000000000E+00  0.00000000000E+00  0.12525980253E-10  0.17130000000E+03  0.17130000000E+03 0.  1.
       11    1    1    2    0    0  0.18642349146E-02  0.29747522761E-02  0.18667350712E-01  0.19001466486E-01  0.51109989000E-03 0.  1.
     -623    1    1    2    0    0 -0.18596836191E-01 -0.41902128745E-02  0.57145657194E-03  0.17130000106E+03  0.17130000000E+03 0.  1.
      622    1    1    2    0    0  0.16732601275E-01  0.12154605982E-02  0.39807611599E+01  0.39809974717E+01  0.40000000000E-01 0.  1.
</event>
<event>
 5   0  0.7212170E+07  0.9118800E+02  0.7818608E-02  0.1180000E+00
       11   -1    0    0    0    0  0.00000000000E+00  0.00000000000E+00  0.39999999673E+01  0.40000000000E+01  0.51109989000E-03 0.  1.
     -623   -1    0    0    0    0  0.00000000000E+00  0.00000000000E+00  0.12525980253E-10  0.17130000000E+03  0.17130000000E+03 0.  1.
       11    1    1    2    0    0 -0.49098734739E-02  0.16089336922E-02  0.94705391504E-01  0.94847603703E-01  0.51109989000E-03 0.  1.
     -623    1    1    2    0    0  0.76843477409E-02 -0.61703469520E-02  0.35097611151E-03  0.17130000028E+03  0.17130000000E+03 0.  1.
      622    1    1    2    0    0 -0.27744742666E-02  0.45614132595E-02  0.39049435995E+01  0.39051521123E+01  0.40000000000E-01 0.  1.
</event>
<event>
 5   0  0.7212170E+07  0.9118800E+02  0.7818608E-02  0.1180000E+00
       11   -1    0    0    0    0  0.00000000000E+00  0.00000000000E+00  0.39999999673E+01  0.40000000000E+01  0.51109989000E-03 0. -1.
     -623   -1    0    0    0    0  0.00000000000E+00  0.00000000000E+00  0.12525980253E-10  0.17130000000E+03  0.17130000000E+03 0. -1.
       11    1    1    2    0    0  0.26475256742E-02 -0.29936210203E-01  0.78995472304E+00  0.79052635108E+00  0.51109989000E-03 0. -1.
     -623    1    1    2    0    0 -0.25983350777E-02 -0.20673206011E-02  0.98048178575E-03  0.17130000003E+03  0.17130000000E+03 0. -1.
      622    1    1    2    0    0 -0.49190596315E-04  0.32003530804E-01  0.32090647628E+01  0.32094736142E+01  0.40000000000E-01 0. -1.
</event>
<event>
 5   0  0.7212170E+07  0.9118800E+02  0.7818608E-02  0.1180000E+00
       11   -1    0    0    0    0  0.00000000000E+00  0.00000000000E+00  0.39999999673E+01  0.40000000000E+01  0.51109989000E-03 0.  1.
     -623   -1    0    0    0    0  0.00000000000E+00  0.00000000000E+00  0.12525980253E-10  0.17130000000E+03  0.17130000000E+03 0.  1.
       11    1    1    2    0    0 -0.16823778566E-01 -0.66492188165E-02  0.62365284315E+00  0.62391536416E+00  0.51109989000E-03 0.  1.
     -623    1    1    2    0    0 -0.71362337088E-03  0.21217834865E-02  0.54806242176E-03  0.17130000002E+03  0.17130000000E+03 0.  1.
      622    1    1    2    0    0  0.17537401937E-01  0.45274353299E-02  0.33757990620E+01  0.33760846205E+01  0.40000000000E-01 0.  1.
</event>
<event>
 5   0  0.7212170E+07  0.9118800E+02  0.7818608E-02  0.1180000E+00
       11   -1    0    0    0    0  0.00000000000E+00  0.00000000000E+00  0.39999999673E+01  0.40000000000E+01  0.51109989000E-03 0. -1.
     -623   -1    0    0    0    0  0.00000000000E+00  0.00000000000E+00  0.12525980253E-10  0.17130000000E+03  0.17130000000E+03 0.  1.
       11    1    1    2    0    0 -0.23376792747E-01  0.54341998842E-03  0.20747986728E+00  0.20879398050E+00  0.51109989000E-03 0. -1.
     -623    1    1    2    0    0 -0.71165220792E-02 -0.11103374396E-01  0.16629652389E-02  0.17130000052E+03  0.17130000000E+03 0.  1.
      622    1    1    2    0    0  0.30493314825E-01  0.10559954407E-01  0.37908571347E+01  0.37912055036E+01  0.40000000000E-01 0. -1.
</event>
<event>
 5   0  0.7212170E+07  0.9118800E+02  0.7818608E-02  0.1180000E+00
       11   -1    0    0    0    0  0.00000000000E+00  0.00000000000E+00  0.39999999673E+01  0.40000000000E+01  0.51109989000E-03 0. -1.
     -623   -1    0    0    0    0  0.00000000000E+00  0.00000000000E+00  0.12525980253E-10  0.17130000000E+03  0.17130000000E+03 0. -1.
       11    1    1    2    0    0 -0.74027052228E-02  0.87577661982E-03  0.16251025904E+00  0.16268193675E+00  0.51109989000E-03 0. -1.
     -623    1    1    2    0    0  0.23298254730E-01  0.11952942736E-01  0.43650179982E-03  0.17130000200E+03  0.17130000000E+03 0. -1.
      622    1    1    2    0    0 -0.15895549508E-01 -0.12828719357E-01  0.38370532066E+01  0.38373160614E+01  0.40000000000E-01 0. -1.
</event>
<event>
 5   0  0.7212170E+07  0.9118800E+02  0.7818608E-02  0.1180000E+00
       11   -1    0    0    0    0  0.00000000000E+00  0.00000000000E+00  0.39999999673E+01  0.40000000000E+01  0.51109989000E-03 0.  1.
     -623   -1    0    0    0    0  0.00000000000E+00  0.00000000000E+00  0.12525980253E-10  0.17130000000E+03  0.17130000000E+03 0. -1.
       11    1    1    2    0    0 -0.25126978258E-02  0.75063553246E-02  0.65330895432E-01  0.65810684100E-01  0.51109989000E-03 0.  1.
     -623    1    1    2    0    0  0.82199026402E-02  0.15246340423E-02  0.69781808833E-03  0.17130000021E+03  0.17130000000E+03 0. -1.
      622    1    1    2    0    0 -0.57072048158E-02 -0.90309893672E-02  0.39339712545E+01  0.39341891111E+01  0.40000000000E-01 0.  1.
</event>
<event>
 5   0  0.7212170E+07  0.9118800E+02  0.7818608E-02  0.1180000E+00
       11   -1    0    0    0    0  0.00000000000E+00  0.00000000000E+00  0.39999999673E+01  0.40000000000E+01  0.51109989000E-03 0. -1.
     -623   -1    0    0    0    0  0.00000000000E+00  0.00000000000E+00  0.12525980253E-10  0.17130000000E+03  0.17130000000E+03 0. -1.
       11    1    1    2    0    0 -0.23685933590E-02 -0.53589226266E-02  0.46630700939E-01  0.47000125312E-01  0.51109989000E-03 0. -1.
     -623    1    1    2    0    0 -0.15126049599E-03  0.36402453315E-02  0.57299139406E-03  0.17130000004E+03  0.17130000000E+03 0. -1.
      622    1    1    2    0    0  0.25198538550E-02  0.17186772950E-02  0.39527962752E+01  0.39529998352E+01  0.40000000000E-01 0. -1.
</event>
<event>
 5   0  0.7212170E+07  0.9118800E+02  0.7818608E-02  0.1180000E+00
       11   -1    0    0    0    0  0.00000000000E+00  0.00000000000E+00  0.39999999673E+01  0.40000000000E+01  0.51109989000E-03 0. -1.
     -623   -1    0    0    0    0  0.00000000000E+00  0.00000000000E+00  0.12525980253E-10  0.17130000000E+03  0.17130000000E+03 0.  1.
       11    1    1    2    0    0 -0.53992195304E-05 -0.33463482060E-02  0.13013770210E+00  0.13018172224E+00  0.51109989000E-03 0. -1.
     -623    1    1    2    0    0 -0.10935374911E-02  0.90436165217E-03  0.25165371611E-03  0.17130000001E+03  0.17130000000E+03 0.  1.
      622    1    1    2    0    0  0.10989367108E-02  0.24419865538E-02  0.38696106119E+01  0.38698182721E+01  0.40000000000E-01 0. -1.
</event>
<event>
 5   0  0.7212170E+07  0.9118800E+02  0.7818608E-02  0.1180000E+00
       11   -1    0    0    0    0  0.00000000000E+00  0.00000000000E+00  0.39999999673E+01  0.40000000000E+01  0.51109989000E-03 0.  1.
     -623   -1    0    0    0    0  0.00000000000E+00  0.00000000000E+00  0.12525980253E-10  0.17130000000E+03  0.17130000000E+03 0. -1.
       11    1    1    2    0    0  0.17534662386E-01  0.49626291001E-02  0.20223123514E+00  0.20305128850E+00  0.51109989000E-03 0.  1.
     -623    1    1    2    0    0 -0.16841711479E-02 -0.15751565988E-02  0.10653382623E-02  0.17130000002E+03  0.17130000000E+03 0. -1.
      622    1    1    2    0    0 -0.15850491238E-01 -0.33874725013E-02  0.37967033940E+01  0.37969486927E+01  0.40000000000E-01 0.  1.
</event>
<event>
 5   0  0.7212170E+07  0.9118800E+02  0.7818608E-02  0.1180000E+00
       11   -1    0    0    0    0  0.00000000000E+00  0.00000000000E+00  0.39999999673E+01  0.40000000000E+01  0.51109989000E-03 0. -1.
     -623   -1    0    0    0    0  0.00000000000E+00  0.00000000000E+00  0.12525980253E-10  0.17130000000E+03  0.17130000000E+03 0.  1.
       11    1    1    2    0    0 -0.24198458992E-02  0.31645937346E-03  0.20981721150E-02  0.32587344219E-02  0.51109989000E-03 0. -1.
     -623    1    1    2    0    0 -0.23617967144E-03 -0.16221149844E-02  0.13618068546E-02  0.17130000001E+03  0.17130000000E+03 0.  1.
      622    1    1    2    0    0  0.26560255707E-02  0.13056556109E-02  0.39965399882E+01  0.39967412522E+01  0.40000000000E-01 0. -1.
</event>
<event>
 5   0  0.7212170E+07  0.9118800E+02  0.7818608E-02  0.1180000E+00
       11   -1    0    0    0    0  0.00000000000E+00  0.00000000000E+00  0.39999999673E+01  0.40000000000E+01  0.51109989000E-03 0. -1.
     -623   -1    0    0    0    0  0.00000000000E+00  0.00000000000E+00  0.12525980253E-10  0.17130000000E+03  0.17130000000E+03 0. -1.
       11    1    1    2    0    0 -0.89751066249E-03 -0.25565637306E-02  0.24550542298E-01  0.24704896149E-01  0.51109989000E-03 0. -1.
     -623    1    1    2    0    0  0.16879928409E-02  0.13592870846E-02  0.35584221000E-03  0.17130000001E+03  0.17130000000E+03 0. -1.
      622    1    1    2    0    0 -0.79048217834E-03  0.11972766461E-02  0.39750935826E+01  0.39752950895E+01  0.40000000000E-01 0. -1.
</event>
<event>
 5   0  0.7212170E+07  0.9118800E+02  0.7818608E-02  0.1180000E+00
       11   -1    0    0    0    0  0.00000000000E+00  0.00000000000E+00  0.39999999673E+01  0.40000000000E+01  0.51109989000E-03 0. -1.
     -623   -1    0    0    0    0  0.00000000000E+00  0.00000000000E+00  0.12525980253E-10  0.17130000000E+03  0.17130000000E+03 0.  1.
       11    1    1    2    0    0 -0.18541175676E-02  0.19864822411E-01  0.33397641011E+00  0.33457219349E+00  0.51109989000E-03 0. -1.
     -623    1    1    2    0    0 -0.35715279557E-02 -0.31474901185E-04  0.87173007650E-03  0.17130000004E+03  0.17130000000E+03 0.  1.
      622    1    1    2    0    0  0.54256455235E-02 -0.19833347510E-01  0.36651518274E+01  0.36654277673E+01  0.40000000000E-01 0. -1.
</event>
<event>
 5   0  0.7212170E+07  0.9118800E+02  0.7818608E-02  0.1180000E+00
       11   -1    0    0    0    0  0.00000000000E+00  0.00000000000E+00  0.39999999673E+01  0.40000000000E+01  0.51109989000E-03 0. -1.
     -623   -1    0    0    0    0  0.00000000000E+00  0.00000000000E+00  0.12525980253E-10  0.17130000000E+03  0.17130000000E+03 0.  1.
       11    1    1    2    0    0  0.15132797941E-02 -0.15493321999E-02  0.14933447645E+00  0.14935105465E+00  0.51109989000E-03 0. -1.
     -623    1    1    2    0    0  0.11335619630E-02 -0.81921663782E-03  0.22595244196E-03  0.17130000001E+03  0.17130000000E+03 0.  1.
      622    1    1    2    0    0 -0.26468417575E-02  0.23685488381E-02  0.38504395401E+01  0.38506489411E+01  0.40000000000E-01 0. -1.
</event>
<event>
 5   0  0.7212170E+07  0.9118800E+02  0.7818608E-02  0.1180000E+00
       11   -1    0    0    0    0  0.00000000000E+00  0.00000000000E+00  0.39999999673E+01  0.40000000000E+01  0.51109989000E-03 0.  1.
     -623   -1    0    0    0    0  0.00000000000E+00  0.00000000000E+00  0.12525980253E-10  0.17130000000E+03  0.17130000000E+03 0.  1.
       11    1    1    2    0    0  0.23536544878E-01  0.19736911858E-01  0.68833493025E+00  0.68902013908E+00  0.51109989000E-03 0.  1.
     -623    1    1    2    0    0 -0.25876376301E-02 -0.98613220703E-02  0.10081194065E-02  0.17130000031E+03  0.17130000000E+03 0.  1.
      622    1    1    2    0    0 -0.20948907248E-01 -0.98755897878E-02  0.33106569177E+01  0.33109795546E+01  0.40000000000E-01 0.  0.
</event>
<event>
 5   0  0.7212170E+07  0.9118800E+02  0.7818608E-02  0.1180000E+00
       11   -1    0    0    0    0  0.00000000000E+00  0.00000000000E+00  0.39999999673E+01  0.40000000000E+01  0.51109989000E-03 0. -1.
     -623   -1    0    0    0    0  0.00000000000E+00  0.00000000000E+00  0.12525980253E-10  0.17130000000E+03  0.17130000000E+03 0.  1.
       11    1    1    2    0    0 -0.33560339244E-02  0.23032293204E-02  0.11802770662E+00  0.11809897791E+00  0.51109989000E-03 0. -1.
     -623    1    1    2    0    0  0.22420228818E-02 -0.18037256224E-02  0.27754509859E-03  0.17130000002E+03  0.17130000000E+03 0.  1.
      622    1    1    2    0    0  0.11140110426E-02 -0.49950369801E-03  0.38816947157E+01  0.38819009977E+01  0.40000000000E-01 0. -1.
</event>
<event>
 5   0  0.7212170E+07  0.9118800E+02  0.7818608E-02  0.1180000E+00
       11   -1    0    0    0    0  0.00000000000E+00  0.00000000000E+00  0.39999999673E+01  0.40000000000E+01  0.51109989000E-03 0.  1.
     -623   -1    0    0    0    0  0.00000000000E+00  0.00000000000E+00  0.12525980253E-10  0.17130000000E+03  0.17130000000E+03 0. -1.
       11    1    1    2    0    0  0.46226423384E-03  0.66911746801E-03  0.11922177263E-02  0.15310168556E-02  0.51109989000E-03 0.  1.
     -623    1    1    2    0    0  0.15148879242E-02 -0.14414338606E-02  0.53942513267E-03  0.17130000001E+03  0.17130000000E+03 0. -1.
      622    1    1    2    0    0 -0.19771521582E-02  0.77231639279E-03  0.39982683250E+01  0.39984689700E+01  0.40000000000E-01 0.  1.
</event>
<event>
 5   0  0.7212170E+07  0.9118800E+02  0.7818608E-02  0.1180000E+00
       11   -1    0    0    0    0  0.00000000000E+00  0.00000000000E+00  0.39999999673E+01  0.40000000000E+01  0.51109989000E-03 0. -1.
     -623   -1    0    0    0    0  0.00000000000E+00  0.00000000000E+00  0.12525980253E-10  0.17130000000E+03  0.17130000000E+03 0.  1.
       11    1    1    2    0    0 -0.42732916296E-03 -0.67736003994E-03  0.48980365795E-02  0.49893298417E-02  0.51109989000E-03 0. -1.
     -623    1    1    2    0    0  0.18591738473E-02  0.38907847138E-04  0.29183338564E-03  0.17130000001E+03  0.17130000000E+03 0.  1.
      622    1    1    2    0    0 -0.14318446854E-02  0.63845219278E-03  0.39948100996E+01  0.39950106620E+01  0.40000000000E-01 0. -1.
</event>
<event>
 5   0  0.7212170E+07  0.9118800E+02  0.7818608E-02  0.1180000E+00
       11   -1    0    0    0    0  0.00000000000E+00  0.00000000000E+00  0.39999999673E+01  0.40000000000E+01  0.51109989000E-03 0. -1.
     -623   -1    0    0    0    0  0.00000000000E+00  0.00000000000E+00  0.12525980253E-10  0.17130000000E+03  0.17130000000E+03 0. -1.
       11    1    1    2    0    0 -0.63065962591E-02 -0.21683862635E-02  0.10314552232E+00  0.10336215484E+00  0.51109989000E-03 0. -1.
     -623    1    1    2    0    0  0.37163021587E-02  0.11898718286E-02  0.42293931767E-03  0.17130000004E+03  0.17130000000E+03 0. -1.
      622    1    1    2    0    0  0.25902940992E-02  0.97851443458E-03  0.38964315070E+01  0.38966378014E+01  0.40000000000E-01 0. -1.
</event>
<event>
 5   0  0.7212170E+07  0.9118800E+02  0.7818608E-02  0.1180000E+00
       11   -1    0    0    0    0  0.00000000000E+00  0.00000000000E+00  0.39999999673E+01  0.40000000000E+01  0.51109989000E-03 0. -1.
     -623   -1    0    0    0    0  0.00000000000E+00  0.00000000000E+00  0.12525980253E-10  0.17130000000E+03  0.17130000000E+03 0.  1.
       11    1    1    2    0    0 -0.81052394495E-02 -0.16052799400E-02  0.72001855891E-01  0.72476205096E-01  0.51109989000E-03 0. -1.
     -623    1    1    2    0    0  0.45769434435E-02  0.58201965914E-02  0.68202061110E-03  0.17130000016E+03  0.17130000000E+03 0.  1.
      622    1    1    2    0    0  0.35282960055E-02 -0.42149166521E-02  0.39273160913E+01  0.39275236340E+01  0.40000000000E-01 0. -1.
</event>
<event>
 5   0  0.7212170E+07  0.9118800E+02  0.7818608E-02  0.1180000E+00
       11   -1    0    0    0    0  0.00000000000E+00  0.00000000000E+00  0.39999999673E+01  0.40000000000E+01  0.51109989000E-03 0. -1.
     -623   -1    0    0    0    0  0.00000000000E+00  0.00000000000E+00  0.12525980253E-10  0.17130000000E+03  0.17130000000E+03 0. -1.
       11    1    1    2    0    0  0.89360204322E-03 -0.15614802706E-02  0.52791742340E-01  0.52824861833E-01  0.51109989000E-03 0. -1.
     -623    1    1    2    0    0  0.14755190119E-02  0.88276753967E-03  0.23654681300E-03  0.17130000001E+03  0.17130000000E+03 0. -1.
      622    1    1    2    0    0 -0.23691210547E-02  0.67871273114E-03  0.39469716772E+01  0.39471751284E+01  0.40000000000E-01 0. -1.
</event>
<event>
 5   0  0.7212170E+07  0.9118800E+02  0.7818608E-02  0.1180000E+00
       11   -1    0    0    0    0  0.00000000000E+00  0.00000000000E+00  0.39999999673E+01  0.40000000000E+01  0.51109989000E-03 0.  1.
     -623   -1    0    0    0    0  0.00000000000E+00  0.00000000000E+00  0.12525980253E-10  0.17130000000E+03  0.17130000000E+03 0. -1.
       11    1    1    2    0    0  0.21185145429E-02 -0.22889235604E-03  0.10127959080E-01  0.10362300604E-01  0.51109989000E-03 0.  1.
     -623    1    1    2    0    0 -0.59587359735E-02  0.29500296285E-02  0.43773930837E-03  0.17130000013E+03  0.17130000000E+03 0. -1.
      622    1    1    2    0    0  0.38402214308E-02 -0.27211372725E-02  0.39894342691E+01  0.39896375699E+01  0.40000000000E-01 0.  1.
</event>
<event>
 5   0  0.7212170E+07  0.9118800E+02  0.7818608E-02  0.1180000E+00
       11   -1    0    0    0    0  0.00000000000E+00  0.00000000000E+00  0.39999999673E+01  0.40000000000E+01  0.51109989000E-03 0. -1.
     -623   -1    0    0    0    0  0.00000000000E+00  0.00000000000E+00  0.12525980253E-10  0.17130000000E+03  0.17130000000E+03 0. -1.
       11    1    1    2    0    0 -0.16563273268E-01  0.41486972127E-01  0.48758181654E+00  0.48962414148E+00  0.51109989000E-03 0. -1.
     -623    1    1    2    0    0 -0.49693942956E-02 -0.24388990266E-01  0.23797094685E-02  0.17130000182E+03  0.17130000000E+03 0. -1.
      622    1    1    2    0    0  0.21532667563E-01 -0.17097981861E-01  0.35100384413E+01  0.35103740337E+01  0.40000000000E-01 0.  0.
</event>
<event>
 5   0  0.7212170E+07  0.9118800E+02  0.7818608E-02  0.1180000E+00
       11   -1    0    0    0    0  0.00000000000E+00  0.00000000000E+00  0.39999999673E+01  0.40000000000E+01  0.51109989000E-03 0.  1.
     -623   -1    0    0    0    0  0.00000000000E+00  0.00000000000E+00  0.12525980253E-10  0.17130000000E+03  0.17130000000E+03 0. -1.
       11    1    1    2    0    0  0.13593596042E-01  0.36492226315E-01  0.29046572750E+01  0.29049183491E+01  0.51109989000E-03 0.  1.
     -623    1    1    2    0    0 -0.15753119179E-01 -0.19381891066E-01  0.11295508878E-02  0.17130000182E+03  0.17130000000E+03 0. -1.
      622    1    1    2    0    0  0.21595231379E-02 -0.17110335249E-01  0.10942131416E+01  0.10950798265E+01  0.40000000000E-01 0.  1.
</event>
<event>
 5   0  0.7212170E+07  0.9118800E+02  0.7818608E-02  0.1180000E+00
       11   -1    0    0    0    0  0.00000000000E+00  0.00000000000E+00  0.39999999673E+01  0.40000000000E+01  0.51109989000E-03 0. -1.
     -623   -1    0    0    0    0  0.00000000000E+00  0.00000000000E+00  0.12525980253E-10  0.17130000000E+03  0.17130000000E+03 0.  1.
       11    1    1    2    0    0  0.17041109865E-02 -0.55073989446E-02  0.40182058476E-02  0.70457532402E-02  0.51109989000E-03 0. -1.
     -623    1    1    2    0    0 -0.42969270839E-02  0.70683103612E-03  0.32316863008E-02  0.17130000009E+03  0.17130000000E+03 0.  1.
      622    1    1    2    0    0  0.25928160972E-02  0.48005679085E-02  0.39927500751E+01  0.39929541608E+01  0.40000000000E-01 0. -1.
</event>
<event>
 5   0  0.7212170E+07  0.9118800E+02  0.7818608E-02  0.1180000E+00
       11   -1    0    0    0    0  0.00000000000E+00  0.00000000000E+00  0.39999999673E+01  0.40000000000E+01  0.51109989000E-03 0. -1.
     -623   -1    0    0    0    0  0.00000000000E+00  0.00000000000E+00  0.12525980253E-10  0.17130000000E+03  0.17130000000E+03 0. -1.
       11    1    1    2    0    0  0.74523744317E-02 -0.63452034375E-02  0.13684718337E+00  0.13719771248E+00  0.51109989000E-03 0. -1.
     -623    1    1    2    0    0 -0.64693728309E-02  0.20976280527E-02  0.56020203421E-03  0.17130000014E+03  0.17130000000E+03 0. -1.
      622    1    1    2    0    0 -0.98300160014E-03  0.42475753846E-02  0.38625925823E+01  0.38628021520E+01  0.40000000000E-01 0. -1.
</event>
<event>
 5   0  0.7212170E+07  0.9118800E+02  0.7818608E-02  0.1180000E+00
       11   -1    0    0    0    0  0.00000000000E+00  0.00000000000E+00  0.39999999673E+01  0.40000000000E+01  0.51109989000E-03 0.  1.
     -623   -1    0    0    0    0  0.00000000000E+00  0.00000000000E+00  0.12525980253E-10  0.17130000000E+03  0.17130000000E+03 0. -1.
       11    1    1    2    0    0 -0.18797591609E-02 -0.54433551732E-02  0.44080216841E-01  0.44457736671E-01  0.51109989000E-03 0.  1.
     -623    1    1    2    0    0 -0.46229607104E-02 -0.47850494735E-02  0.59844108394E-03  0.17130000013E+03  0.17130000000E+03 0. -1.
      622    1    1    2    0    0  0.65027198720E-02  0.10228404648E-01  0.39553213101E+01  0.39555421337E+01  0.40000000000E-01 0.  1.
</event>
<event>
 5   0  0.7212170E+07  0.9118800E+02  0.7818608E-02  0.1180000E+00
       11   -1    0    0    0    0  0.00000000000E+00  0.00000000000E+00  0.39999999673E+01  0.40000000000E+01  0.51109989000E-03 0. -1.
     -623   -1    0    0    0    0  0.00000000000E+00  0.00000000000E+00  0.12525980253E-10  0.17130000000E+03  0.17130000000E+03 0. -1.
       11    1    1    2    0    0  0.22363973181E-02  0.69539488273E-04  0.23307325485E+00  0.23308455473E+00  0.51109989000E-03 0. -1.
     -623    1    1    2    0    0  0.51687103472E-03  0.63617128310E-03  0.22472305767E-03  0.17130000000E+03  0.17130000000E+03 0. -1.
      622    1    1    2    0    0 -0.27532683531E-02 -0.70571077167E-03  0.37667019913E+01  0.37669154450E+01  0.40000000000E-01 0. -1.
</event>
<event>
 5   0  0.7212170E+07  0.9118800E+02  0.7818608E-02  0.1180000E+00
       11   -1    0    0    0    0  0.00000000000E+00  0.00000000000E+00  0.39999999673E+01  0.40000000000E+01  0.51109989000E-03 0.  1.
     -623   -1    0    0    0    0  0.00000000000E+00  0.00000000000E+00  0.12525980253E-10  0.17130000000E+03  0.17130000000E+03 0.  1.
       11    1    1    2    0    0  0.11882386908E-01 -0.30931207576E-01  0.59726196305E+00  0.59818061190E+00  0.51109989000E-03 0.  1.
     -623    1    1    2    0    0  0.67547065933E-02  0.60517394882E-02  0.12960816332E-02  0.17130000024E+03  0.17130000000E+03 0.  1.
      622    1    1    2    0    0 -0.18637093502E-01  0.24879468087E-01  0.34014419230E+01  0.34018191434E+01  0.40000000000E-01 0.  1.
</event>
<event>
 5   0  0.7212170E+07  0.9118800E+02  0.7818608E-02  0.1180000E+00
       11   -1    0    0    0    0  0.00000000000E+00  0.00000000000E+00  0.39999999673E+01  0.40000000000E+01  0.51109989000E-03 0. -1.
     -623   -1    0    0    0    0  0.00000000000E+00  0.00000000000E+00  0.12525980253E-10  0.17130000000E+03  0.17130000000E+03 0.  1.
       11    1    1    2    0    0  0.66161261919E-05  0.35015390620E-03  0.40660753665E-01  0.40665473847E-01  0.51109989000E-03 0. -1.
     -623    1    1    2    0    0 -0.14322813832E-03  0.19359032570E-03  0.20678684478E-03  0.17130000000E+03  0.17130000000E+03 0.  1.
      622    1    1    2    0    0  0.13661201219E-03 -0.54374423199E-03  0.39591324286E+01  0.39593345276E+01  0.40000000000E-01 0. -1.
</event>
<event>
 5   0  0.7212170E+07  0.9118800E+02  0.7818608E-02  0.1180000E+00
       11   -1    0    0    0    0  0.00000000000E+00  0.00000000000E+00  0.39999999673E+01  0.40000000000E+01  0.51109989000E-03 0.  1.
     -623   -1    0    0    0    0  0.00000000000E+00  0.00000000000E+00  0.12525980253E-10  0.17130000000E+03  0.17130000000E+03 0. -1.
       11    1    1    2    0    0  0.72319901854E-02  0.18180721629E-02  0.74353486943E-01  0.74728236378E-01  0.51109989000E-03 0.  1.
     -623    1    1    2    0    0 -0.41785494512E-02  0.27803860581E-02  0.58248552964E-03  0.17130000007E+03  0.17130000000E+03 0. -1.
      622    1    1    2    0    0 -0.30534407342E-02 -0.45984582210E-02  0.39250639948E+01  0.39252716891E+01  0.40000000000E-01 0.  1.
</event>
<event>
 5   0  0.7212170E+07  0.9118800E+02  0.7818608E-02  0.1180000E+00
       11   -1    0    0    0    0  0.00000000000E+00  0.00000000000E+00  0.39999999673E+01  0.40000000000E+01  0.51109989000E-03 0.  1.
     -623   -1    0    0    0    0  0.00000000000E+00  0.00000000000E+00  0.12525980253E-10  0.17130000000E+03  0.17130000000E+03 0. -1.
       11    1    1    2    0    0 -0.23713274021E-01 -0.11005750167E-02  0.24463649899E+01  0.24464802177E+01  0.51109989000E-03 0.  1.
     -623    1    1    2    0    0  0.15353455054E-01 -0.10854783065E-01  0.69979337544E-03  0.17130000103E+03  0.17130000000E+03 0. -1.
      622    1    1    2    0    0  0.83598189668E-02  0.11955358082E-01  0.15529351843E+01  0.15535187491E+01  0.40000000000E-01 0. -1.
</event>
<event>
 5   0  0.7212170E+07  0.9118800E+02  0.7818608E-02  0.1180000E+00
       11   -1    0    0    0    0  0.00000000000E+00  0.00000000000E+00  0.39999999673E+01  0.40000000000E+01  0.51109989000E-03 0.  1.
     -623   -1    0    0    0    0  0.00000000000E+00  0.00000000000E+00  0.12525980253E-10  0.17130000000E+03  0.17130000000E+03 0.  1.
       11    1    1    2    0    0 -0.90275982938E-02 -0.10445379963E-01  0.14334982017E+01  0.14335647732E+01  0.51109989000E-03 0.  1.
     -623    1    1    2    0    0  0.11198559213E-02  0.11315695777E-02  0.40736884040E-03  0.17130000001E+03  0.17130000000E+03 0.  1.
      622    1    1    2    0    0  0.79077423722E-02  0.93138103849E-02  0.25660943977E+01  0.25664352198E+01  0.40000000000E-01 0.  0.
</event>
<event>
 5   0  0.7212170E+07  0.9118800E+02  0.7818608E-02  0.1180000E+00
       11   -1    0    0    0    0  0.00000000000E+00  0.00000000000E+00  0.39999999673E+01  0.40000000000E+01  0.51109989000E-03 0. -1.
     -623   -1    0    0    0    0  0.00000000000E+00  0.00000000000E+00  0.12525980253E-10  0.17130000000E+03  0.17130000000E+03 0.  1.
       11    1    1    2    0    0  0.94768909128E-03  0.58130933287E-03  0.15948398270E-03  0.12339746320E-02  0.51109989000E-03 0. -1.
     -623    1    1    2    0    0 -0.13718239352E-02 -0.27160526460E-02  0.12751488446E-02  0.17130000003E+03  0.17130000000E+03 0.  1.
      622    1    1    2    0    0  0.42413484397E-03  0.21347433132E-02  0.39985653346E+01  0.39987659936E+01  0.40000000000E-01 0. -1.
</event>
<event>
 5   0  0.7212170E+07  0.9118800E+02  0.7818608E-02  0.1180000E+00
       11   -1    0    0    0    0  0.00000000000E+00  0.00000000000E+00  0.39999999673E+01  0.40000000000E+01  0.51109989000E-03 0. -1.
     -623   -1    0    0    0    0  0.00000000000E+00  0.00000000000E+00  0.12525980253E-10  0.17130000000E+03  0.17130000000E+03 0.  1.
       11    1    1    2    0    0  0.97013076442E-02 -0.23235489139E-01  0.27378532699E+01  0.27379690999E+01  0.51109989000E-03 0. -1.
     -623    1    1    2    0    0  0.12376263327E-02  0.14256642087E-01  0.82984629729E-03  0.17130000060E+03  0.17130000000E+03 0.  1.
      622    1    1    2    0    0 -0.10938933977E-01  0.89788470518E-02  0.12613168514E+01  0.12620303006E+01  0.40000000000E-01 0. -1.
</event>
<event>
 5   0  0.7212170E+07  0.9118800E+02  0.7818608E-02  0.1180000E+00
       11   -1    0    0    0    0  0.00000000000E+00  0.00000000000E+00  0.39999999673E+01  0.40000000000E+01  0.51109989000E-03 0.  1.
     -623   -1    0    0    0    0  0.00000000000E+00  0.00000000000E+00  0.12525980253E-10  0.17130000000E+03  0.17130000000E+03 0.  1.
       11    1    1    2    0    0  0.70325501139E-02  0.17915919518E-02  0.39154940367E+00  0.39161698546E+00  0.51109989000E-03 0.  1.
     -623    1    1    2    0    0 -0.49437567900E-03  0.37820040751E-02  0.29953323271E-03  0.17130000004E+03  0.17130000000E+03 0.  1.
      622    1    1    2    0    0 -0.65381744350E-02 -0.55735960265E-02  0.36081510300E+01  0.36083829714E+01  0.40000000000E-01 0.  1.
</event>
<event>
 5   0  0.7212170E+07  0.9118800E+02  0.7818608E-02  0.1180000E+00
       11   -1    0    0    0    0  0.00000000000E+00  0.00000000000E+00  0.39999999673E+01  0.40000000000E+01  0.51109989000E-03 0.  1.
     -623   -1    0    0    0    0  0.00000000000E+00  0.00000000000E+00  0.12525980253E-10  0.17130000000E+03  0.17130000000E+03 0. -1.
       11    1    1    2    0    0  0.11435232273E-01 -0.50106553745E-02  0.10849314520E+01  0.10850034046E+01  0.51109989000E-03 0.  1.
     -623    1    1    2    0    0 -0.21090776777E-02 -0.13573369629E-02  0.36827117918E-03  0.17130000002E+03  0.17130000000E+03 0. -1.
      622    1    1    2    0    0 -0.93261545956E-02  0.63679923375E-02  0.29147002444E+01  0.29149965769E+01  0.40000000000E-01 0. -1.
</event>
<event>
 5   0  0.7212170E+07  0.9118800E+02  0.7818608E-02  0.1180000E+00
       11   -1    0    0    0    0  0.00000000000E+00  0.00000000000E+00  0.39999999673E+01  0.40000000000E+01  0.51109989000E-03 0. -1.
     -623   -1    0    0    0    0  0.00000000000E+00  0.00000000000E+00  0.12525980253E-10  0.17130000000E+03  0.17130000000E+03 0. -1.
       11    1    1    2    0    0  0.11199331701E-02  0.83824866507E-03  0.31520293680E-02  0.34861760375E-02  0.51109989000E-03 0. -1.
     -623    1    1    2    0    0 -0.43673404588E-02 -0.21421252784E-02  0.53589554323E-03  0.17130000007E+03  0.17130000000E+03 0. -1.
      622    1    1    2    0    0  0.32474072884E-02  0.13038766132E-02  0.39963120423E+01  0.39965137539E+01  0.40000000000E-01 0. -1.
</event>
<event>
 5   0  0.7212170E+07  0.9118800E+02  0.7818608E-02  0.1180000E+00
       11   -1    0    0    0    0  0.00000000000E+00  0.00000000000E+00  0.39999999673E+01  0.40000000000E+01  0.51109989000E-03 0.  1.
     -623   -1    0    0    0    0  0.00000000000E+00  0.00000000000E+00  0.12525980253E-10  0.17130000000E+03  0.17130000000E+03 0. -1.
       11    1    1    2    0    0 -0.17189246391E-01 -0.75967234464E-02  0.35540497196E+00  0.35590186248E+00  0.51109989000E-03 0.  1.
     -623    1    1    2    0    0  0.13438419441E-02  0.11625572282E-01  0.75347829550E-03  0.17130000040E+03  0.17130000000E+03 0. -1.
      622    1    1    2    0    0  0.15845404447E-01 -0.40288488373E-02  0.36438415176E+01  0.36440977366E+01  0.40000000000E-01 0.  1.
</event>
<event>
 5   0  0.7212170E+07  0.9118800E+02  0.7818608E-02  0.1180000E+00
       11   -1    0    0    0    0  0.00000000000E+00  0.00000000000E+00  0.39999999673E+01  0.40000000000E+01  0.51109989000E-03 0. -1.
     -623   -1    0    0    0    0  0.00000000000E+00  0.00000000000E+00  0.12525980253E-10  0.17130000000E+03  0.17130000000E+03 0. -1.
       11    1    1    2    0    0 -0.45339147116E-03  0.30284670973E-02  0.85185419838E-01  0.85241974126E-01  0.51109989000E-03 0. -1.
     -623    1    1    2    0    0 -0.83062679027E-03 -0.11912948473E-02  0.26152993768E-03  0.17130000001E+03  0.17130000000E+03 0. -1.
      622    1    1    2    0    0  0.12840182612E-02 -0.18371722503E-02  0.39145530166E+01  0.39147580186E+01  0.40000000000E-01 0. -1.
</event>
<event>
 5   0  0.7212170E+07  0.9118800E+02  0.7818608E-02  0.1180000E+00
       11   -1    0    0    0    0  0.00000000000E+00  0.00000000000E+00  0.39999999673E+01  0.40000000000E+01  0.51109989000E-03 0.  1.
     -623   -1    0    0    0    0  0.00000000000E+00  0.00000000000E+00  0.12525980253E-10  0.17130000000E+03  0.17130000000E+03 0.  1.
       11    1    1    2    0    0  0.48140439046E-02  0.14925924444E-01  0.22002545365E+00  0.22058426897E+00  0.51109989000E-03 0.  1.
     -623    1    1    2    0    0 -0.34101371496E-02 -0.51284036285E-02  0.78353478163E-03  0.17130000011E+03  0.17130000000E+03 0.  1.
      622    1    1    2    0    0 -0.14039067549E-02 -0.97975208153E-02  0.37791909791E+01  0.37794156187E+01  0.40000000000E-01 0.  0.
</event>
<event>
 5   0  0.7212170E+07  0.9118800E+02  0.7818608E-02  0.1180000E+00
       11   -1    0    0    0    0  0.00000000000E+00  0.00000000000E+00  0.39999999673E+01  0.40000000000E+01  0.51109989000E-03 0.  1.
     -623   -1    0    0    0    0  0.00000000000E+00  0.00000000000E+00  0.12525980253E-10  0.17130000000E+03  0.17130000000E+03 0.  1.
       11    1    1    2    0    0 -0.66764220839E-02 -0.67907861909E-02  0.13406588804E+01  0.13406928001E+01  0.51109989000E-03 0.  1.
     -623    1    1    2    0    0  0.74299650581E-02 -0.14185414781E-01  0.41832932676E-03  0.17130000075E+03  0.17130000000E+03 0.  1.
      622    1    1    2    0    0 -0.75354297297E-03  0.20976200970E-01  0.26589227569E+01  0.26593064502E+01  0.40000000000E-01 0.  0.
</event>
<event>
 5   0  0.7212170E+07  0.9118800E+02  0.7818608E-02  0.1180000E+00
       11   -1    0    0    0    0  0.00000000000E+00  0.00000000000E+00  0.39999999673E+01  0.40000000000E+01  0.51109989000E-03 0. -1.
     -623   -1    0    0    0    0  0.00000000000E+00  0.00000000000E+00  0.12525980253E-10  0.17130000000E+03  0.17130000000E+03 0. -1.
       11    1    1    2    0    0  0.16745274465E-01 -0.16548275472E-01  0.12339529167E+01  0.12341775851E+01  0.51109989000E-03 0. -1.
     -623    1    1    2    0    0  0.24249252117E-03  0.15305857735E-02  0.60685586853E-03  0.17130000001E+03  0.17130000000E+03 0. -1.
      622    1    1    2    0    0 -0.16987766986E-01  0.15017689698E-01  0.27654401948E+01  0.27658224068E+01  0.40000000000E-01 0. -1.
</event>
<event>
 5   0  0.7212170E+07  0.9118800E+02  0.7818608E-02  0.1180000E+00
       11   -1    0    0    0    0  0.00000000000E+00  0.00000000000E+00  0.39999999673E+01  0.40000000000E+01  0.51109989000E-03 0. -1.
     -623   -1    0    0    0    0  0.00000000000E+00  0.00000000000E+00  0.12525980253E-10  0.17130000000E+03  0.17130000000E+03 0.  1.
       11    1    1    2    0    0  0.15601585431E-03 -0.10251143272E-02  0.62681095300E-02  0.63738230684E-02  0.51109989000E-03 0. -1.
     -623    1    1    2    0    0  0.26940680013E-02  0.14802990720E-02  0.30707596594E-03  0.17130000003E+03  0.17130000000E+03 0.  1.
      622    1    1    2    0    0 -0.28500838551E-02 -0.45518474444E-03  0.39934247811E+01  0.39936261483E+01  0.40000000000E-01 0. -1.
</event>
<event>
 5   0  0.7212170E+07  0.9118800E+02  0.7818608E-02  0.1180000E+00
       11   -1    0    0    0    0  0.00000000000E+00  0.00000000000E+00  0.39999999673E+01  0.40000000000E+01  0.51109989000E-03 0.  1.
     -623   -1    0    0    0    0  0.00000000000E+00  0.00000000000E+00  0.12525980253E-10  0.17130000000E+03  0.17130000000E+03 0. -1.
       11    1    1    2    0    0 -0.10153600232E-02 -0.13733206387E-02  0.51920516590E-02  0.54895891541E-02  0.51109989000E-03 0.  1.
     -623    1    1    2    0    0  0.16627339051E-02  0.14845949802E-02  0.49785397090E-03  0.17130000002E+03  0.17130000000E+03 0. -1.
      622    1    1    2    0    0 -0.64737388189E-03 -0.11127434150E-03  0.39943100617E+01  0.39945103955E+01  0.40000000000E-01 0.  1.
</event>
<event>
 5   0  0.7212170E+07  0.9118800E+02  0.7818608E-02  0.1180000E+00
       11   -1    0    0    0    0  0.00000000000E+00  0.00000000000E+00  0.39999999673E+01  0.40000000000E+01  0.51109989000E-03 0.  1.
     -623   -1    0    0    0    0  0.00000000000E+00  0.00000000000E+00  0.12525980253E-10  0.17130000000E+03  0.17130000000E+03 0. -1.
       11    1    1    2    0    0  0.19938574712E-02  0.15984586417E-02  0.31572941083E-01  0.31680315172E-01  0.51109989000E-03 0.  1.
     -623    1    1    2    0    0 -0.10454565797E-02  0.11502756683E-03  0.30943002873E-03  0.17130000000E+03  0.17130000000E+03 0. -1.
      622    1    1    2    0    0 -0.94840089115E-03 -0.17134862085E-02  0.39681175977E+01  0.39683196828E+01  0.40000000000E-01 0.  1.
</event>
<event>
 5   0  0.7212170E+07  0.9118800E+02  0.7818608E-02  0.1180000E+00
       11   -1    0    0    0    0  0.00000000000E+00  0.00000000000E+00  0.39999999673E+01  0.40000000000E+01  0.51109989000E-03 0. -1.
     -623   -1    0    0    0    0  0.00000000000E+00  0.00000000000E+00  0.12525980253E-10  0.17130000000E+03  0.17130000000E+03 0. -1.
       11    1    1    2    0    0  0.13244762199E-03  0.11681697150E-01  0.30467933131E+00  0.30490364993E+00  0.51109989000E-03 0. -1.
     -623    1    1    2    0    0  0.54472012147E-02  0.42974231563E-02  0.47970197138E-03  0.17130000014E+03  0.17130000000E+03 0. -1.
      622    1    1    2    0    0 -0.55796488367E-02 -0.15979120306E-01  0.36948409341E+01  0.36950962089E+01  0.40000000000E-01 0. -1.
</event>
<event>
 5   0  0.7212170E+07  0.9118800E+02  0.7818608E-02  0.1180000E+00
       11   -1    0    0    0    0  0.00000000000E+00  0.00000000000E+00  0.39999999673E+01  0.40000000000E+01  0.51109989000E-03 0.  1.
     -623   -1    0    0    0    0  0.00000000000E+00  0.00000000000E+00  0.12525980253E-10  0.17130000000E+03  0.17130000000E+03 0. -1.
       11    1    1    2    0    0  0.69352950652E-03 -0.18556961447E-02  0.13604153851E-01  0.13757136928E-01  0.51109989000E-03 0.  1.
     -623    1    1    2    0    0  0.19905560175E-02  0.61335651011E-03  0.35475604587E-03  0.17130000001E+03  0.17130000000E+03 0. -1.
      622    1    1    2    0    0 -0.26840855240E-02  0.12423396346E-02  0.39860410575E+01  0.39862428500E+01  0.40000000000E-01 0.  1.
</event>
<event>
 5   0  0.7212170E+07  0.9118800E+02  0.7818608E-02  0.1180000E+00
       11   -1    0    0    0    0  0.00000000000E+00  0.00000000000E+00  0.39999999673E+01  0.40000000000E+01  0.51109989000E-03 0.  1.
     -623   -1    0    0    0    0  0.00000000000E+00  0.00000000000E+00  0.12525980253E-10  0.17130000000E+03  0.17130000000E+03 0.  1.
       11    1    1    2    0    0 -0.13493000349E-02  0.21788473292E-02  0.90257759080E-01  0.90295582857E-01  0.51109989000E-03 0.  1.
     -623    1    1    2    0    0  0.27306100378E-02  0.11317198738E-02  0.24408693727E-03  0.17130000003E+03  0.17130000000E+03 0.  1.
      622    1    1    2    0    0 -0.13813100020E-02 -0.33105672026E-02  0.39094981198E+01  0.39097043900E+01  0.40000000000E-01 0.  1.
</event>
<event>
 5   0  0.7212170E+07  0.9118800E+02  0.7818608E-02  0.1180000E+00
       11   -1    0    0    0    0  0.00000000000E+00  0.00000000000E+00  0.39999999673E+01  0.40000000000E+01  0.51109989000E-03 0.  1.
     -623   -1    0    0    0    0  0.00000000000E+00  0.00000000000E+00  0.12525980253E-10  0.17130000000E+03  0.17130000000E+03 0.  1.
       11    1    1    2    0    0  0.29776659394E-01  0.47443180034E-01  0.32322564083E+00  0.32804356554E+00  0.51109989000E-03 0.  1.
     -623    1    1    2    0    0  0.16040266742E-01 -0.13867278080E-01  0.54765662810E-02  0.17130000140E+03  0.17130000000E+03 0.  1.
      622    1    1    2    0    0 -0.45816926136E-01 -0.33575901953E-01  0.36712977603E+01  0.36719550347E+01  0.40000000000E-01 0.  1.
</event>
<event>
 5   0  0.7212170E+07  0.9118800E+02  0.7818608E-02  0.1180000E+00
       11   -1    0    0    0    0  0.00000000000E+00  0.00000000000E+00  0.39999999673E+01  0.40000000000E+01  0.51109989000E-03 0. -1.
     -623   -1    0    0    0    0  0.00000000000E+00  0.00000000000E+00  0.12525980253E-10  0.17130000000E+03  0.17130000000E+03 0.  1.
       11    1    1    2    0    0  0.25726228648E-01  0.38459495594E-02  0.10242317984E+01  0.10245621837E+01  0.51109989000E-03 0. -1.
     -623    1    1    2    0    0  0.30435040346E-03 -0.33641056023E-02  0.71318316633E-03  0.17130000003E+03  0.17130000000E+03 0.  1.
      622    1    1    2    0    0 -0.26030579051E-01 -0.48184395673E-03  0.29750549861E+01  0.29754377818E+01  0.40000000000E-01 0. -1.
</event>
<event>
 5   0  0.7212170E+07  0.9118800E+02  0.7818608E-02  0.1180000E+00
       11   -1    0    0    0    0  0.00000000000E+00  0.00000000000E+00  0.39999999673E+01  0.40000000000E+01  0.51109989000E-03 0. -1.
     -623   -1    0    0    0    0  0.00000000000E+00  0.00000000000E+00  0.12525980253E-10  0.17130000000E+03  0.17130000000E+03 0. -1.
       11    1    1    2    0    0 -0.17414476784E-02 -0.17536440522E-02  0.36006364553E-01  0.36094700704E-01  0.51109989000E-03 0. -1.
     -623    1    1    2    0    0  0.75026578059E-03  0.41736398073E-04  0.29062532494E-03  0.17130000000E+03  0.17130000000E+03 0. -1.
      622    1    1    2    0    0  0.99118189767E-03  0.17119076541E-02  0.39637029782E+01  0.39639052981E+01  0.40000000000E-01 0. -1.
</event>
<event>
 5   0  0.7212170E+07  0.9118800E+02  0.7818608E-02  0.1180000E+00
       11   -1    0    0    0    0  0.00000000000E+00  0.00000000000E+00  0.39999999673E+01  0.40000000000E+01  0.51109989000E-03 0.  1.
     -623   -1    0    0    0    0  0.00000000000E+00  0.00000000000E+00  0.12525980253E-10  0.17130000000E+03  0.17130000000E+03 0. -1.
       11    1    1    2    0    0 -0.54260581896E-02 -0.51505153925E-02  0.19388336745E-01  0.20787947015E-01  0.51109989000E-03 0.  1.
     -623    1    1    2    0    0  0.60501342578E-02 -0.10075094360E-02  0.16055589784E-02  0.17130000012E+03  0.17130000000E+03 0. -1.
      622    1    1    2    0    0 -0.62407606837E-03  0.61580248285E-02  0.39790060717E+01  0.39792119358E+01  0.40000000000E-01 0.  1.
</event>
<event>
 5   0  0.7212170E+07  0.9118800E+02  0.7818608E-02  0.1180000E+00
       11   -1    0    0    0    0  0.00000000000E+00  0.00000000000E+00  0.39999999673E+01  0.40000000000E+01  0.51109989000E-03 0.  1.
     -623   -1    0    0    0    0  0.00000000000E+00  0.00000000000E+00  0.12525980253E-10  0.17130000000E+03  0.17130000000E+03 0. -1.
       11    1    1    2    0    0 -0.25512631247E-03 -0.79303166769E-03  0.40395123948E-01  0.40406945573E-01  0.51109989000E-03 0.  1.
     -623    1    1    2    0    0 -0.12387131800E-03  0.22860378636E-03  0.21389380504E-03  0.17130000000E+03  0.17130000000E+03 0. -1.
      622    1    1    2    0    0  0.37899763046E-03  0.56442788135E-03  0.39593909492E+01  0.39595930537E+01  0.40000000000E-01 0.  1.
</event>
<event>
 5   0  0.7212170E+07  0.9118800E+02  0.7818608E-02  0.1180000E+00
       11   -1    0    0    0    0  0.00000000000E+00  0.00000000000E+00  0.39999999673E+01  0.40000000000E+01  0.51109989000E-03 0. -1.
     -623   -1    0    0    0    0  0.00000000000E+00  0.00000000000E+00  0.12525980253E-10  0.17130000000E+03  0.17130000000E+03 0. -1.
       11    1    1    2    0    0  0.37341788544E-01 -0.21447437953E-01  0.61339951026E+00  0.61490944226E+00  0.51109989000E-03 0. -1.
     -623    1    1    2    0    0 -0.39085530964E-02  0.43298859533E-02  0.19547526834E-02  0.17130000011E+03  0.17130000000E+03 0. -1.
      622    1    1    2    0    0 -0.33433235448E-01  0.17117552000E-01  0.33846457043E+01  0.33850904471E+01  0.40000000000E-01 0. -1.
</event>
<event>
 5   0  0.7212170E+07  0.9118800E+02  0.7818608E-02  0.1180000E+00
       11   -1    0    0    0    0  0.00000000000E+00  0.00000000000E+00  0.39999999673E+01  0.40000000000E+01  0.51109989000E-03 0. -1.
     -623   -1    0    0    0    0  0.00000000000E+00  0.00000000000E+00  0.12525980253E-10  0.17130000000E+03  0.17130000000E+03 0.  1.
       11    1    1    2    0    0  0.32387538570E-03 -0.34256629183E-03  0.64503602383E-02  0.64877282026E-02  0.51109989000E-03 0. -1.
     -623    1    1    2    0    0 -0.31961159557E-04  0.42383900584E-03  0.23767745112E-03  0.17130000000E+03  0.17130000000E+03 0.  1.
      622    1    1    2    0    0 -0.29191422614E-03 -0.81272714033E-04  0.39933119299E+01  0.39935122713E+01  0.40000000000E-01 0. -1.
</event>
<event>
 5   0  0.7212170E+07  0.9118800E+02  0.7818608E-02  0.1180000E+00
       11   -1    0    0    0    0  0.00000000000E+00  0.00000000000E+00  0.39999999673E+01  0.40000000000E+01  0.51109989000E-03 0. -1.
     -623   -1    0    0    0    0  0.00000000000E+00  0.00000000000E+00  0.12525980253E-10  0.17130000000E+03  0.17130000000E+03 0. -1.
       11    1    1    2    0    0  0.17560943435E-02 -0.10145233939E-01  0.29539584418E+00  0.29557566818E+00  0.51109989000E-03 0. -1.
     -623    1    1    2    0    0 -0.10878209400E-02  0.69047261460E-02  0.39737642701E-03  0.17130000014E+03  0.17130000000E+03 0. -1.
      622    1    1    2    0    0 -0.66827340338E-03  0.32405077928E-02  0.37042067469E+01  0.37044241889E+01  0.40000000000E-01 0. -1.
</event>
<event>
 5   0  0.7212170E+07  0.9118800E+02  0.7818608E-02  0.1180000E+00
       11   -1    0    0    0    0  0.00000000000E+00  0.00000000000E+00  0.39999999673E+01  0.40000000000E+01  0.51109989000E-03 0.  1.
     -623   -1    0    0    0    0  0.00000000000E+00  0.00000000000E+00  0.12525980253E-10  0.17130000000E+03  0.17130000000E+03 0. -1.
       11    1    1    2    0    0  0.24939424897E-02  0.27060030414E-02  0.46572785019E-01  0.46720741958E-01  0.51109989000E-03 0.  1.
     -623    1    1    2    0    0 -0.17942068366E-02  0.12307814789E-02  0.35232951491E-03  0.17130000001E+03  0.17130000000E+03 0. -1.
      622    1    1    2    0    0 -0.69973565280E-03 -0.39367845205E-02  0.39530748534E+01  0.39532792444E+01  0.40000000000E-01 0.  1.
</event>
<event>
 5   0  0.7212170E+07  0.9118800E+02  0.7818608E-02  0.1180000E+00
       11   -1    0    0    0    0  0.00000000000E+00  0.00000000000E+00  0.39999999673E+01  0.40000000000E+01  0.51109989000E-03 0.  1.
     -623   -1    0    0    0    0  0.00000000000E+00  0.00000000000E+00  0.12525980253E-10  0.17130000000E+03  0.17130000000E+03 0. -1.
       11    1    1    2    0    0  0.14895462207E-02 -0.15356371683E-02  0.40515545394E-01  0.40575208825E-01  0.51109989000E-03 0.  1.
     -623    1    1    2    0    0 -0.12802981533E-02 -0.40504951566E-03  0.26217212188E-03  0.17130000001E+03  0.17130000000E+03 0. -1.
      622    1    1    2    0    0 -0.20924806736E-03  0.19406866840E-02  0.39592222502E+01  0.39594247861E+01  0.40000000000E-01 0.  1.
</event>
<event>
 5   0  0.7212170E+07  0.9118800E+02  0.7818608E-02  0.1180000E+00
       11   -1    0    0    0    0  0.00000000000E+00  0.00000000000E+00  0.39999999673E+01  0.40000000000E+01  0.51109989000E-03 0. -1.
     -623   -1    0    0    0    0  0.00000000000E+00  0.00000000000E+00  0.12525980253E-10  0.17130000000E+03  0.17130000000E+03 0. -1.
       11    1    1    2    0    0  0.15865378796E-02  0.30512997086E-02  0.49030953110E-02  0.60107486290E-02  0.51109989000E-03 0. -1.
     -623    1    1    2    0    0  0.43818540012E-02 -0.14364884298E-02  0.13127798904E-02  0.17130000007E+03  0.17130000000E+03 0. -1.
      622    1    1    2    0    0 -0.59683918810E-02 -0.16148112787E-02  0.39937840924E+01  0.39939891845E+01  0.40000000000E-01 0. -1.
</event>
<event>
 5   0  0.7212170E+07  0.9118800E+02  0.7818608E-02  0.1180000E+00
       11   -1    0    0    0    0  0.00000000000E+00  0.00000000000E+00  0.39999999673E+01  0.40000000000E+01  0.51109989000E-03 0. -1.
     -623   -1    0    0    0    0  0.00000000000E+00  0.00000000000E+00  0.12525980253E-10  0.17130000000E+03  0.17130000000E+03 0.  1.
       11    1    1    2    0    0 -0.96045437796E-02  0.31467118651E-02  0.23293012715E+00  0.23314985399E+00  0.51109989000E-03 0. -1.
     -623    1    1    2    0    0  0.18965308136E-03 -0.12317318837E-02  0.44433762650E-03  0.17130000001E+03  0.17130000000E+03 0.  1.
      622    1    1    2    0    0  0.94148906983E-02 -0.19149799813E-02  0.37666255029E+01  0.37668501412E+01  0.40000000000E-01 0. -1.
</event>
<event>
 5   0  0.7212170E+07  0.9118800E+02  0.7818608E-02  0.1180000E+00
       11   -1    0    0    0    0  0.00000000000E+00  0.00000000000E+00  0.39999999673E+01  0.40000000000E+01  0.51109989000E-03 0. -1.
     -623   -1    0    0    0    0  0.00000000000E+00  0.00000000000E+00  0.12525980253E-10  0.17130000000E+03  0.17130000000E+03 0. -1.
       11    1    1    2    0    0  0.67634267931E-02  0.16752491260E-01  0.22915676789E+01  0.22916389502E+01  0.51109989000E-03 0. -1.
     -623    1    1    2    0    0 -0.41457852384E-02 -0.93437299575E-02  0.55796947329E-03  0.17130000031E+03  0.17130000000E+03 0. -1.
      622    1    1    2    0    0 -0.26176415546E-02 -0.74087613023E-02  0.17078743190E+01  0.17083607439E+01  0.40000000000E-01 0. -1.
</event>
<event>
 5   0  0.7212170E+07  0.9118800E+02  0.7818608E-02  0.1180000E+00
       11   -1    0    0    0    0  0.00000000000E+00  0.00000000000E+00  0.39999999673E+01  0.40000000000E+01  0.51109989000E-03 0.  1.
     -623   -1    0    0    0    0  0.00000000000E+00  0.00000000000E+00  0.12525980253E-10  0.17130000000E+03  0.17130000000E+03 0.  1.
       11    1    1    2    0    0 -0.65072012303E-01 -0.11251039938E-01  0.90003066751E+00  0.90245022930E+00  0.51109989000E-03 0.  1.
     -623    1    1    2    0    0  0.31227688468E-01  0.66901761218E-02  0.28690834465E-02  0.17130000300E+03  0.17130000000E+03 0.  1.
      622    1    1    2    0    0  0.33844323834E-01  0.45608638161E-02  0.30971002165E+01  0.30975467698E+01  0.40000000000E-01 0.  1.
</event>
<event>
 5   0  0.7212170E+07  0.9118800E+02  0.7818608E-02  0.1180000E+00
       11   -1    0    0    0    0  0.00000000000E+00  0.00000000000E+00  0.39999999673E+01  0.40000000000E+01  0.51109989000E-03 0. -1.
     -623   -1    0    0    0    0  0.00000000000E+00  0.00000000000E+00  0.12525980253E-10  0.17130000000E+03  0.17130000000E+03 0.  1.
       11    1    1    2    0    0  0.46064576090E-01 -0.20595060856E-01  0.20926149528E+01  0.20932232808E+01  0.51109989000E-03 0. -1.
     -623    1    1    2    0    0  0.82964999077E-03  0.32616450697E-03  0.17125562142E-02  0.17130000001E+03  0.17130000000E+03 0.  1.
      622    1    1    2    0    0 -0.46894226081E-01  0.20268896349E-01  0.19056724585E+01  0.19067767084E+01  0.40000000000E-01 0.  1.
</event>
<event>
 5   0  0.7212170E+07  0.9118800E+02  0.7818608E-02  0.1180000E+00
       11   -1    0    0    0    0  0.00000000000E+00  0.00000000000E+00  0.39999999673E+01  0.40000000000E+01  0.51109989000E-03 0. -1.
     -623   -1    0    0    0    0  0.00000000000E+00  0.00000000000E+00  0.12525980253E-10  0.17130000000E+03  0.17130000000E+03 0. -1.
       11    1    1    2    0    0  0.29287065983E-02  0.19611332633E-02  0.20286217127E+00  0.20289343291E+00  0.51109989000E-03 0. -1.
     -623    1    1    2    0    0 -0.26833396109E-02 -0.17064432742E-02  0.24196775179E-03  0.17130000003E+03  0.17130000000E+03 0. -1.
      622    1    1    2    0    0 -0.24536698680E-03 -0.25468998878E-03  0.37968958292E+01  0.37971065383E+01  0.40000000000E-01 0. -1.
</event>
<event>
 5   0  0.7212170E+07  0.9118800E+02  0.7818608E-02  0.1180000E+00
       11   -1    0    0    0    0  0.00000000000E+00  0.00000000000E+00  0.39999999673E+01  0.40000000000E+01  0.51109989000E-03 0.  1.
     -623   -1    0    0    0    0  0.00000000000E+00  0.00000000000E+00  0.12525980253E-10  0.17130000000E+03  0.17130000000E+03 0. -1.
       11    1    1    2    0    0 -0.44680385773E-02 -0.28062895638E-02  0.38312696953E-01  0.38677675742E-01  0.51109989000E-03 0.  1.
     -623    1    1    2    0    0  0.10872364732E-02  0.19114196443E-02  0.56846295392E-03  0.17130000002E+03  0.17130000000E+03 0. -1.
      622    1    1    2    0    0  0.33808021043E-02  0.89486991965E-03  0.39611188070E+01  0.39613223088E+01  0.40000000000E-01 0.  1.
</event>
<event>
 5   0  0.7212170E+07  0.9118800E+02  0.7818608E-02  0.1180000E+00
       11   -1    0    0    0    0  0.00000000000E+00  0.00000000000E+00  0.39999999673E+01  0.40000000000E+01  0.51109989000E-03 0.  1.
     -623   -1    0    0    0    0  0.00000000000E+00  0.00000000000E+00  0.12525980253E-10  0.17130000000E+03  0.17130000000E+03 0.  1.
       11    1    1    2    0    0 -0.90714780900E-02 -0.45766391971E-02  0.30404085852E+00  0.30421101593E+00  0.51109989000E-03 0.  1.
     -623    1    1    2    0    0  0.44412262592E-02  0.14976095988E-01  0.40483933734E-03  0.17130000071E+03  0.17130000000E+03 0.  1.
      622    1    1    2    0    0  0.46302518299E-02 -0.10399456794E-01  0.36955542703E+01  0.36957882721E+01  0.40000000000E-01 0.  1.
</event>
<event>
 5   0  0.7212170E+07  0.9118800E+02  0.7818608E-02  0.1180000E+00
       11   -1    0    0    0    0  0.00000000000E+00  0.00000000000E+00  0.39999999673E+01  0.40000000000E+01  0.51109989000E-03 0.  1.
     -623   -1    0    0    0    0  0.00000000000E+00  0.00000000000E+00  0.12525980253E-10  0.17130000000E+03  0.17130000000E+03 0. -1.
       11    1    1    2    0    0 -0.28921499567E-02  0.48289769811E-02  0.31147725730E+00  0.31152853254E+00  0.51109989000E-03 0.  1.
     -623    1    1    2    0    0 -0.24812924553E-03 -0.78370433580E-04  0.27253774615E-03  0.17130000000E+03  0.17130000000E+03 0. -1.
      622    1    1    2    0    0  0.31402792022E-02 -0.47506065475E-02  0.36882501723E+01  0.36884714670E+01  0.40000000000E-01 0.  1.
</event>
<event>
 5   0  0.7212170E+07  0.9118800E+02  0.7818608E-02  0.1180000E+00
       11   -1    0    0    0    0  0.00000000000E+00  0.00000000000E+00  0.39999999673E+01  0.40000000000E+01  0.51109989000E-03 0.  1.
     -623   -1    0    0    0    0  0.00000000000E+00  0.00000000000E+00  0.12525980253E-10  0.17130000000E+03  0.17130000000E+03 0.  1.
       11    1    1    2    0    0 -0.94367388704E-03 -0.29725824028E-02  0.18832542359E-01  0.19095880219E-01  0.51109989000E-03 0.  1.
     -623    1    1    2    0    0  0.11515860255E-02  0.18110650151E-02  0.46445862900E-03  0.17130000001E+03  0.17130000000E+03 0.  1.
      622    1    1    2    0    0 -0.20791213867E-03  0.11615173875E-02  0.39807029670E+01  0.39809041064E+01  0.40000000000E-01 0.  1.
</event>
<event>
 5   0  0.7212170E+07  0.9118800E+02  0.7818608E-02  0.1180000E+00
       11   -1    0    0    0    0  0.00000000000E+00  0.00000000000E+00  0.39999999673E+01  0.40000000000E+01  0.51109989000E-03 0. -1.
     -623   -1    0    0    0    0  0.00000000000E+00  0.00000000000E+00  0.12525980253E-10  0.17130000000E+03  0.17130000000E+03 0. -1.
       11    1    1    2    0    0 -0.53505358461E-02  0.17970871760E-01  0.16388991590E+01  0.16390064964E+01  0.51109989000E-03 0. -1.
     -623    1    1    2    0    0  0.12839194677E-01 -0.25739042460E-01  0.47324484419E-03  0.17130000242E+03  0.17130000000E+03 0. -1.
      622    1    1    2    0    0 -0.74886588317E-02  0.77681707019E-02  0.23606275638E+01  0.23609910884E+01  0.40000000000E-01 0. -1.
</event>
<event>
 5   0  0.7212170E+07  0.9118800E+02  0.7818608E-02  0.1180000E+00
       11   -1    0    0    0    0  0.00000000000E+00  0.00000000000E+00  0.39999999673E+01  0.40000000000E+01  0.51109989000E-03 0. -1.
     -623   -1    0    0    0    0  0.00000000000E+00  0.00000000000E+00  0.12525980253E-10  0.17130000000E+03  0.17130000000E+03 0. -1.
       11    1    1    2    0    0 -0.54295577498E-02 -0.26302550074E-02  0.74061839492E+00  0.74064314380E+00  0.51109989000E-03 0. -1.
     -623    1    1    2    0    0  0.15078168469E-03 -0.15585163056E-02  0.27714688439E-03  0.17130000001E+03  0.17130000000E+03 0. -1.
      622    1    1    2    0    0  0.52787760651E-02  0.41887713130E-02  0.32591044258E+01  0.32593568490E+01  0.40000000000E-01 0. -1.
</event>
<event>
 5   0  0.7212170E+07  0.9118800E+02  0.7818608E-02  0.1180000E+00
       11   -1    0    0    0    0  0.00000000000E+00  0.00000000000E+00  0.39999999673E+01  0.40000000000E+01  0.51109989000E-03 0.  1.
     -623   -1    0    0    0    0  0.00000000000E+00  0.00000000000E+00  0.12525980253E-10  0.17130000000E+03  0.17130000000E+03 0. -1.
       11    1    1    2    0    0  0.29293144321E-01  0.59869890485E-02  0.95907664507E+00  0.95954270602E+00  0.51109989000E-03 0.  1.
     -623    1    1    2    0    0 -0.44329211770E-02 -0.86073375165E-02  0.83220794646E-03  0.17130000028E+03  0.17130000000E+03 0. -1.
      622    1    1    2    0    0 -0.24860223144E-01  0.26203484678E-02  0.30400911142E+01  0.30404570182E+01  0.40000000000E-01 0.  1.
</event>
<event>
 5   0  0.7212170E+07  0.9118800E+02  0.7818608E-02  0.1180000E+00
       11   -1    0    0    0    0  0.00000000000E+00  0.00000000000E+00  0.39999999673E+01  0.40000000000E+01  0.51109989000E-03 0.  1.
     -623   -1    0    0    0    0  0.00000000000E+00  0.00000000000E+00  0.12525980253E-10  0.17130000000E+03  0.17130000000E+03 0. -1.
       11    1    1    2    0    0  0.19311219708E-01 -0.21877113959E-02  0.13134803135E+01  0.13136241869E+01  0.51109989000E-03 0.  1.
     -623    1    1    2    0    0 -0.47535573252E-03 -0.65833683207E-03  0.50920992472E-03  0.17130000000E+03  0.17130000000E+03 0. -1.
      622    1    1    2    0    0 -0.18835863975E-01  0.28460482279E-02  0.26860104438E+01  0.26863758103E+01  0.40000000000E-01 0.  1.
</event>
<event>
 5   0  0.7212170E+07  0.9118800E+02  0.7818608E-02  0.1180000E+00
       11   -1    0    0    0    0  0.00000000000E+00  0.00000000000E+00  0.39999999673E+01  0.40000000000E+01  0.51109989000E-03 0.  1.
     -623   -1    0    0    0    0  0.00000000000E+00  0.00000000000E+00  0.12525980253E-10  0.17130000000E+03  0.17130000000E+03 0. -1.
       11    1    1    2    0    0 -0.11267203687E-01 -0.22599081121E-01  0.18140168906E+00  0.18315158303E+00  0.51109989000E-03 0.  1.
     -623    1    1    2    0    0 -0.13578334888E-02 -0.17509353455E-02  0.20580493022E-02  0.17130000003E+03  0.17130000000E+03 0. -1.
      622    1    1    2    0    0  0.12625037176E-01  0.24350016466E-01  0.38165402289E+01  0.38168483902E+01  0.40000000000E-01 0.  1.
</event>
<event>
 5   0  0.7212170E+07  0.9118800E+02  0.7818608E-02  0.1180000E+00
       11   -1    0    0    0    0  0.00000000000E+00  0.00000000000E+00  0.39999999673E+01  0.40000000000E+01  0.51109989000E-03 0.  1.
     -623   -1    0    0    0    0  0.00000000000E+00  0.00000000000E+00  0.12525980253E-10  0.17130000000E+03  0.17130000000E+03 0. -1.
       11    1    1    2    0    0  0.62318336551E-02 -0.40737973882E-02  0.13048887764E+00  0.13070210398E+00  0.51109989000E-03 0.  1.
     -623    1    1    2    0    0  0.36365309718E-02  0.10285124452E-02  0.43378074125E-03  0.17130000004E+03  0.17130000000E+03 0. -1.
      622    1    1    2    0    0 -0.98683646271E-02  0.30452849430E-02  0.38690773092E+01  0.38692978540E+01  0.40000000000E-01 0.  1.
</event>
<event>
 5   0  0.7212170E+07  0.9118800E+02  0.7818608E-02  0.1180000E+00
       11   -1    0    0    0    0  0.00000000000E+00  0.00000000000E+00  0.39999999673E+01  0.40000000000E+01  0.51109989000E-03 0. -1.
     -623   -1    0    0    0    0  0.00000000000E+00  0.00000000000E+00  0.12525980253E-10  0.17130000000E+03  0.17130000000E+03 0. -1.
       11    1    1    2    0    0  0.77142265526E-03 -0.15346639587E-02  0.15952919174E-01  0.16053259471E-01  0.51109989000E-03 0. -1.
     -623    1    1    2    0    0 -0.24787890308E-02  0.75956026714E-03  0.30157977914E-03  0.17130000002E+03  0.17130000000E+03 0. -1.
      622    1    1    2    0    0  0.17073663760E-02  0.77510369144E-03  0.39837454692E+01  0.39839467215E+01  0.40000000000E-01 0. -1.
</event>
<event>
 5   0  0.7212170E+07  0.9118800E+02  0.7818608E-02  0.1180000E+00
       11   -1    0    0    0    0  0.00000000000E+00  0.00000000000E+00  0.39999999673E+01  0.40000000000E+01  0.51109989000E-03 0.  1.
     -623   -1    0    0    0    0  0.00000000000E+00  0.00000000000E+00  0.12525980253E-10  0.17130000000E+03  0.17130000000E+03 0. -1.
       11    1    1    2    0    0 -0.61577298927E-02 -0.80287342957E-02  0.24309840801E+01  0.24310051907E+01  0.51109989000E-03 0.  1.
     -623    1    1    2    0    0 -0.92931559700E-03  0.73817978680E-03  0.56400165847E-03  0.17130000001E+03  0.17130000000E+03 0. -1.
      622    1    1    2    0    0  0.70870454899E-02  0.72905545088E-02  0.15684518863E+01  0.15689948050E+01  0.40000000000E-01 0.  1.
</event>
<event>
 5   0  0.7212170E+07  0.9118800E+02  0.7818608E-02  0.1180000E+00
       11   -1    0    0    0    0  0.00000000000E+00  0.00000000000E+00  0.39999999673E+01  0.40000000000E+01  0.51109989000E-03 0. -1.
     -623   -1    0    0    0    0  0.00000000000E+00  0.00000000000E+00  0.12525980253E-10  0.17130000000E+03  0.17130000000E+03 0. -1.
       11    1    1    2    0    0  0.13602186637E-02  0.59450714603E-02  0.11782555197E-01  0.13277194717E-01  0.51109989000E-03 0. -1.
     -623    1    1    2    0    0 -0.22285988987E-02 -0.26907640160E-01  0.17526242422E-02  0.17130000214E+03  0.17130000000E+03 0. -1.
      622    1    1    2    0    0  0.86838023498E-03  0.20962568699E-01  0.39864647879E+01  0.39867206685E+01  0.40000000000E-01 0. -1.
</event>
<event>
 5   0  0.7212170E+07  0.9118800E+02  0.7818608E-02  0.1180000E+00
       11   -1    0    0    0    0  0.00000000000E+00  0.00000000000E+00  0.39999999673E+01  0.40000000000E+01  0.51109989000E-03 0. -1.
     -623   -1    0    0    0    0  0.00000000000E+00  0.00000000000E+00  0.12525980253E-10  0.17130000000E+03  0.17130000000E+03 0. -1.
       11    1    1    2    0    0  0.84656676449E-02  0.72289133175E-02  0.18963204098E+00  0.18995919800E+00  0.51109989000E-03 0. -1.
     -623    1    1    2    0    0 -0.11773345805E-03  0.52074747160E-03  0.55413113104E-03  0.17130000000E+03  0.17130000000E+03 0. -1.
      622    1    1    2    0    0 -0.83479341868E-02 -0.77496607891E-02  0.38098137951E+01  0.38100408002E+01  0.40000000000E-01 0. -1.
</event>
<event>
 5   0  0.7212170E+07  0.9118800E+02  0.7818608E-02  0.1180000E+00
       11   -1    0    0    0    0  0.00000000000E+00  0.00000000000E+00  0.39999999673E+01  0.40000000000E+01  0.51109989000E-03 0.  1.
     -623   -1    0    0    0    0  0.00000000000E+00  0.00000000000E+00  0.12525980253E-10  0.17130000000E+03  0.17130000000E+03 0.  1.
       11    1    1    2    0    0 -0.89978707500E-02  0.95744082524E-02  0.32548760565E+00  0.32575308690E+00  0.51109989000E-03 0.  1.
     -623    1    1    2    0    0  0.82145465541E-02 -0.87791830969E-03  0.49376258053E-03  0.17130000020E+03  0.17130000000E+03 0.  1.
      622    1    1    2    0    0  0.78332419601E-03 -0.86964899427E-02  0.36740185991E+01  0.36742467132E+01  0.40000000000E-01 0.  1.
</event>
<event>
 5   0  0.7212170E+07  0.9118800E+02  0.7818608E-02  0.1180000E+00
       11   -1    0    0    0    0  0.00000000000E+00  0.00000000000E+00  0.39999999673E+01  0.40000000000E+01  0.51109989000E-03 0.  1.
     -623   -1    0    0    0    0  0.00000000000E+00  0.00000000000E+00  0.12525980253E-10  0.17130000000E+03  0.17130000000E+03 0. -1.
       11    1    1    2    0    0  0.52377948389E-02 -0.14097435488E-02  0.41455746963E+00  0.41459326902E+00  0.51109989000E-03 0.  1.
     -623    1    1    2    0    0 -0.50942132278E-02  0.63047551144E-03  0.25906507896E-03  0.17130000008E+03  0.17130000000E+03 0. -1.
      622    1    1    2    0    0 -0.14358160869E-03  0.77926803704E-03  0.35851834346E+01  0.35854066558E+01  0.40000000000E-01 0.  1.
</event>
<event>
 5   0  0.7212170E+07  0.9118800E+02  0.7818608E-02  0.1180000E+00
       11   -1    0    0    0    0  0.00000000000E+00  0.00000000000E+00  0.39999999673E+01  0.40000000000E+01  0.51109989000E-03 0.  1.
     -623   -1    0    0    0    0  0.00000000000E+00  0.00000000000E+00  0.12525980253E-10  0.17130000000E+03  0.17130000000E+03 0.  1.
       11    1    1    2    0    0  0.86752419358E-02  0.52000455278E-02  0.43535536323E+00  0.43547313788E+00  0.51109989000E-03 0.  1.
     -623    1    1    2    0    0  0.14056034949E-04 -0.14480141442E-03  0.35635984854E-03  0.17130000000E+03  0.17130000000E+03 0.  1.
      622    1    1    2    0    0 -0.86892979707E-02 -0.50552441134E-02  0.35642882445E+01  0.35645268619E+01  0.40000000000E-01 0.  1.
</event>
<event>
 5   0  0.7212170E+07  0.9118800E+02  0.7818608E-02  0.1180000E+00
       11   -1    0    0    0    0  0.00000000000E+00  0.00000000000E+00  0.39999999673E+01  0.40000000000E+01  0.51109989000E-03 0. -1.
     -623   -1    0    0    0    0  0.00000000000E+00  0.00000000000E+00  0.12525980253E-10  0.17130000000E+03  0.17130000000E+03 0.  1.
       11    1    1    2    0    0 -0.11348625009E-01  0.93656750593E-03  0.18627934832E-01  0.21838718540E-01  0.51109989000E-03 0. -1.
     -623    1    1    2    0    0  0.94537222308E-02  0.61571800085E-02  0.34190360783E-02  0.17130000041E+03  0.17130000000E+03 0.  1.
      622    1    1    2    0    0  0.18949027777E-02 -0.70937475145E-02  0.39779529965E+01  0.39781608758E+01  0.40000000000E-01 0. -1.
</event>
<event>
 5   0  0.7212170E+07  0.9118800E+02  0.7818608E-02  0.1180000E+00
       11   -1    0    0    0    0  0.00000000000E+00  0.00000000000E+00  0.39999999673E+01  0.40000000000E+01  0.51109989000E-03 0.  1.
     -623   -1    0    0    0    0  0.00000000000E+00  0.00000000000E+00  0.12525980253E-10  0.17130000000E+03  0.17130000000E+03 0. -1.
       11    1    1    2    0    0 -0.11053672865E-01 -0.39725768285E-01  0.13806688244E+01  0.13812845414E+01  0.51109989000E-03 0.  1.
     -623    1    1    2    0    0  0.96535999484E-02  0.21153367409E-01  0.98901886249E-03  0.17130000158E+03  0.17130000000E+03 0. -1.
      622    1    1    2    0    0  0.14000729155E-02  0.18572400873E-01  0.26183421246E+01  0.26187138781E+01  0.40000000000E-01 0.  0.
</event>
<event>
 5   0  0.7212170E+07  0.9118800E+02  0.7818608E-02  0.1180000E+00
       11   -1    0    0    0    0  0.00000000000E+00  0.00000000000E+00  0.39999999673E+01  0.40000000000E+01  0.51109989000E-03 0. -1.
     -623   -1    0    0    0    0  0.00000000000E+00  0.00000000000E+00  0.12525980253E-10  0.17130000000E+03  0.17130000000E+03 0.  1.
       11    1    1    2    0    0 -0.15867824449E-01 -0.24598275120E-02  0.78554551072E-01  0.80180529566E-01  0.51109989000E-03 0. -1.
     -623    1    1    2    0    0  0.68244987043E-02 -0.25933927344E-02  0.18438974363E-02  0.17130000017E+03  0.17130000000E+03 0.  1.
      622    1    1    2    0    0  0.90433257449E-02  0.50532202464E-02  0.39196015187E+01  0.39198193048E+01  0.40000000000E-01 0. -1.
</event>
<event>
 5   0  0.7212170E+07  0.9118800E+02  0.7818608E-02  0.1180000E+00
       11   -1    0    0    0    0  0.00000000000E+00  0.00000000000E+00  0.39999999673E+01  0.40000000000E+01  0.51109989000E-03 0. -1.
     -623   -1    0    0    0    0  0.00000000000E+00  0.00000000000E+00  0.12525980253E-10  0.17130000000E+03  0.17130000000E+03 0.  1.
       11    1    1    2    0    0 -0.18148802423E-02 -0.13545132920E-02  0.14563836152E-01  0.14747713149E-01  0.51109989000E-03 0. -1.
     -623    1    1    2    0    0  0.24810721994E-02  0.14504242373E-02  0.38467090676E-03  0.17130000002E+03  0.17130000000E+03 0.  1.
      622    1    1    2    0    0 -0.66619195745E-03 -0.95910945489E-04  0.39850514608E+01  0.39852522628E+01  0.40000000000E-01 0. -1.
</event>
<event>
 5   0  0.7212170E+07  0.9118800E+02  0.7818608E-02  0.1180000E+00
       11   -1    0    0    0    0  0.00000000000E+00  0.00000000000E+00  0.39999999673E+01  0.40000000000E+01  0.51109989000E-03 0. -1.
     -623   -1    0    0    0    0  0.00000000000E+00  0.00000000000E+00  0.12525980253E-10  0.17130000000E+03  0.17130000000E+03 0.  1.
       11    1    1    2    0    0  0.11745227938E-01  0.80892808827E-02  0.14571676998E+01  0.14572375761E+01  0.51109989000E-03 0. -1.
     -623    1    1    2    0    0 -0.31122077508E-02  0.63298285687E-02  0.44017292202E-03  0.17130000015E+03  0.17130000000E+03 0.  1.
      622    1    1    2    0    0 -0.86330201869E-02 -0.14419109451E-01  0.25423920946E+01  0.25427622780E+01  0.40000000000E-01 0.  0.
</event>
<event>
 5   0  0.7212170E+07  0.9118800E+02  0.7818608E-02  0.1180000E+00
       11   -1    0    0    0    0  0.00000000000E+00  0.00000000000E+00  0.39999999673E+01  0.40000000000E+01  0.51109989000E-03 0.  1.
     -623   -1    0    0    0    0  0.00000000000E+00  0.00000000000E+00  0.12525980253E-10  0.17130000000E+03  0.17130000000E+03 0. -1.
       11    1    1    2    0    0 -0.46696346908E-02  0.11576682629E-01  0.20757222813E+01  0.20757598790E+01  0.51109989000E-03 0.  1.
     -623    1    1    2    0    0 -0.35562633009E-02  0.73764887957E-02  0.56450624649E-03  0.17130000020E+03  0.17130000000E+03 0. -1.
      622    1    1    2    0    0  0.82258979918E-02 -0.18953171424E-01  0.19237131799E+01  0.19242399244E+01  0.40000000000E-01 0.  0.
</event>
<event>
 5   0  0.7212170E+07  0.9118800E+02  0.7818608E-02  0.1180000E+00
       11   -1    0    0    0    0  0.00000000000E+00  0.00000000000E+00  0.39999999673E+01  0.40000000000E+01  0.51109989000E-03 0.  1.
     -623   -1    0    0    0    0  0.00000000000E+00  0.00000000000E+00  0.12525980253E-10  0.17130000000E+03  0.17130000000E+03 0. -1.
       11    1    1    2    0    0  0.10694027758E-01  0.33201532384E-02  0.27060213102E+00  0.27083419315E+00  0.51109989000E-03 0.  1.
     -623    1    1    2    0    0  0.46237100475E-03  0.14659311225E-02  0.46632893450E-03  0.17130000001E+03  0.17130000000E+03 0. -1.
      622    1    1    2    0    0 -0.11156398763E-01 -0.47860843607E-02  0.37289315068E+01  0.37291657987E+01  0.40000000000E-01 0.  1.
</event>
<event>
 5   0  0.7212170E+07  0.9118800E+02  0.7818608E-02  0.1180000E+00
       11   -1    0    0    0    0  0.00000000000E+00  0.00000000000E+00  0.39999999673E+01  0.40000000000E+01  0.51109989000E-03 0.  1.
     -623   -1    0    0    0    0  0.00000000000E+00  0.00000000000E+00  0.12525980253E-10  0.17130000000E+03  0.17130000000E+03 0. -1.
       11    1    1    2    0    0  0.65743915926E-02  0.17864349230E-01  0.11530024155E+00  0.11686216036E+00  0.51109989000E-03 0.  1.
     -623    1    1    2    0    0 -0.15571144896E-02 -0.10464592433E-02  0.18075932188E-02  0.17130000002E+03  0.17130000000E+03 0. -1.
      622    1    1    2    0    0 -0.50172771030E-02 -0.16817889986E-01  0.38828921326E+01  0.38831378198E+01  0.40000000000E-01 0.  1.
</event>
<event>
 5   0  0.7212170E+07  0.9118800E+02  0.7818608E-02  0.1180000E+00
       11   -1    0    0    0    0  0.00000000000E+00  0.00000000000E+00  0.39999999673E+01  0.40000000000E+01  0.51109989000E-03 0. -1.
     -623   -1    0    0    0    0  0.00000000000E+00  0.00000000000E+00  0.12525980253E-10  0.17130000000E+03  0.17130000000E+03 0. -1.
       11    1    1    2    0    0 -0.22068838255E-02  0.17020836939E-02  0.49682217726E-02  0.57194296743E-02  0.51109989000E-03 0. -1.
     -623    1    1    2    0    0  0.29540440750E-02 -0.22808473307E-02  0.95162178286E-03  0.17130000004E+03  0.17130000000E+03 0. -1.
      622    1    1    2    0    0 -0.74716024968E-03  0.57876363697E-03  0.39940801241E+01  0.39942805273E+01  0.40000000000E-01 0. -1.
</event>
<event>
 5   0  0.7212170E+07  0.9118800E+02  0.7818608E-02  0.1180000E+00
       11   -1    0    0    0    0  0.00000000000E+00  0.00000000000E+00  0.39999999673E+01  0.40000000000E+01  0.51109989000E-03 0.  1.
     -623   -1    0    0    0    0  0.00000000000E+00  0.00000000000E+00  0.12525980253E-10  0.17130000000E+03  0.17130000000E+03 0.  1.
       11    1    1    2    0    0  0.22112572824E-03 -0.14403185255E-02  0.95233313665E-02  0.96477187696E-02  0.51109989000E-03 0.  1.
     -623    1    1    2    0    0 -0.14108849414E-02  0.12994092533E-03  0.32524206387E-03  0.17130000001E+03  0.17130000000E+03 0.  1.
      622    1    1    2    0    0  0.11897592133E-02  0.13103776002E-02  0.39901513944E+01  0.39903522756E+01  0.40000000000E-01 0.  1.
</event>
<event>
 5   0  0.7212170E+07  0.9118800E+02  0.7818608E-02  0.1180000E+00
       11   -1    0    0    0    0  0.00000000000E+00  0.00000000000E+00  0.39999999673E+01  0.40000000000E+01  0.51109989000E-03 0. -1.
     -623   -1    0    0    0    0  0.00000000000E+00  0.00000000000E+00  0.12525980253E-10  0.17130000000E+03  0.17130000000E+03 0. -1.
       11    1    1    2    0    0 -0.15674498224E-02  0.17158010476E-01  0.22895274141E+01  0.22895922989E+01  0.51109989000E-03 0. -1.
     -623    1    1    2    0    0  0.24806332090E-03  0.10450191235E-02  0.63004668210E-03  0.17130000000E+03  0.17130000000E+03 0. -1.
      622    1    1    2    0    0  0.13193865015E-02 -0.18203029600E-01  0.17098425072E+01  0.17104076972E+01  0.40000000000E-01 0.  0.
</event>
<event>
 5   0  0.7212170E+07  0.9118800E+02  0.7818608E-02  0.1180000E+00
       11   -1    0    0    0    0  0.00000000000E+00  0.00000000000E+00  0.39999999673E+01  0.40000000000E+01  0.51109989000E-03 0. -1.
     -623   -1    0    0    0    0  0.00000000000E+00  0.00000000000E+00  0.12525980253E-10  0.17130000000E+03  0.17130000000E+03 0.  1.
       11    1    1    2    0    0  0.33994789510E-01 -0.22366703002E-01  0.16105135745E+01  0.16110276689E+01  0.51109989000E-03 0. -1.
     -623    1    1    2    0    0 -0.16657085511E-01 -0.23157616487E-02  0.10402412110E-02  0.17130000083E+03  0.17130000000E+03 0.  1.
      622    1    1    2    0    0 -0.17337704000E-01  0.24682464650E-01  0.23884461515E+01  0.23889715023E+01  0.40000000000E-01 0. -1.
</event>
<event>
 5   0  0.7212170E+07  0.9118800E+02  0.7818608E-02  0.1180000E+00
       11   -1    0    0    0    0  0.00000000000E+00  0.00000000000E+00  0.39999999673E+01  0.40000000000E+01  0.51109989000E-03 0. -1.
     -623   -1    0    0    0    0  0.00000000000E+00  0.00000000000E+00  0.12525980253E-10  0.17130000000E+03  0.17130000000E+03 0. -1.
       11    1    1    2    0    0 -0.32273071203E-02  0.44828773432E-04  0.31615533706E-01  0.31783969473E-01  0.51109989000E-03 0. -1.
     -623    1    1    2    0    0  0.42206644964E-02  0.94222972204E-03  0.37031227317E-03  0.17130000005E+03  0.17130000000E+03 0. -1.
      622    1    1    2    0    0 -0.99335737683E-03 -0.98705849563E-03  0.39680141221E+01  0.39682159762E+01  0.40000000000E-01 0. -1.
</event>
<event>
 5   0  0.7212170E+07  0.9118800E+02  0.7818608E-02  0.1180000E+00
       11   -1    0    0    0    0  0.00000000000E+00  0.00000000000E+00  0.39999999673E+01  0.40000000000E+01  0.51109989000E-03 0.  1.
     -623   -1    0    0    0    0  0.00000000000E+00  0.00000000000E+00  0.12525980253E-10  0.17130000000E+03  0.17130000000E+03 0. -1.
       11    1    1    2    0    0 -0.76044525263E-03  0.61444153599E-02  0.24823782292E+00  0.24831554536E+00  0.51109989000E-03 0.  1.
     -623    1    1    2    0    0  0.27852802444E-02 -0.22955139500E-02  0.29349256804E-03  0.17130000004E+03  0.17130000000E+03 0. -1.
      622    1    1    2    0    0 -0.20248349910E-02 -0.38489014106E-02  0.37514686507E+01  0.37516844152E+01  0.40000000000E-01 0.  1.
</event>
<event>
 5   0  0.7212170E+07  0.9118800E+02  0.7818608E-02  0.1180000E+00
       11   -1    0    0    0    0  0.00000000000E+00  0.00000000000E+00  0.39999999673E+01  0.40000000000E+01  0.51109989000E-03 0. -1.
     -623   -1    0    0    0    0  0.00000000000E+00  0.00000000000E+00  0.12525980253E-10  0.17130000000E+03  0.17130000000E+03 0. -1.
       11    1    1    2    0    0 -0.83558725429E-03  0.14810284197E-02  0.49143376008E-02  0.52252835705E-02  0.51109989000E-03 0. -1.
     -623    1    1    2    0    0  0.14821971198E-02 -0.19142717736E-02  0.51127365589E-03  0.17130000002E+03  0.17130000000E+03 0. -1.
      622    1    1    2    0    0 -0.64660986578E-03  0.43324335433E-03  0.39945743569E+01  0.39947746994E+01  0.40000000000E-01 0. -1.
</event>
<event>
 5   0  0.7212170E+07  0.9118800E+02  0.7818608E-02  0.1180000E+00
       11   -1    0    0    0    0  0.00000000000E+00  0.00000000000E+00  0.39999999673E+01  0.40000000000E+01  0.51109989000E-03 0.  1.
     -623   -1    0    0    0    0  0.00000000000E+00  0.00000000000E+00  0.12525980253E-10  0.17130000000E+03  0.17130000000E+03 0. -1.
       11    1    1    2    0    0  0.10959451016E-01 -0.29508217033E-02  0.92034071393E+00  0.92041083645E+00  0.51109989000E-03 0.  1.
     -623    1    1    2    0    0 -0.41580638912E-03 -0.75405956852E-03  0.35015784851E-03  0.17130000000E+03  0.17130000000E+03 0. -1.
      622    1    1    2    0    0 -0.10543644627E-01  0.37048812720E-02  0.30793090964E+01  0.30795891619E+01  0.40000000000E-01 0.  1.
</event>
<event>
 5   0  0.7212170E+07  0.9118800E+02  0.7818608E-02  0.1180000E+00
       11   -1    0    0    0    0  0.00000000000E+00  0.00000000000E+00  0.39999999673E+01  0.40000000000E+01  0.51109989000E-03 0. -1.
     -623   -1    0    0    0    0  0.00000000000E+00  0.00000000000E+00  0.12525980253E-10  0.17130000000E+03  0.17130000000E+03 0. -1.
       11    1    1    2    0    0 -0.19775371147E-01 -0.28532687801E-02  0.11603908072E+01  0.11605629208E+01  0.51109989000E-03 0. -1.
     -623    1    1    2    0    0  0.10373751640E-01  0.76798236609E-02  0.47399684519E-03  0.17130000049E+03  0.17130000000E+03 0. -1.
      622    1    1    2    0    0  0.94016195069E-02 -0.48265548807E-02  0.28391351632E+01  0.28394365922E+01  0.40000000000E-01 0. -1.
</event>
<event>
 5   0  0.7212170E+07  0.9118800E+02  0.7818608E-02  0.1180000E+00
       11   -1    0    0    0    0  0.00000000000E+00  0.00000000000E+00  0.39999999673E+01  0.40000000000E+01  0.51109989000E-03 0.  1.
     -623   -1    0    0    0    0  0.00000000000E+00  0.00000000000E+00  0.12525980253E-10  0.17130000000E+03  0.17130000000E+03 0.  1.
       11    1    1    2    0    0  0.16855928298E-03 -0.11771418181E-02  0.80382226505E-02  0.81417640329E-02  0.51109989000E-03 0.  1.
     -623    1    1    2    0    0  0.51084487094E-03  0.94922335276E-03  0.30398967968E-03  0.17130000000E+03  0.17130000000E+03 0.  1.
      622    1    1    2    0    0 -0.67940415382E-03  0.22791846550E-03  0.39916577543E+01  0.39918582316E+01  0.40000000000E-01 0.  1.
</event>
<event>
 5   0  0.7212170E+07  0.9118800E+02  0.7818608E-02  0.1180000E+00
       11   -1    0    0    0    0  0.00000000000E+00  0.00000000000E+00  0.39999999673E+01  0.40000000000E+01  0.51109989000E-03 0.  1.
     -623   -1    0    0    0    0  0.00000000000E+00  0.00000000000E+00  0.12525980253E-10  0.17130000000E+03  0.17130000000E+03 0. -1.
       11    1    1    2    0    0  0.19920633372E-03 -0.57047358415E-03  0.15309601294E-01  0.15330043645E-01  0.51109989000E-03 0.  1.
     -623    1    1    2    0    0 -0.59666885813E-04  0.48851733757E-03  0.22118835589E-03  0.17130000000E+03  0.17130000000E+03 0. -1.
      622    1    1    2    0    0 -0.13953944787E-03  0.81956246326E-04  0.39844691797E+01  0.39846699575E+01  0.40000000000E-01 0.  1.
</event>
<event>
 5   0  0.7212170E+07  0.9118800E+02  0.7818608E-02  0.1180000E+00
       11   -1    0    0    0    0  0.00000000000E+00  0.00000000000E+00  0.39999999673E+01  0.40000000000E+01  0.51109989000E-03 0. -1.
     -623   -1    0    0    0    0  0.00000000000E+00  0.00000000000E+00  0.12525980253E-10  0.17130000000E+03  0.17130000000E+03 0.  1.
       11    1    1    2    0    0  0.52531228901E-02  0.93102879526E-02  0.44635356013E+00  0.44648184580E+00  0.51109989000E-03 0. -1.
     -623    1    1    2    0    0  0.32211221761E-02 -0.15702937068E-02  0.37196206584E-03  0.17130000004E+03  0.17130000000E+03 0.  1.
      622    1    1    2    0    0 -0.84742450658E-02 -0.77399942460E-02  0.35532744447E+01  0.35535181159E+01  0.40000000000E-01 0. -1.
</event>
<event>
 5   0  0.7212170E+07  0.9118800E+02  0.7818608E-02  0.1180000E+00
       11   -1    0    0    0    0  0.00000000000E+00  0.00000000000E+00  0.39999999673E+01  0.40000000000E+01  0.51109989000E-03 0. -1.
     -623   -1    0    0    0    0  0.00000000000E+00  0.00000000000E+00  0.12525980253E-10  0.17130000000E+03  0.17130000000E+03 0. -1.
       11    1    1    2    0    0  0.35741200913E-02  0.59634457231E-02  0.25725232137E+00  0.25734676041E+00  0.51109989000E-03 0. -1.
     -623    1    1    2    0    0  0.15858782660E-03  0.38843134237E-03  0.31541729756E-03  0.17130000000E+03  0.17130000000E+03 0. -1.
      622    1    1    2    0    0 -0.37327079179E-02 -0.63518770654E-02  0.37424322281E+01  0.37426532382E+01  0.40000000000E-01 0. -1.
</event>
<event>
 5   0  0.7212170E+07  0.9118800E+02  0.7818608E-02  0.1180000E+00
       11   -1    0    0    0    0  0.00000000000E+00  0.00000000000E+00  0.39999999673E+01  0.40000000000E+01  0.51109989000E-03 0. -1.
     -623   -1    0    0    0    0  0.00000000000E+00  0.00000000000E+00  0.12525980253E-10  0.17130000000E+03  0.17130000000E+03 0. -1.
       11    1    1    2    0    0  0.18871270891E-02 -0.13163235884E-02  0.18061929768E-01  0.18215062077E-01  0.51109989000E-03 0. -1.
     -623    1    1    2    0    0 -0.27432047156E-02  0.30946509175E-02  0.35455911239E-03  0.17130000005E+03  0.17130000000E+03 0. -1.
      622    1    1    2    0    0  0.85607762696E-03 -0.17783273296E-02  0.39815834792E+01  0.39817848883E+01  0.40000000000E-01 0. -1.
</event>
<event>
 5   0  0.7212170E+07  0.9118800E+02  0.7818608E-02  0.1180000E+00
       11   -1    0    0    0    0  0.00000000000E+00  0.00000000000E+00  0.39999999673E+01  0.40000000000E+01  0.51109989000E-03 0. -1.
     -623   -1    0    0    0    0  0.00000000000E+00  0.00000000000E+00  0.12525980253E-10  0.17130000000E+03  0.17130000000E+03 0.  1.
       11    1    1    2    0    0 -0.44204874514E-03  0.70665454894E-02  0.10961987882E+00  0.10984949034E+00  0.51109989000E-03 0. -1.
     -623    1    1    2    0    0 -0.25218421123E-02 -0.23984211373E-02  0.43919794316E-03  0.17130000004E+03  0.17130000000E+03 0.  1.
      622    1    1    2    0    0  0.29638908576E-02 -0.46681243520E-02  0.38899408908E+01  0.38901504740E+01  0.40000000000E-01 0. -1.
</event>
<event>
 5   0  0.7212170E+07  0.9118800E+02  0.7818608E-02  0.1180000E+00
       11   -1    0    0    0    0  0.00000000000E+00  0.00000000000E+00  0.39999999673E+01  0.40000000000E+01  0.51109989000E-03 0. -1.
     -623   -1    0    0    0    0  0.00000000000E+00  0.00000000000E+00  0.12525980253E-10  0.17130000000E+03  0.17130000000E+03 0.  1.
       11    1    1    2    0    0 -0.13342534678E-01  0.83041230320E-02  0.18360297731E+01  0.18360971027E+01  0.51109989000E-03 0. -1.
     -623    1    1    2    0    0 -0.10763138127E-02 -0.79832192310E-03  0.49810458826E-03  0.17130000001E+03  0.17130000000E+03 0.  1.
      622    1    1    2    0    0  0.14418848490E-01 -0.75058011089E-02  0.21634720899E+01  0.21639028915E+01  0.40000000000E-01 0. -1.
</event>
<event>
 5   0  0.7212170E+07  0.9118800E+02  0.7818608E-02  0.1180000E+00
       11   -1    0    0    0    0  0.00000000000E+00  0.00000000000E+00  0.39999999673E+01  0.40000000000E+01  0.51109989000E-03 0. -1.
     -623   -1    0    0    0    0  0.00000000000E+00  0.00000000000E+00  0.12525980253E-10  0.17130000000E+03  0.17130000000E+03 0.  1.
       11    1    1    2    0    0 -0.20063561662E-02  0.23670230358E-02  0.12817447937E-01  0.13197592881E-01  0.51109989000E-03 0. -1.
     -623    1    1    2    0    0  0.88177350618E-03  0.21395770258E-03  0.58177690700E-03  0.17130000000E+03  0.17130000000E+03 0.  1.
      622    1    1    2    0    0  0.11245826602E-02 -0.25809807383E-02  0.39866007418E+01  0.39868024030E+01  0.40000000000E-01 0. -1.
</event>
<event>
 5   0  0.7212170E+07  0.9118800E+02  0.7818608E-02  0.1180000E+00
       11   -1    0    0    0    0  0.00000000000E+00  0.00000000000E+00  0.39999999673E+01  0.40000000000E+01  0.51109989000E-03 0.  1.
     -623   -1    0    0    0    0  0.00000000000E+00  0.00000000000E+00  0.12525980253E-10  0.17130000000E+03  0.17130000000E+03 0.  1.
       11    1    1    2    0    0  0.46855384101E-03  0.33441104220E-02  0.59910992786E-01  0.60008256907E-01  0.51109989000E-03 0.  1.
     -623    1    1    2    0    0 -0.26387008568E-03  0.10619434369E-03  0.30179945993E-03  0.17130000000E+03  0.17130000000E+03 0.  1.
      622    1    1    2    0    0 -0.20468375539E-03 -0.34503047657E-02  0.39397871742E+01  0.39399917417E+01  0.40000000000E-01 0.  1.
</event>
<event>
 5   0  0.7212170E+07  0.9118800E+02  0.7818608E-02  0.1180000E+00
       11   -1    0    0    0    0  0.00000000000E+00  0.00000000000E+00  0.39999999673E+01  0.40000000000E+01  0.51109989000E-03 0.  1.
     -623   -1    0    0    0    0  0.00000000000E+00  0.00000000000E+00  0.12525980253E-10  0.17130000000E+03  0.17130000000E+03 0.  1.
       11    1    1    2    0    0  0.19019921065E-02  0.14729541068E-02  0.19886662219E+00  0.19888182876E+00  0.51109989000E-03 0.  1.
     -623    1    1    2    0    0 -0.15188894214E-02  0.12662526028E-02  0.22666205118E-03  0.17130000001E+03  0.17130000000E+03 0.  1.
      622    1    1    2    0    0 -0.38310268451E-03 -0.27392067101E-02  0.38009066847E+01  0.38011181613E+01  0.40000000000E-01 0.  1.
</event>
<event>
 5   0  0.7212170E+07  0.9118800E+02  0.7818608E-02  0.1180000E+00
       11   -1    0    0    0    0  0.00000000000E+00  0.00000000000E+00  0.39999999673E+01  0.40000000000E+01  0.51109989000E-03 0. -1.
     -623   -1    0    0    0    0  0.00000000000E+00  0.00000000000E+00  0.12525980253E-10  0.17130000000E+03  0.17130000000E+03 0. -1.
       11    1    1    2    0    0  0.32439780078E-02  0.14178097122E-01  0.34218795137E+00  0.34249729505E+00  0.51109989000E-03 0. -1.
     -623    1    1    2    0    0 -0.87743753299E-02 -0.19944910150E-02  0.55275858718E-03  0.17130000024E+03  0.17130000000E+03 0. -1.
      622    1    1    2    0    0  0.55303973232E-02 -0.12183606107E-01  0.36572592579E+01  0.36575024682E+01  0.40000000000E-01 0. -1.
</event>
<event>
 5   0  0.7212170E+07  0.9118800E+02  0.7818608E-02  0.1180000E+00
       11   -1    0    0    0    0  0.00000000000E+00  0.00000000000E+00  0.39999999673E+01  0.40000000000E+01  0.51109989000E-03 0.  1.
     -623   -1    0    0    0    0  0.00000000000E+00  0.00000000000E+00  0.12525980253E-10  0.17130000000E+03  0.17130000000E+03 0.  1.
       11    1    1    2    0    0 -0.70007372343E-04  0.72388640204E-02  0.21352308302E+01  0.21352431631E+01  0.51109989000E-03 0.  1.
     -623    1    1    2    0    0 -0.58663471375E-02  0.35159392572E-02  0.48196963789E-03  0.17130000014E+03  0.17130000000E+03 0.  1.
      622    1    1    2    0    0  0.59363545113E-02 -0.10754803278E-01  0.18642871685E+01  0.18647567007E+01  0.40000000000E-01 0. -1.
</event>
<event>
 5   0  0.7212170E+07  0.9118800E+02  0.7818608E-02  0.1180000E+00
       11   -1    0    0    0    0  0.00000000000E+00  0.00000000000E+00  0.39999999673E+01  0.40000000000E+01  0.51109989000E-03 0.  1.
     -623   -1    0    0    0    0  0.00000000000E+00  0.00000000000E+00  0.12525980253E-10  0.17130000000E+03  0.17130000000E+03 0.  1.
       11    1    1    2    0    0  0.10550489880E-02  0.13183626043E-02  0.27965148716E-02  0.33064976709E-02  0.51109989000E-03 0.  1.
     -623    1    1    2    0    0 -0.18830753059E-02  0.19727291953E-02  0.71158469966E-03  0.17130000002E+03  0.17130000000E+03 0.  1.
      622    1    1    2    0    0  0.82802631777E-03 -0.32910917995E-02  0.39964918677E+01  0.39966934790E+01  0.40000000000E-01 0.  1.
</event>
<event>
 5   0  0.7212170E+07  0.9118800E+02  0.7818608E-02  0.1180000E+00
       11   -1    0    0    0    0  0.00000000000E+00  0.00000000000E+00  0.39999999673E+01  0.40000000000E+01  0.51109989000E-03 0.  1.
     -623   -1    0    0    0    0  0.00000000000E+00  0.00000000000E+00  0.12525980253E-10  0.17130000000E+03  0.17130000000E+03 0. -1.
       11    1    1    2    0    0 -0.20593144387E-03 -0.50255451286E-03  0.36733314451E-03  0.83133960244E-03  0.51109989000E-03 0.  1.
     -623    1    1    2    0    0  0.24586929931E-03  0.39446275185E-03  0.66402397475E-03  0.17130000000E+03  0.17130000000E+03 0. -1.
      622    1    1    2    0    0 -0.39937855453E-04  0.10809176098E-03  0.39989686105E+01  0.39991686588E+01  0.40000000000E-01 0.  1.
</event>
<event>
 5   0  0.7212170E+07  0.9118800E+02  0.7818608E-02  0.1180000E+00
       11   -1    0    0    0    0  0.00000000000E+00  0.00000000000E+00  0.39999999673E+01  0.40000000000E+01  0.51109989000E-03 0.  1.
     -623   -1    0    0    0    0  0.00000000000E+00  0.00000000000E+00  0.12525980253E-10  0.17130000000E+03  0.17130000000E+03 0. -1.
       11    1    1    2    0    0  0.83327602465E-02 -0.10411215164E-02  0.96056697162E+00  0.96060381377E+00  0.51109989000E-03 0.  1.
     -623    1    1    2    0    0  0.87517725950E-02  0.12590836048E-02  0.34828832393E-03  0.17130000023E+03  0.17130000000E+03 0. -1.
      622    1    1    2    0    0 -0.17084532843E-01 -0.21796208860E-03  0.30390847082E+01  0.30393959584E+01  0.40000000000E-01 0.  0.
</event>
<event>
 5   0  0.7212170E+07  0.9118800E+02  0.7818608E-02  0.1180000E+00
       11   -1    0    0    0    0  0.00000000000E+00  0.00000000000E+00  0.39999999673E+01  0.40000000000E+01  0.51109989000E-03 0. -1.
     -623   -1    0    0    0    0  0.00000000000E+00  0.00000000000E+00  0.12525980253E-10  0.17130000000E+03  0.17130000000E+03 0.  1.
       11    1    1    2    0    0  0.12305648717E-02 -0.21038333686E-02  0.53513141443E-02  0.59023885771E-02  0.51109989000E-03 0. -1.
     -623    1    1    2    0    0 -0.32367506524E-02  0.56652339573E-02  0.75356003065E-03  0.17130000013E+03  0.17130000000E+03 0.  1.
      622    1    1    2    0    0  0.20061857808E-02 -0.35614005888E-02  0.39938950933E+01  0.39940974856E+01  0.40000000000E-01 0. -1.
</event>
<event>
 5   0  0.7212170E+07  0.9118800E+02  0.7818608E-02  0.1180000E+00
       11   -1    0    0    0    0  0.00000000000E+00  0.00000000000E+00  0.39999999673E+01  0.40000000000E+01  0.51109989000E-03 0. -1.
     -623   -1    0    0    0    0  0.00000000000E+00  0.00000000000E+00  0.12525980253E-10  0.17130000000E+03  0.17130000000E+03 0. -1.
       11    1    1    2    0    0  0.14000101550E-03 -0.92956124649E-03  0.37709464583E-02  0.39198143686E-02  0.51109989000E-03 0. -1.
     -623    1    1    2    0    0  0.24610231484E-02  0.65329348170E-04  0.34999451356E-03  0.17130000002E+03  0.17130000000E+03 0. -1.
      622    1    1    2    0    0 -0.26010241646E-02  0.86423189830E-03  0.39958790276E+01  0.39960801688E+01  0.40000000000E-01 0. -1.
</event>
<event>
 5   0  0.7212170E+07  0.9118800E+02  0.7818608E-02  0.1180000E+00
       11   -1    0    0    0    0  0.00000000000E+00  0.00000000000E+00  0.39999999673E+01  0.40000000000E+01  0.51109989000E-03 0.  1.
     -623   -1    0    0    0    0  0.00000000000E+00  0.00000000000E+00  0.12525980253E-10  0.17130000000E+03  0.17130000000E+03 0.  1.
       11    1    1    2    0    0  0.29575456461E-02 -0.62638850530E-02  0.29671149099E+00  0.29679277862E+00  0.51109989000E-03 0.  1.
     -623    1    1    2    0    0  0.56021460276E-02  0.38497177978E-02  0.30810549990E-03  0.17130000014E+03  0.17130000000E+03 0.  1.
      622    1    1    2    0    0 -0.85596916743E-02  0.24141672548E-02  0.37029803713E+01  0.37032070867E+01  0.40000000000E-01 0.  1.
</event>
<event>
 5   0  0.7212170E+07  0.9118800E+02  0.7818608E-02  0.1180000E+00
       11   -1    0    0    0    0  0.00000000000E+00  0.00000000000E+00  0.39999999673E+01  0.40000000000E+01  0.51109989000E-03 0.  1.
     -623   -1    0    0    0    0  0.00000000000E+00  0.00000000000E+00  0.12525980253E-10  0.17130000000E+03  0.17130000000E+03 0.  1.
       11    1    1    2    0    0  0.34888347413E-04  0.17544272338E-02  0.11023791525E-01  0.11174275583E-01  0.51109989000E-03 0.  1.
     -623    1    1    2    0    0  0.68707151644E-03 -0.57769526807E-03  0.35125837119E-03  0.17130000000E+03  0.17130000000E+03 0.  1.
      622    1    1    2    0    0 -0.72195986392E-03 -0.11767319657E-02  0.39886249178E+01  0.39888257221E+01  0.40000000000E-01 0.  1.
</event>
<event>
 5   0  0.7212170E+07  0.9118800E+02  0.7818608E-02  0.1180000E+00
       11   -1    0    0    0    0  0.00000000000E+00  0.00000000000E+00  0.39999999673E+01  0.40000000000E+01  0.51109989000E-03 0.  1.
     -623   -1    0    0    0    0  0.00000000000E+00  0.00000000000E+00  0.12525980253E-10  0.17130000000E+03  0.17130000000E+03 0. -1.
       11    1    1    2    0    0 -0.49222146852E-02  0.35338360201E-02  0.29091930916E-01  0.29720663888E-01  0.51109989000E-03 0.  1.
     -623    1    1    2    0    0  0.55819772839E-02 -0.25886320889E-02  0.83048246672E-03  0.17130000011E+03  0.17130000000E+03 0. -1.
      622    1    1    2    0    0 -0.65976259887E-03 -0.94520393114E-03  0.39700775541E+01  0.39702792237E+01  0.40000000000E-01 0.  1.
</event>
<event>
 5   0  0.7212170E+07  0.9118800E+02  0.7818608E-02  0.1180000E+00
       11   -1    0    0    0    0  0.00000000000E+00  0.00000000000E+00  0.39999999673E+01  0.40000000000E+01  0.51109989000E-03 0.  1.
     -623   -1    0    0    0    0  0.00000000000E+00  0.00000000000E+00  0.12525980253E-10  0.17130000000E+03  0.17130000000E+03 0.  1.
       11    1    1    2    0    0 -0.82240484658E-03  0.77529723511E-03  0.24646369355E-02  0.27591835487E-02  0.51109989000E-03 0.  1.
     -623    1    1    2    0    0 -0.30421919365E-04 -0.64212019036E-03  0.49475215910E-03  0.17130000000E+03  0.17130000000E+03 0.  1.
      622    1    1    2    0    0  0.85282676595E-03 -0.13317704474E-03  0.39970405783E+01  0.39972408146E+01  0.40000000000E-01 0.  1.
</event>
<event>
 5   0  0.7212170E+07  0.9118800E+02  0.7818608E-02  0.1180000E+00
       11   -1    0    0    0    0  0.00000000000E+00  0.00000000000E+00  0.39999999673E+01  0.40000000000E+01  0.51109989000E-03 0.  1.
     -623   -1    0    0    0    0  0.00000000000E+00  0.00000000000E+00  0.12525980253E-10  0.17130000000E+03  0.17130000000E+03 0.  1.
       11    1    1    2    0    0 -0.18759356203E-02 -0.40320574892E-02  0.61272187345E-02  0.75881917850E-02  0.51109989000E-03 0.  1.
     -623    1    1    2    0    0 -0.11088847383E-03  0.84024101970E-02  0.16644263286E-02  0.17130000021E+03  0.17130000000E+03 0.  1.
      622    1    1    2    0    0  0.19868240942E-02 -0.43703527083E-02  0.39922083225E+01  0.39924115942E+01  0.40000000000E-01 0.  1.
</event>
<event>
 5   0  0.7212170E+07  0.9118800E+02  0.7818608E-02  0.1180000E+00
       11   -1    0    0    0    0  0.00000000000E+00  0.00000000000E+00  0.39999999673E+01  0.40000000000E+01  0.51109989000E-03 0. -1.
     -623   -1    0    0    0    0  0.00000000000E+00  0.00000000000E+00  0.12525980253E-10  0.17130000000E+03  0.17130000000E+03 0. -1.
       11    1    1    2    0    0 -0.24651830259E-03  0.94690362677E-03  0.18788667634E-01  0.18821069372E-01  0.51109989000E-03 0. -1.
     -623    1    1    2    0    0 -0.88005662328E-03 -0.12210550817E-02  0.23349528805E-03  0.17130000001E+03  0.17130000000E+03 0. -1.
      622    1    1    2    0    0  0.11265749260E-02  0.27415145509E-03  0.39809778049E+01  0.39811789243E+01  0.40000000000E-01 0. -1.
</event>
<event>
 5   0  0.7212170E+07  0.9118800E+02  0.7818608E-02  0.1180000E+00
       11   -1    0    0    0    0  0.00000000000E+00  0.00000000000E+00  0.39999999673E+01  0.40000000000E+01  0.51109989000E-03 0.  1.
     -623   -1    0    0    0    0  0.00000000000E+00  0.00000000000E+00  0.12525980253E-10  0.17130000000E+03  0.17130000000E+03 0. -1.
       11    1    1    2    0    0  0.14380702892E-02 -0.67250407271E-02  0.76964505171E-01  0.77272831566E-01  0.51109989000E-03 0.  1.
     -623    1    1    2    0    0  0.28376283691E-03 -0.17424403874E-03  0.51868536939E-03  0.17130000000E+03  0.17130000000E+03 0. -1.
      622    1    1    2    0    0 -0.17218331262E-02  0.68992847658E-02  0.39225167775E+01  0.39227271680E+01  0.40000000000E-01 0.  1.
</event>
<event>
 5   0  0.7212170E+07  0.9118800E+02  0.7818608E-02  0.1180000E+00
       11   -1    0    0    0    0  0.00000000000E+00  0.00000000000E+00  0.39999999673E+01  0.40000000000E+01  0.51109989000E-03 0.  1.
     -623   -1    0    0    0    0  0.00000000000E+00  0.00000000000E+00  0.12525980253E-10  0.17130000000E+03  0.17130000000E+03 0.  1.
       11    1    1    2    0    0  0.44000738572E-02  0.31963370582E-04  0.10922932094E+00  0.10931910834E+00  0.51109989000E-03 0.  1.
     -623    1    1    2    0    0 -0.41345310797E-02  0.41664201637E-03  0.29546531360E-03  0.17130000005E+03  0.17130000000E+03 0.  1.
      622    1    1    2    0    0 -0.26554277711E-03 -0.44860538699E-03  0.38904751814E+01  0.38906808413E+01  0.40000000000E-01 0.  1.
</event>
<event>
 5   0  0.7212170E+07  0.9118800E+02  0.7818608E-02  0.1180000E+00
       11   -1    0    0    0    0  0.00000000000E+00  0.00000000000E+00  0.39999999673E+01  0.40000000000E+01  0.51109989000E-03 0. -1.
     -623   -1    0    0    0    0  0.00000000000E+00  0.00000000000E+00  0.12525980253E-10  0.17130000000E+03  0.17130000000E+03 0. -1.
       11    1    1    2    0    0  0.10086073737E-02  0.48845332145E-03  0.12040328128E-01  0.12103164875E-01  0.51109989000E-03 0. -1.
     -623    1    1    2    0    0  0.11633587379E-03  0.43597959175E-03  0.26368277274E-03  0.17130000000E+03  0.17130000000E+03 0. -1.
      622    1    1    2    0    0 -0.11249432475E-02 -0.92443291305E-03  0.39876959550E+01  0.39878968329E+01  0.40000000000E-01 0. -1.
</event>
<event>
 5   0  0.7212170E+07  0.9118800E+02  0.7818608E-02  0.1180000E+00
       11   -1    0    0    0    0  0.00000000000E+00  0.00000000000E+00  0.39999999673E+01  0.40000000000E+01  0.51109989000E-03 0.  1.
     -623   -1    0    0    0    0  0.00000000000E+00  0.00000000000E+00  0.12525980253E-10  0.17130000000E+03  0.17130000000E+03 0.  1.
       11    1    1    2    0    0  0.97808659032E-02  0.14591228344E-03  0.22028998449E+00  0.22050765319E+00  0.51109989000E-03 0.  1.
     -623    1    1    2    0    0  0.29330829545E-02 -0.26145175032E-01  0.54214919405E-03  0.17130000202E+03  0.17130000000E+03 0.  1.
      622    1    1    2    0    0 -0.12713948858E-01  0.25999262752E-01  0.37791678341E+01  0.37794903260E+01  0.40000000000E-01 0.  1.
</event>
<event>
 5   0  0.7212170E+07  0.9118800E+02  0.7818608E-02  0.1180000E+00
       11   -1    0    0    0    0  0.00000000000E+00  0.00000000000E+00  0.39999999673E+01  0.40000000000E+01  0.51109989000E-03 0.  1.
     -623   -1    0    0    0    0  0.00000000000E+00  0.00000000000E+00  0.12525980253E-10  0.17130000000E+03  0.17130000000E+03 0.  1.
       11    1    1    2    0    0 -0.17883123567E-01  0.30040785146E-01  0.67659301464E+00  0.67749584764E+00  0.51109989000E-03 0.  1.
     -623    1    1    2    0    0  0.50553502535E-03  0.11889622593E-02  0.13358370171E-02  0.17130000001E+03  0.17130000000E+03 0.  1.
      622    1    1    2    0    0  0.17377588542E-01 -0.31229747406E-01  0.33220711160E+01  0.33225041426E+01  0.40000000000E-01 0.  1.
</event>
<event>
 5   0  0.7212170E+07  0.9118800E+02  0.7818608E-02  0.1180000E+00
       11   -1    0    0    0    0  0.00000000000E+00  0.00000000000E+00  0.39999999673E+01  0.40000000000E+01  0.51109989000E-03 0.  1.
     -623   -1    0    0    0    0  0.00000000000E+00  0.00000000000E+00  0.12525980253E-10  0.17130000000E+03  0.17130000000E+03 0. -1.
       11    1    1    2    0    0 -0.19733825750E-01  0.56771635306E-02  0.44972982360E+00  0.45019865563E+00  0.51109989000E-03 0.  1.
     -623    1    1    2    0    0 -0.19452419421E-01 -0.26330338097E-01  0.97370061803E-03  0.17130000313E+03  0.17130000000E+03 0. -1.
      622    1    1    2    0    0  0.39186245173E-01  0.20653174569E-01  0.35492964436E+01  0.35497982140E+01  0.40000000000E-01 0.  1.
</event>
<event>
 5   0  0.7212170E+07  0.9118800E+02  0.7818608E-02  0.1180000E+00
       11   -1    0    0    0    0  0.00000000000E+00  0.00000000000E+00  0.39999999673E+01  0.40000000000E+01  0.51109989000E-03 0.  1.
     -623   -1    0    0    0    0  0.00000000000E+00  0.00000000000E+00  0.12525980253E-10  0.17130000000E+03  0.17130000000E+03 0.  1.
       11    1    1    2    0    0  0.25101797378E-04 -0.14654462271E-03 -0.16788603721E-02  0.17612213584E-02  0.51109989000E-03 0.  1.
     -623    1    1    2    0    0 -0.29601778696E-02  0.97142986546E-02  0.36530079229E-02  0.17130000034E+03  0.17130000000E+03 0.  1.
      622    1    1    2    0    0  0.29350760723E-02 -0.95677540321E-02  0.39980258199E+01  0.39982384388E+01  0.40000000000E-01 0.  1.
</event>
<event>
 5   0  0.7212170E+07  0.9118800E+02  0.7818608E-02  0.1180000E+00
       11   -1    0    0    0    0  0.00000000000E+00  0.00000000000E+00  0.39999999673E+01  0.40000000000E+01  0.51109989000E-03 0. -1.
     -623   -1    0    0    0    0  0.00000000000E+00  0.00000000000E+00  0.12525980253E-10  0.17130000000E+03  0.17130000000E+03 0. -1.
       11    1    1    2    0    0  0.51555528631E-02 -0.84466165439E-02  0.55810413100E+00  0.55819208819E+00  0.51109989000E-03 0. -1.
     -623    1    1    2    0    0  0.44368565446E-02  0.12557370768E-01  0.33670958833E-03  0.17130000052E+03  0.17130000000E+03 0. -1.
      622    1    1    2    0    0 -0.95924094092E-02 -0.41107542286E-02  0.34415591281E+01  0.34418073951E+01  0.40000000000E-01 0. -1.
</event>
<event>
 5   0  0.7212170E+07  0.9118800E+02  0.7818608E-02  0.1180000E+00
       11   -1    0    0    0    0  0.00000000000E+00  0.00000000000E+00  0.39999999673E+01  0.40000000000E+01  0.51109989000E-03 0. -1.
     -623   -1    0    0    0    0  0.00000000000E+00  0.00000000000E+00  0.12525980253E-10  0.17130000000E+03  0.17130000000E+03 0.  1.
       11    1    1    2    0    0  0.10199185323E-02 -0.33692845935E-02  0.16222494832E+00  0.16226394360E+00  0.51109989000E-03 0. -1.
     -623    1    1    2    0    0 -0.89385642183E-03  0.11697437336E-02  0.24806346292E-03  0.17130000001E+03  0.17130000000E+03 0.  1.
      622    1    1    2    0    0 -0.12606211009E-03  0.21995408595E-02  0.38375269571E+01  0.38377360515E+01  0.40000000000E-01 0. -1.
</event>
<event>
 5   0  0.7212170E+07  0.9118800E+02  0.7818608E-02  0.1180000E+00
       11   -1    0    0    0    0  0.00000000000E+00  0.00000000000E+00  0.39999999673E+01  0.40000000000E+01  0.51109989000E-03 0.  1.
     -623   -1    0    0    0    0  0.00000000000E+00  0.00000000000E+00  0.12525980253E-10  0.17130000000E+03  0.17130000000E+03 0.  1.
       11    1    1    2    0    0 -0.92853378406E-03  0.16573115726E-02  0.48792799470E-02  0.52609364695E-02  0.51109989000E-03 0.  1.
     -623    1    1    2    0    0 -0.16088977051E-02 -0.17640683029E-02  0.58271727329E-03  0.17130000002E+03  0.17130000000E+03 0.  1.
      622    1    1    2    0    0  0.25374314893E-02  0.10675673038E-03  0.39945379704E+01  0.39947390462E+01  0.40000000000E-01 0.  1.
</event>
<event>
 5   0  0.7212170E+07  0.9118800E+02  0.7818608E-02  0.1180000E+00
       11   -1    0    0    0    0  0.00000000000E+00  0.00000000000E+00  0.39999999673E+01  0.40000000000E+01  0.51109989000E-03 0.  1.
     -623   -1    0    0    0    0  0.00000000000E+00  0.00000000000E+00  0.12525980253E-10  0.17130000000E+03  0.17130000000E+03 0.  1.
       11    1    1    2    0    0 -0.42463761945E-02  0.13905265072E-03  0.92552516603E-01  0.92651392861E-01  0.51109989000E-03 0.  1.
     -623    1    1    2    0    0  0.16950832568E-03 -0.67561064010E-03  0.30575691390E-03  0.17130000000E+03  0.17130000000E+03 0.  1.
      622    1    1    2    0    0  0.40768678688E-02  0.53655798939E-03  0.39071416939E+01  0.39073486055E+01  0.40000000000E-01 0.  1.
</event>
<event>
 5   0  0.7212170E+07  0.9118800E+02  0.7818608E-02  0.1180000E+00
       11   -1    0    0    0    0  0.00000000000E+00  0.00000000000E+00  0.39999999673E+01  0.40000000000E+01  0.51109989000E-03 0.  1.
     -623   -1    0    0    0    0  0.00000000000E+00  0.00000000000E+00  0.12525980253E-10  0.17130000000E+03  0.17130000000E+03 0. -1.
       11    1    1    2    0    0  0.13942566869E-02 -0.85790680840E-02  0.16754091571E+01  0.16754317800E+01  0.51109989000E-03 0.  1.
     -623    1    1    2    0    0  0.23430082944E-02 -0.70039459088E-02  0.42216974066E-03  0.17130000016E+03  0.17130000000E+03 0. -1.
      622    1    1    2    0    0 -0.37372649814E-02  0.15583013993E-01  0.23241686406E+01  0.23245680604E+01  0.40000000000E-01 0. -1.
</event>
<event>
 5   0  0.7212170E+07  0.9118800E+02  0.7818608E-02  0.1180000E+00
       11   -1    0    0    0    0  0.00000000000E+00  0.00000000000E+00  0.39999999673E+01  0.40000000000E+01  0.51109989000E-03 0.  1.
     -623   -1    0    0    0    0  0.00000000000E+00  0.00000000000E+00  0.12525980253E-10  0.17130000000E+03  0.17130000000E+03 0. -1.
       11    1    1    2    0    0  0.12042866969E-03  0.30717538328E-03  0.36657819223E-02  0.37159171116E-02  0.51109989000E-03 0.  1.
     -623    1    1    2    0    0 -0.34367294252E-03  0.28575362063E-03  0.25034452227E-03  0.17130000000E+03  0.17130000000E+03 0. -1.
      622    1    1    2    0    0  0.22324427304E-03 -0.59292900410E-03  0.39960838435E+01  0.39962840847E+01  0.40000000000E-01 0.  1.
</event>
<event>
 5   0  0.7212170E+07  0.9118800E+02  0.7818608E-02  0.1180000E+00
       11   -1    0    0    0    0  0.00000000000E+00  0.00000000000E+00  0.39999999673E+01  0.40000000000E+01  0.51109989000E-03 0.  1.
     -623   -1    0    0    0    0  0.00000000000E+00  0.00000000000E+00  0.12525980253E-10  0.17130000000E+03  0.17130000000E+03 0.  1.
       11    1    1    2    0    0  0.14829713816E-01  0.18162933428E-01  0.21434517731E+01  0.21435800842E+01  0.51109989000E-03 0.  1.
     -623    1    1    2    0    0 -0.74643356868E-02 -0.34947650233E-02  0.63204332303E-03  0.17130000020E+03  0.17130000000E+03 0.  1.
      622    1    1    2    0    0 -0.73653781306E-02 -0.14668168405E-01  0.18559161505E+01  0.18564197159E+01  0.40000000000E-01 0.  0.
</event>
<event>
 5   0  0.7212170E+07  0.9118800E+02  0.7818608E-02  0.1180000E+00
       11   -1    0    0    0    0  0.00000000000E+00  0.00000000000E+00  0.39999999673E+01  0.40000000000E+01  0.51109989000E-03 0. -1.
     -623   -1    0    0    0    0  0.00000000000E+00  0.00000000000E+00  0.12525980253E-10  0.17130000000E+03  0.17130000000E+03 0. -1.
       11    1    1    2    0    0 -0.32341092929E-02  0.76388038777E-02  0.10276491001E+00  0.10310043036E+00  0.51109989000E-03 0. -1.
     -623    1    1    2    0    0 -0.77047707112E-02  0.40226281478E-02  0.57380934289E-03  0.17130000022E+03  0.17130000000E+03 0. -1.
      622    1    1    2    0    0  0.10938880005E-01 -0.11661432026E-01  0.38966612483E+01  0.38968993485E+01  0.40000000000E-01 0. -1.
</event>
<event>
 5   0  0.7212170E+07  0.9118800E+02  0.7818608E-02  0.1180000E+00
       11   -1    0    0    0    0  0.00000000000E+00  0.00000000000E+00  0.39999999673E+01  0.40000000000E+01  0.51109989000E-03 0.  1.
     -623   -1    0    0    0    0  0.00000000000E+00  0.00000000000E+00  0.12525980253E-10  0.17130000000E+03  0.17130000000E+03 0. -1.
       11    1    1    2    0    0  0.11773791312E-02  0.26107824256E-02  0.13624538923E+00  0.13627644594E+00  0.51109989000E-03 0.  1.
     -623    1    1    2    0    0 -0.98331818072E-04  0.61825195545E-04  0.23915904772E-03  0.17130000000E+03  0.17130000000E+03 0. -1.
      622    1    1    2    0    0 -0.10790473131E-02 -0.26726076211E-02  0.38635154184E+01  0.38637235532E+01  0.40000000000E-01 0.  1.
</event>
<event>
 5   0  0.7212170E+07  0.9118800E+02  0.7818608E-02  0.1180000E+00
       11   -1    0    0    0    0  0.00000000000E+00  0.00000000000E+00  0.39999999673E+01  0.40000000000E+01  0.51109989000E-03 0. -1.
     -623   -1    0    0    0    0  0.00000000000E+00  0.00000000000E+00  0.12525980253E-10  0.17130000000E+03  0.17130000000E+03 0. -1.
       11    1    1    2    0    0 -0.49164854234E-02 -0.76321485225E-02  0.55510568908E-01  0.56250386697E-01  0.51109989000E-03 0. -1.
     -623    1    1    2    0    0  0.43381955540E-03 -0.60859051288E-03  0.95380528820E-03  0.17130000000E+03  0.17130000000E+03 0. -1.
      622    1    1    2    0    0  0.44826658680E-02  0.82407390353E-02  0.39435355931E+01  0.39437496089E+01  0.40000000000E-01 0. -1.
</event>
<event>
 5   0  0.7212170E+07  0.9118800E+02  0.7818608E-02  0.1180000E+00
       11   -1    0    0    0    0  0.00000000000E+00  0.00000000000E+00  0.39999999673E+01  0.40000000000E+01  0.51109989000E-03 0.  1.
     -623   -1    0    0    0    0  0.00000000000E+00  0.00000000000E+00  0.12525980253E-10  0.17130000000E+03  0.17130000000E+03 0.  1.
       11    1    1    2    0    0  0.43911259159E-03 -0.30339274350E-03  0.29394093048E-03  0.79529327488E-03  0.51109989000E-03 0.  1.
     -623    1    1    2    0    0 -0.19864453391E-03  0.23507311864E-03  0.70137400602E-03  0.17130000000E+03  0.17130000000E+03 0.  1.
      622    1    1    2    0    0 -0.24046805769E-03  0.68319624864E-04  0.39990046524E+01  0.39992047050E+01  0.40000000000E-01 0.  1.
</event>
<event>
 5   0  0.7212170E+07  0.9118800E+02  0.7818608E-02  0.1180000E+00
       11   -1    0    0    0    0  0.00000000000E+00  0.00000000000E+00  0.39999999673E+01  0.40000000000E+01  0.51109989000E-03 0. -1.
     -623   -1    0    0    0    0  0.00000000000E+00  0.00000000000E+00  0.12525980253E-10  0.17130000000E+03  0.17130000000E+03 0. -1.
       11    1    1    2    0    0  0.46056853673E-02 -0.13987964396E-02  0.14868195116E-01  0.15636285309E-01  0.51109989000E-03 0.  1.
     -623    1    1    2    0    0  0.14685812148E-02  0.79542375258E-04  0.97370542096E-03  0.17130000001E+03  0.17130000000E+03 0. -1.
      622    1    1    2    0    0 -0.60742665820E-02  0.13192540644E-02  0.39841580668E+01  0.39843637056E+01  0.40000000000E-01 0. -1.
</event>
<event>
 5   0  0.7212170E+07  0.9118800E+02  0.7818608E-02  0.1180000E+00
       11   -1    0    0    0    0  0.00000000000E+00  0.00000000000E+00  0.39999999673E+01  0.40000000000E+01  0.51109989000E-03 0. -1.
     -623   -1    0    0    0    0  0.00000000000E+00  0.00000000000E+00  0.12525980253E-10  0.17130000000E+03  0.17130000000E+03 0. -1.
       11    1    1    2    0    0 -0.10496024868E-01  0.47035394132E-03  0.14947835430E+00  0.14984801433E+00  0.51109989000E-03 0. -1.
     -623    1    1    2    0    0 -0.97061987048E-02 -0.11779360579E-01  0.64771333735E-03  0.17130000068E+03  0.17130000000E+03 0. -1.
      622    1    1    2    0    0  0.20202223573E-01  0.11309006638E-01  0.38498738999E+01  0.38501513047E+01  0.40000000000E-01 0. -1.
</event>
<event>
 5   0  0.7212170E+07  0.9118800E+02  0.7818608E-02  0.1180000E+00
       11   -1    0    0    0    0  0.00000000000E+00  0.00000000000E+00  0.39999999673E+01  0.40000000000E+01  0.51109989000E-03 0.  1.
     -623   -1    0    0    0    0  0.00000000000E+00  0.00000000000E+00  0.12525980253E-10  0.17130000000E+03  0.17130000000E+03 0. -1.
       11    1    1    2    0    0 -0.23712640270E-03  0.81036598488E-02  0.14610013799E+00  0.14632579088E+00  0.51109989000E-03 0.  1.
     -623    1    1    2    0    0  0.32193869095E-02 -0.19454488377E-01  0.45222720257E-03  0.17130000114E+03  0.17130000000E+03 0. -1.
      622    1    1    2    0    0 -0.29822605068E-02  0.11350828529E-01  0.38534476023E+01  0.38536730736E+01  0.40000000000E-01 0.  1.
</event>
<event>
 5   0  0.7212170E+07  0.9118800E+02  0.7818608E-02  0.1180000E+00
       11   -1    0    0    0    0  0.00000000000E+00  0.00000000000E+00  0.39999999673E+01  0.40000000000E+01  0.51109989000E-03 0. -1.
     -623   -1    0    0    0    0  0.00000000000E+00  0.00000000000E+00  0.12525980253E-10  0.17130000000E+03  0.17130000000E+03 0.  1.
       11    1    1    2    0    0  0.19892273914E-02 -0.97035177444E-03  0.15329585457E-01  0.15496968141E-01  0.51109989000E-03 0. -1.
     -623    1    1    2    0    0  0.19028427872E-03  0.10370357505E-02  0.36873328780E-03  0.17130000000E+03  0.17130000000E+03 0.  1.
      622    1    1    2    0    0 -0.21795116702E-02 -0.66683976294E-04  0.39843016494E+01  0.39845030290E+01  0.40000000000E-01 0. -1.
</event>
<event>
 5   0  0.7212170E+07  0.9118800E+02  0.7818608E-02  0.1180000E+00
       11   -1    0    0    0    0  0.00000000000E+00  0.00000000000E+00  0.39999999673E+01  0.40000000000E+01  0.51109989000E-03 0.  1.
     -623   -1    0    0    0    0  0.00000000000E+00  0.00000000000E+00  0.12525980253E-10  0.17130000000E+03  0.17130000000E+03 0.  1.
       11    1    1    2    0    0  0.22055141311E-01  0.37333011245E-02  0.20038907562E+01  0.20040156663E+01  0.51109989000E-03 0.  1.
     -623    1    1    2    0    0 -0.22340312210E-02 -0.16297226330E-02  0.62529359884E-03  0.17130000002E+03  0.17130000000E+03 0.  1.
      622    1    1    2    0    0 -0.19821110090E-01 -0.21035784914E-02  0.19954839178E+01  0.19959843104E+01  0.40000000000E-01 0.  0.
</event>
<event>
 5   0  0.7212170E+07  0.9118800E+02  0.7818608E-02  0.1180000E+00
       11   -1    0    0    0    0  0.00000000000E+00  0.00000000000E+00  0.39999999673E+01  0.40000000000E+01  0.51109989000E-03 0. -1.
     -623   -1    0    0    0    0  0.00000000000E+00  0.00000000000E+00  0.12525980253E-10  0.17130000000E+03  0.17130000000E+03 0. -1.
       11    1    1    2    0    0  0.56000784150E-02  0.63425851967E-02  0.28892308387E+00  0.28904739903E+00  0.51109989000E-03 0. -1.
     -623    1    1    2    0    0 -0.87799481566E-02 -0.16314134967E-02  0.34445312179E-03  0.17130000023E+03  0.17130000000E+03 0. -1.
      622    1    1    2    0    0  0.31798697408E-02 -0.47111717001E-02  0.37107324300E+01  0.37109523675E+01  0.40000000000E-01 0. -1.
</event>
<event>
 5   0  0.7212170E+07  0.9118800E+02  0.7818608E-02  0.1180000E+00
       11   -1    0    0    0    0  0.00000000000E+00  0.00000000000E+00  0.39999999673E+01  0.40000000000E+01  0.51109989000E-03 0. -1.
     -623   -1    0    0    0    0  0.00000000000E+00  0.00000000000E+00  0.12525980253E-10  0.17130000000E+03  0.17130000000E+03 0.  1.
       11    1    1    2    0    0  0.16244611673E-02  0.21752409815E-03  0.14087961028E-01  0.14192183054E-01  0.51109989000E-03 0. -1.
     -623    1    1    2    0    0 -0.30049878407E-02 -0.70928395052E-04  0.30517500880E-03  0.17130000003E+03  0.17130000000E+03 0.  1.
      622    1    1    2    0    0  0.13805266730E-02 -0.14659570311E-03  0.39856068307E+01  0.39858077897E+01  0.40000000000E-01 0. -1.
</event>
<event>
 5   0  0.7212170E+07  0.9118800E+02  0.7818608E-02  0.1180000E+00
       11   -1    0    0    0    0  0.00000000000E+00  0.00000000000E+00  0.39999999673E+01  0.40000000000E+01  0.51109989000E-03 0.  1.
     -623   -1    0    0    0    0  0.00000000000E+00  0.00000000000E+00  0.12525980253E-10  0.17130000000E+03  0.17130000000E+03 0. -1.
       11    1    1    2    0    0  0.47264866325E-03 -0.11327610305E-02  0.16450394212E-01  0.16504036996E-01  0.51109989000E-03 0.  1.
     -623    1    1    2    0    0  0.32736326169E-03  0.15196930578E-02  0.25455020048E-03  0.17130000001E+03  0.17130000000E+03 0. -1.
      622    1    1    2    0    0 -0.80001192512E-03 -0.38693202807E-03  0.39832950250E+01  0.39834959578E+01  0.40000000000E-01 0.  1.
</event>
<event>
 5   0  0.7212170E+07  0.9118800E+02  0.7818608E-02  0.1180000E+00
       11   -1    0    0    0    0  0.00000000000E+00  0.00000000000E+00  0.39999999673E+01  0.40000000000E+01  0.51109989000E-03 0.  1.
     -623   -1    0    0    0    0  0.00000000000E+00  0.00000000000E+00  0.12525980253E-10  0.17130000000E+03  0.17130000000E+03 0.  1.
       11    1    1    2    0    0  0.58035335457E-02 -0.17313171652E-01  0.52939943882E+00  0.52971450231E+00  0.51109989000E-03 0.  1.
     -623    1    1    2    0    0  0.20004544776E-02 -0.11422018924E-01  0.67371536220E-03  0.17130000039E+03  0.17130000000E+03 0.  1.
      622    1    1    2    0    0 -0.78039880236E-02  0.28735190578E-01  0.34699268137E+01  0.34702851044E+01  0.40000000000E-01 0.  1.
</event>
<event>
 5   0  0.7212170E+07  0.9118800E+02  0.7818608E-02  0.1180000E+00
       11   -1    0    0    0    0  0.00000000000E+00  0.00000000000E+00  0.39999999673E+01  0.40000000000E+01  0.51109989000E-03 0. -1.
     -623   -1    0    0    0    0  0.00000000000E+00  0.00000000000E+00  0.12525980253E-10  0.17130000000E+03  0.17130000000E+03 0. -1.
       11    1    1    2    0    0  0.24330366780E-02  0.77560314012E-02  0.36935788592E+00  0.36944767533E+00  0.51109989000E-03 0. -1.
     -623    1    1    2    0    0  0.48946879830E-03 -0.59709390529E-03  0.31835262753E-03  0.17130000000E+03  0.17130000000E+03 0. -1.
      622    1    1    2    0    0 -0.29225054763E-02 -0.71589374960E-02  0.36303237288E+01  0.36305523226E+01  0.40000000000E-01 0. -1.
</event>
<event>
 5   0  0.7212170E+07  0.9118800E+02  0.7818608E-02  0.1180000E+00
       11   -1    0    0    0    0  0.00000000000E+00  0.00000000000E+00  0.39999999673E+01  0.40000000000E+01  0.51109989000E-03 0.  1.
     -623   -1    0    0    0    0  0.00000000000E+00  0.00000000000E+00  0.12525980253E-10  0.17130000000E+03  0.17130000000E+03 0. -1.
       11    1    1    2    0    0 -0.19526577473E-02 -0.23195896933E-01  0.30469555580E+01  0.30470445182E+01  0.51109989000E-03 0.  1.
     -623    1    1    2    0    0 -0.20006425526E-02 -0.27544618228E-02  0.12907507041E-02  0.17130000004E+03  0.17130000000E+03 0. -1.
      622    1    1    2    0    0  0.39533002998E-02  0.25950358756E-01  0.95175365857E+00  0.95295544298E+00  0.40000000000E-01 0.  0.
</event>
<event>
 5   0  0.7212170E+07  0.9118800E+02  0.7818608E-02  0.1180000E+00
       11   -1    0    0    0    0  0.00000000000E+00  0.00000000000E+00  0.39999999673E+01  0.40000000000E+01  0.51109989000E-03 0.  1.
     -623   -1    0    0    0    0  0.00000000000E+00  0.00000000000E+00  0.12525980253E-10  0.17130000000E+03  0.17130000000E+03 0.  1.
       11    1    1    2    0    0 -0.10629573620E-02  0.88742244178E-02  0.21419546362E-01  0.23215079729E-01  0.51109989000E-03 0.  1.
     -623    1    1    2    0    0 -0.15076421055E-01  0.99522428126E-02  0.20749563315E-02  0.17130000097E+03  0.17130000000E+03 0.  1.
      622    1    1    2    0    0  0.16139378418E-01 -0.18826467231E-01  0.39765054649E+01  0.39767839554E+01  0.40000000000E-01 0.  1.
</event>
<event>
 5   0  0.7212170E+07  0.9118800E+02  0.7818608E-02  0.1180000E+00
       11   -1    0    0    0    0  0.00000000000E+00  0.00000000000E+00  0.39999999673E+01  0.40000000000E+01  0.51109989000E-03 0.  1.
     -623   -1    0    0    0    0  0.00000000000E+00  0.00000000000E+00  0.12525980253E-10  0.17130000000E+03  0.17130000000E+03 0.  1.
       11    1    1    2    0    0 -0.24273691783E-02 -0.81298993053E-03  0.69149109143E-02  0.73912306016E-02  0.51109989000E-03 0.  1.
     -623    1    1    2    0    0 -0.15043140243E-03 -0.25273823571E-03  0.67763836728E-03  0.17130000000E+03  0.17130000000E+03 0.  1.
      622    1    1    2    0    0  0.25778005808E-02  0.10657281663E-02  0.39924074185E+01  0.39926087682E+01  0.40000000000E-01 0.  1.
</event>
<event>
 5   0  0.7212170E+07  0.9118800E+02  0.7818608E-02  0.1180000E+00
       11   -1    0    0    0    0  0.00000000000E+00  0.00000000000E+00  0.39999999673E+01  0.40000000000E+01  0.51109989000E-03 0. -1.
     -623   -1    0    0    0    0  0.00000000000E+00  0.00000000000E+00  0.12525980253E-10  0.17130000000E+03  0.17130000000E+03 0.  1.
       11    1    1    2    0    0 -0.10137223532E-01  0.60349418466E-02  0.60531928248E-01  0.61673003694E-01  0.51109989000E-03 0. -1.
     -623    1    1    2    0    0  0.19726260057E-01  0.11264536989E-01  0.13953633126E-02  0.17130000151E+03  0.17130000000E+03 0.  1.
      622    1    1    2    0    0 -0.95890365241E-02 -0.17299478836E-01  0.39380726757E+01  0.39383254844E+01  0.40000000000E-01 0. -1.
</event>
<event>
 5   0  0.7212170E+07  0.9118800E+02  0.7818608E-02  0.1180000E+00
       11   -1    0    0    0    0  0.00000000000E+00  0.00000000000E+00  0.39999999673E+01  0.40000000000E+01  0.51109989000E-03 0.  1.
     -623   -1    0    0    0    0  0.00000000000E+00  0.00000000000E+00  0.12525980253E-10  0.17130000000E+03  0.17130000000E+03 0. -1.
       11    1    1    2    0    0  0.11406549667E-01  0.10412121908E-02  0.70217151330E-01  0.71147052378E-01  0.51109989000E-03 0.  1.
     -623    1    1    2    0    0  0.10831791626E-01 -0.20273073161E-01  0.12450571715E-02  0.17130000155E+03  0.17130000000E+03 0. -1.
      622    1    1    2    0    0 -0.22238341293E-01  0.19231860970E-01  0.39285377588E+01  0.39288514009E+01  0.40000000000E-01 0.  1.
</event>
<event>
 5   0  0.7212170E+07  0.9118800E+02  0.7818608E-02  0.1180000E+00
       11   -1    0    0    0    0  0.00000000000E+00  0.00000000000E+00  0.39999999673E+01  0.40000000000E+01  0.51109989000E-03 0. -1.
     -623   -1    0    0    0    0  0.00000000000E+00  0.00000000000E+00  0.12525980253E-10  0.17130000000E+03  0.17130000000E+03 0. -1.
       11    1    1    2    0    0 -0.17770139648E-02  0.10136563623E-02  0.20686822472E+00  0.20687897162E+00  0.51109989000E-03 0. -1.
     -623    1    1    2    0    0 -0.13630208802E-03 -0.18847417031E-02  0.22222141644E-03  0.17130000001E+03  0.17130000000E+03 0. -1.
      622    1    1    2    0    0  0.19133160529E-02  0.87108534187E-03  0.37929095235E+01  0.37931210201E+01  0.40000000000E-01 0. -1.
</event>
<event>
 5   0  0.7212170E+07  0.9118800E+02  0.7818608E-02  0.1180000E+00
       11   -1    0    0    0    0  0.00000000000E+00  0.00000000000E+00  0.39999999673E+01  0.40000000000E+01  0.51109989000E-03 0.  1.
     -623   -1    0    0    0    0  0.00000000000E+00  0.00000000000E+00  0.12525980253E-10  0.17130000000E+03  0.17130000000E+03 0.  1.
       11    1    1    2    0    0  0.11052743530E-02  0.37218788782E-02  0.61994930332E-01  0.62118488582E-01  0.51109989000E-03 0.  1.
     -623    1    1    2    0    0 -0.65841047933E-03 -0.42242879680E-03  0.32809556027E-03  0.17130000000E+03  0.17130000000E+03 0.  1.
      622    1    1    2    0    0 -0.44686387356E-03 -0.32994500813E-02  0.39376769421E+01  0.39378815100E+01  0.40000000000E-01 0.  1.
</event>
<event>
 5   0  0.7212170E+07  0.9118800E+02  0.7818608E-02  0.1180000E+00
       11   -1    0    0    0    0  0.00000000000E+00  0.00000000000E+00  0.39999999673E+01  0.40000000000E+01  0.51109989000E-03 0.  1.
     -623   -1    0    0    0    0  0.00000000000E+00  0.00000000000E+00  0.12525980253E-10  0.17130000000E+03  0.17130000000E+03 0. -1.
       11    1    1    2    0    0 -0.28936483884E-02  0.10318111406E-02  0.10827887393E+00  0.10832365207E+00  0.51109989000E-03 0.  1.
     -623    1    1    2    0    0  0.25856214092E-02 -0.87091264538E-03  0.25035529905E-03  0.17130000002E+03  0.17130000000E+03 0. -1.
      622    1    1    2    0    0  0.30802697802E-03 -0.16089849487E-03  0.38914707399E+01  0.38916763278E+01  0.40000000000E-01 0.  1.
</event>
<event>
 5   0  0.7212170E+07  0.9118800E+02  0.7818608E-02  0.1180000E+00
       11   -1    0    0    0    0  0.00000000000E+00  0.00000000000E+00  0.39999999673E+01  0.40000000000E+01  0.51109989000E-03 0.  1.
     -623   -1    0    0    0    0  0.00000000000E+00  0.00000000000E+00  0.12525980253E-10  0.17130000000E+03  0.17130000000E+03 0. -1.
       11    1    1    2    0    0 -0.91064302795E-02  0.83112333862E-02  0.12934555042E+01  0.12935143626E+01  0.51109989000E-03 0.  1.
     -623    1    1    2    0    0  0.80182340683E-02 -0.87882629367E-02  0.35510250973E-03  0.17130000041E+03  0.17130000000E+03 0. -1.
      622    1    1    2    0    0  0.10881962101E-02  0.47702955166E-03  0.27061893612E+01  0.27064852245E+01  0.40000000000E-01 0.  1.
</event>
<event>
 5   0  0.7212170E+07  0.9118800E+02  0.7818608E-02  0.1180000E+00
       11   -1    0    0    0    0  0.00000000000E+00  0.00000000000E+00  0.39999999673E+01  0.40000000000E+01  0.51109989000E-03 0.  1.
     -623   -1    0    0    0    0  0.00000000000E+00  0.00000000000E+00  0.12525980253E-10  0.17130000000E+03  0.17130000000E+03 0.  1.
       11    1    1    2    0    0  0.50819735719E-02  0.17565084614E-01  0.15297977361E+00  0.15406956549E+00  0.51109989000E-03 0.  1.
     -623    1    1    2    0    0 -0.66192586395E-02 -0.90952075874E-02  0.13077856651E-02  0.17130000037E+03  0.17130000000E+03 0.  1.
      622    1    1    2    0    0  0.15372850677E-02 -0.84698770268E-02  0.38457124082E+01  0.38459300603E+01  0.40000000000E-01 0.  0.
</event>
<event>
 5   0  0.7212170E+07  0.9118800E+02  0.7818608E-02  0.1180000E+00
       11   -1    0    0    0    0  0.00000000000E+00  0.00000000000E+00  0.39999999673E+01  0.40000000000E+01  0.51109989000E-03 0.  1.
     -623   -1    0    0    0    0  0.00000000000E+00  0.00000000000E+00  0.12525980253E-10  0.17130000000E+03  0.17130000000E+03 0. -1.
       11    1    1    2    0    0  0.21560523609E-02  0.93024607428E-02  0.16040336978E-01  0.18674527334E-01  0.51109989000E-03 0.  1.
     -623    1    1    2    0    0 -0.76715576863E-02 -0.82465056824E-02  0.28394553966E-02  0.17130000039E+03  0.17130000000E+03 0. -1.
      622    1    1    2    0    0  0.55155053255E-02 -0.10559550602E-02  0.39811201750E+01  0.39813250789E+01  0.40000000000E-01 0.  1.
</event>
<event>
 5   0  0.7212170E+07  0.9118800E+02  0.7818608E-02  0.1180000E+00
       11   -1    0    0    0    0  0.00000000000E+00  0.00000000000E+00  0.39999999673E+01  0.40000000000E+01  0.51109989000E-03 0.  1.
     -623   -1    0    0    0    0  0.00000000000E+00  0.00000000000E+00  0.12525980253E-10  0.17130000000E+03  0.17130000000E+03 0.  1.
       11    1    1    2    0    0 -0.20707781238E-01  0.61834232671E-02  0.37250499979E+00  0.37313172341E+00  0.51109989000E-03 0.  1.
     -623    1    1    2    0    0  0.13997870213E-01 -0.64122549051E-02  0.85418223463E-03  0.17130000069E+03  0.17130000000E+03 0.  1.
      622    1    1    2    0    0  0.67099110235E-02  0.22883163874E-03  0.36266407858E+01  0.36268675830E+01  0.40000000000E-01 0.  1.
</event>
<event>
 5   0  0.7212170E+07  0.9118800E+02  0.7818608E-02  0.1180000E+00
       11   -1    0    0    0    0  0.00000000000E+00  0.00000000000E+00  0.39999999673E+01  0.40000000000E+01  0.51109989000E-03 0.  1.
     -623   -1    0    0    0    0  0.00000000000E+00  0.00000000000E+00  0.12525980253E-10  0.17130000000E+03  0.17130000000E+03 0.  1.
       11    1    1    2    0    0 -0.17532203472E-02 -0.45575567646E-03 -0.97093105566E-03  0.21178822052E-02  0.51109989000E-03 0.  1.
     -623    1    1    2    0    0 -0.94081785827E-02  0.31182150760E-02  0.33056779985E-02  0.17130000032E+03  0.17130000000E+03 0.  1.
      622    1    1    2    0    0  0.11161398930E-01 -0.26624593995E-02  0.39976652204E+01  0.39978817992E+01  0.40000000000E-01 0.  1.
</event>
<event>
 5   0  0.7212170E+07  0.9118800E+02  0.7818608E-02  0.1180000E+00
       11   -1    0    0    0    0  0.00000000000E+00  0.00000000000E+00  0.39999999673E+01  0.40000000000E+01  0.51109989000E-03 0. -1.
     -623   -1    0    0    0    0  0.00000000000E+00  0.00000000000E+00  0.12525980253E-10  0.17130000000E+03  0.17130000000E+03 0. -1.
       11    1    1    2    0    0 -0.27375394242E-02  0.70749677040E-03  0.15216952037E+00  0.15219664525E+00  0.51109989000E-03 0. -1.
     -623    1    1    2    0    0  0.38279354715E-03 -0.46998977387E-02  0.23786565168E-03  0.17130000007E+03  0.17130000000E+03 0. -1.
      622    1    1    2    0    0  0.23547458769E-02  0.39924009694E-02  0.38475925823E+01  0.38478032907E+01  0.40000000000E-01 0. -1.
</event>
<event>
 5   0  0.7212170E+07  0.9118800E+02  0.7818608E-02  0.1180000E+00
       11   -1    0    0    0    0  0.00000000000E+00  0.00000000000E+00  0.39999999673E+01  0.40000000000E+01  0.51109989000E-03 0.  1.
     -623   -1    0    0    0    0  0.00000000000E+00  0.00000000000E+00  0.12525980253E-10  0.17130000000E+03  0.17130000000E+03 0.  1.
       11    1    1    2    0    0 -0.11548734887E-01 -0.29945738096E-02  0.24685166138E+00  0.24714033402E+00  0.51109989000E-03 0.  1.
     -623    1    1    2    0    0  0.16037330575E-01 -0.21514791948E-02  0.50879472434E-03  0.17130000076E+03  0.17130000000E+03 0.  1.
      622    1    1    2    0    0 -0.44885956872E-02  0.51460530043E-02  0.37526395110E+01  0.37528589007E+01  0.40000000000E-01 0.  1.
</event>
<event>
 5   0  0.7212170E+07  0.9118800E+02  0.7818608E-02  0.1180000E+00
       11   -1    0    0    0    0  0.00000000000E+00  0.00000000000E+00  0.39999999673E+01  0.40000000000E+01  0.51109989000E-03 0. -1.
     -623   -1    0    0    0    0  0.00000000000E+00  0.00000000000E+00  0.12525980253E-10  0.17130000000E+03  0.17130000000E+03 0.  1.
       11    1    1    2    0    0  0.19453037799E-03  0.12359602016E-02  0.26170354622E-01  0.26205230849E-01  0.51109989000E-03 0. -1.
     -623    1    1    2    0    0  0.22503411913E-02 -0.57889844439E-04  0.23710931829E-03  0.17130000001E+03  0.17130000000E+03 0.  1.
      622    1    1    2    0    0 -0.24448715696E-02 -0.11780703571E-02  0.39735925041E+01  0.39737947549E+01  0.40000000000E-01 0. -1.
</event>
<event>
 5   0  0.7212170E+07  0.9118800E+02  0.7818608E-02  0.1180000E+00
       11   -1    0    0    0    0  0.00000000000E+00  0.00000000000E+00  0.39999999673E+01  0.40000000000E+01  0.51109989000E-03 0. -1.
     -623   -1    0    0    0    0  0.00000000000E+00  0.00000000000E+00  0.12525980253E-10  0.17130000000E+03  0.17130000000E+03 0.  1.
       11    1    1    2    0    0  0.24514022674E-01 -0.10062295636E-01  0.83240828092E+00  0.83283011140E+00  0.51109989000E-03 0. -1.
     -623    1    1    2    0    0 -0.19021055000E-02 -0.61523603064E-02  0.79675925108E-03  0.17130000012E+03  0.17130000000E+03 0.  1.
      622    1    1    2    0    0 -0.22611917174E-01  0.16214655944E-01  0.31667949279E+01  0.31671697664E+01  0.40000000000E-01 0. -1.
</event>
<event>
 5   0  0.7212170E+07  0.9118800E+02  0.7818608E-02  0.1180000E+00
       11   -1    0    0    0    0  0.00000000000E+00  0.00000000000E+00  0.39999999673E+01  0.40000000000E+01  0.51109989000E-03 0.  1.
     -623   -1    0    0    0    0  0.00000000000E+00  0.00000000000E+00  0.12525980253E-10  0.17130000000E+03  0.17130000000E+03 0.  1.
       11    1    1    2    0    0  0.89846262414E-02 -0.30905978581E-02  0.20640521486E+00  0.20662441590E+00  0.51109989000E-03 0.  1.
     -623    1    1    2    0    0 -0.22249488922E-03 -0.20109774701E-03  0.44161750954E-03  0.17130000000E+03  0.17130000000E+03 0.  1.
      622    1    1    2    0    0 -0.87621313522E-02  0.32916956051E-02  0.37931531348E+01  0.37933755831E+01  0.40000000000E-01 0.  1.
</event>
<event>
 5   0  0.7212170E+07  0.9118800E+02  0.7818608E-02  0.1180000E+00
       11   -1    0    0    0    0  0.00000000000E+00  0.00000000000E+00  0.39999999673E+01  0.40000000000E+01  0.51109989000E-03 0. -1.
     -623   -1    0    0    0    0  0.00000000000E+00  0.00000000000E+00  0.12525980253E-10  0.17130000000E+03  0.17130000000E+03 0. -1.
       11    1    1    2    0    0  0.43967694335E-03  0.18315603711E-01  0.25156449425E+00  0.25223126421E+00  0.51109989000E-03 0. -1.
     -623    1    1    2    0    0 -0.24373551851E-02  0.64109123304E-02  0.96245036413E-03  0.17130000014E+03  0.17130000000E+03 0. -1.
      622    1    1    2    0    0  0.19976782417E-02 -0.24726516041E-01  0.37474730226E+01  0.37477685957E+01  0.40000000000E-01 0. -1.
</event>
<event>
 5   0  0.7212170E+07  0.9118800E+02  0.7818608E-02  0.1180000E+00
       11   -1    0    0    0    0  0.00000000000E+00  0.00000000000E+00  0.39999999673E+01  0.40000000000E+01  0.51109989000E-03 0. -1.
     -623   -1    0    0    0    0  0.00000000000E+00  0.00000000000E+00  0.12525980253E-10  0.17130000000E+03  0.17130000000E+03 0.  1.
       11    1    1    2    0    0 -0.12639950681E-02  0.71689874208E-03  0.32349461551E+00  0.32349828301E+00  0.51109989000E-03 0. -1.
     -623    1    1    2    0    0  0.34113159968E-03  0.42232983549E-03  0.22153281652E-03  0.17130000000E+03  0.17130000000E+03 0.  1.
      622    1    1    2    0    0  0.92286346852E-03 -0.11392285774E-02  0.36762838179E+01  0.36765017148E+01  0.40000000000E-01 0. -1.
</event>
<event>
 5   0  0.7212170E+07  0.9118800E+02  0.7818608E-02  0.1180000E+00
       11   -1    0    0    0    0  0.00000000000E+00  0.00000000000E+00  0.39999999673E+01  0.40000000000E+01  0.51109989000E-03 0.  1.
     -623   -1    0    0    0    0  0.00000000000E+00  0.00000000000E+00  0.12525980253E-10  0.17130000000E+03  0.17130000000E+03 0.  1.
       11    1    1    2    0    0  0.24644178839E-01  0.33128131034E-01  0.51015205478E+00  0.51182046544E+00  0.51109989000E-03 0.  1.
     -623    1    1    2    0    0  0.71781228759E-03 -0.17763683063E-02  0.21308749540E-02  0.17130000002E+03  0.17130000000E+03 0.  1.
      622    1    1    2    0    0 -0.25361991126E-01 -0.31351762728E-01  0.34877170377E+01  0.34881795106E+01  0.40000000000E-01 0.  1.
</event>
<event>
 5   0  0.7212170E+07  0.9118800E+02  0.7818608E-02  0.1180000E+00
       11   -1    0    0    0    0  0.00000000000E+00  0.00000000000E+00  0.39999999673E+01  0.40000000000E+01  0.51109989000E-03 0.  1.
     -623   -1    0    0    0    0  0.00000000000E+00  0.00000000000E+00  0.12525980253E-10  0.17130000000E+03  0.17130000000E+03 0. -1.
       11    1    1    2    0    0 -0.21565981583E-01  0.21356384464E-01  0.14313794009E+01  0.14317012388E+01  0.51109989000E-03 0.  1.
     -623    1    1    2    0    0  0.10070924693E-01 -0.27673004106E-01  0.66934384896E-03  0.17130000253E+03  0.17130000000E+03 0. -1.
      622    1    1    2    0    0  0.11495056890E-01  0.63166196414E-02  0.25679512225E+01  0.25682962285E+01  0.40000000000E-01 0.  1.
</event>
<event>
 5   0  0.7212170E+07  0.9118800E+02  0.7818608E-02  0.1180000E+00
       11   -1    0    0    0    0  0.00000000000E+00  0.00000000000E+00  0.39999999673E+01  0.40000000000E+01  0.51109989000E-03 0.  1.
     -623   -1    0    0    0    0  0.00000000000E+00  0.00000000000E+00  0.12525980253E-10  0.17130000000E+03  0.17130000000E+03 0.  1.
       11    1    1    2    0    0  0.30434727976E-03 -0.10628085571E-01  0.14841552542E+00  0.14879676824E+00  0.51109989000E-03 0.  1.
     -623    1    1    2    0    0 -0.23471293584E-02 -0.21731347251E-02  0.61079236790E-03  0.17130000003E+03  0.17130000000E+03 0.  1.
      622    1    1    2    0    0  0.20427820790E-02  0.12801220296E-01  0.38509736502E+01  0.38512032015E+01  0.40000000000E-01 0.  1.
</event>
<event>
 5   0  0.7212170E+07  0.9118800E+02  0.7818608E-02  0.1180000E+00
       11   -1    0    0    0    0  0.00000000000E+00  0.00000000000E+00  0.39999999673E+01  0.40000000000E+01  0.51109989000E-03 0.  1.
     -623   -1    0    0    0    0  0.00000000000E+00  0.00000000000E+00  0.12525980253E-10  0.17130000000E+03  0.17130000000E+03 0. -1.
       11    1    1    2    0    0 -0.20139844435E-02 -0.48864264408E-02  0.29820284140E-01  0.30289335846E-01  0.51109989000E-03 0.  1.
     -623    1    1    2    0    0  0.26194003946E-02  0.19390583638E-02  0.67172290546E-03  0.17130000003E+03  0.17130000000E+03 0. -1.
      622    1    1    2    0    0 -0.60541595137E-03  0.29473680769E-02  0.39695079607E+01  0.39697106322E+01  0.40000000000E-01 0.  1.
</event>
<event>
 5   0  0.7212170E+07  0.9118800E+02  0.7818608E-02  0.1180000E+00
       11   -1    0    0    0    0  0.00000000000E+00  0.00000000000E+00  0.39999999673E+01  0.40000000000E+01  0.51109989000E-03 0.  1.
     -623   -1    0    0    0    0  0.00000000000E+00  0.00000000000E+00  0.12525980253E-10  0.17130000000E+03  0.17130000000E+03 0.  1.
       11    1    1    2    0    0 -0.40829965017E-02 -0.54683649742E-02  0.16635583226E-01  0.17988266406E-01  0.51109989000E-03 0.  1.
     -623    1    1    2    0    0  0.20093439683E-02  0.11814363859E-02  0.15564296894E-02  0.17130000002E+03  0.17130000000E+03 0.  1.
      622    1    1    2    0    0  0.20736525332E-02  0.42869285882E-02  0.39818079547E+01  0.39820117110E+01  0.40000000000E-01 0.  1.
</event>
<event>
 5   0  0.7212170E+07  0.9118800E+02  0.7818608E-02  0.1180000E+00
       11   -1    0    0    0    0  0.00000000000E+00  0.00000000000E+00  0.39999999673E+01  0.40000000000E+01  0.51109989000E-03 0. -1.
     -623   -1    0    0    0    0  0.00000000000E+00  0.00000000000E+00  0.12525980253E-10  0.17130000000E+03  0.17130000000E+03 0. -1.
       11    1    1    2    0    0 -0.28614529319E-02  0.23307521969E-02  0.23681543147E+00  0.23684473843E+00  0.51109989000E-03 0. -1.
     -623    1    1    2    0    0  0.21760677830E-02  0.11187977702E-03  0.24273713069E-03  0.17130000001E+03  0.17130000000E+03 0. -1.
      622    1    1    2    0    0  0.68538514910E-03 -0.24426319739E-02  0.37629417983E+01  0.37631552471E+01  0.40000000000E-01 0. -1.
</event>
<event>
 5   0  0.7212170E+07  0.9118800E+02  0.7818608E-02  0.1180000E+00
       11   -1    0    0    0    0  0.00000000000E+00  0.00000000000E+00  0.39999999673E+01  0.40000000000E+01  0.51109989000E-03 0.  1.
     -623   -1    0    0    0    0  0.00000000000E+00  0.00000000000E+00  0.12525980253E-10  0.17130000000E+03  0.17130000000E+03 0.  1.
       11    1    1    2    0    0 -0.47247181004E-03  0.30104261863E-02  0.13521529926E-02  0.33727490638E-02  0.51109989000E-03 0.  1.
     -623    1    1    2    0    0  0.12442460577E-02  0.60907987838E-02  0.22313023932E-02  0.17130000013E+03  0.17130000000E+03 0.  1.
      622    1    1    2    0    0 -0.77177424767E-03 -0.91012249700E-02  0.39964165119E+01  0.39966271236E+01  0.40000000000E-01 0.  1.
</event>
<event>
 5   0  0.7212170E+07  0.9118800E+02  0.7818608E-02  0.1180000E+00
       11   -1    0    0    0    0  0.00000000000E+00  0.00000000000E+00  0.39999999673E+01  0.40000000000E+01  0.51109989000E-03 0.  1.
     -623   -1    0    0    0    0  0.00000000000E+00  0.00000000000E+00  0.12525980253E-10  0.17130000000E+03  0.17130000000E+03 0. -1.
       11    1    1    2    0    0  0.23499250836E-01 -0.40001546371E-02  0.49838936804E+00  0.49895935649E+00  0.51109989000E-03 0.  1.
     -623    1    1    2    0    0  0.47988969220E-02  0.18121751333E-01  0.94235136596E-03  0.17130000103E+03  0.17130000000E+03 0. -1.
      622    1    1    2    0    0 -0.28298147759E-01 -0.14121596698E-01  0.35006682485E+01  0.35010396157E+01  0.40000000000E-01 0.  1.
</event>
<event>
 5   0  0.7212170E+07  0.9118800E+02  0.7818608E-02  0.1180000E+00
       11   -1    0    0    0    0  0.00000000000E+00  0.00000000000E+00  0.39999999673E+01  0.40000000000E+01  0.51109989000E-03 0.  1.
     -623   -1    0    0    0    0  0.00000000000E+00  0.00000000000E+00  0.12525980253E-10  0.17130000000E+03  0.17130000000E+03 0. -1.
       11    1    1    2    0    0 -0.12008432489E-02  0.29833855915E-02  0.31569086127E-01  0.31736588287E-01  0.51109989000E-03 0.  1.
     -623    1    1    2    0    0 -0.97358311878E-03  0.19774902103E-03  0.37094835091E-03  0.17130000000E+03  0.17130000000E+03 0. -1.
      622    1    1    2    0    0  0.21744263679E-02 -0.31811346126E-02  0.39680599335E+01  0.39682634090E+01  0.40000000000E-01 0.  1.
</event>
<event>
 5   0  0.7212170E+07  0.9118800E+02  0.7818608E-02  0.1180000E+00
       11   -1    0    0    0    0  0.00000000000E+00  0.00000000000E+00  0.39999999673E+01  0.40000000000E+01  0.51109989000E-03 0. -1.
     -623   -1    0    0    0    0  0.00000000000E+00  0.00000000000E+00  0.12525980253E-10  0.17130000000E+03  0.17130000000E+03 0. -1.
       11    1    1    2    0    0 -0.70143569624E-04  0.67609561200E-03  0.60179313814E-02  0.60777254467E-02  0.51109989000E-03 0.  1.
     -623    1    1    2    0    0  0.18894090115E-03  0.66678607697E-03  0.26029993455E-03  0.17130000000E+03  0.17130000000E+03 0. -1.
      622    1    1    2    0    0 -0.11879733149E-03 -0.13428816888E-02  0.39937217351E+01  0.39939222720E+01  0.40000000000E-01 0. -1.
</event>
<event>
 5   0  0.7212170E+07  0.9118800E+02  0.7818608E-02  0.1180000E+00
       11   -1    0    0    0    0  0.00000000000E+00  0.00000000000E+00  0.39999999673E+01  0.40000000000E+01  0.51109989000E-03 0.  1.
     -623   -1    0    0    0    0  0.00000000000E+00  0.00000000000E+00  0.12525980253E-10  0.17130000000E+03  0.17130000000E+03 0.  1.
       11    1    1    2    0    0 -0.39192534251E-01 -0.28394488557E-01  0.11836550350E+01  0.11846441680E+01  0.51109989000E-03 0.  1.
     -623    1    1    2    0    0  0.72342109437E-02  0.57540091516E-03  0.15923113710E-02  0.17130000016E+03  0.17130000000E+03 0.  1.
      622    1    1    2    0    0  0.31958323307E-01  0.27819087642E-01  0.28147526211E+01  0.28153556709E+01  0.40000000000E-01 0.  1.
</event>
<event>
 5   0  0.7212170E+07  0.9118800E+02  0.7818608E-02  0.1180000E+00
       11   -1    0    0    0    0  0.00000000000E+00  0.00000000000E+00  0.39999999673E+01  0.40000000000E+01  0.51109989000E-03 0. -1.
     -623   -1    0    0    0    0  0.00000000000E+00  0.00000000000E+00  0.12525980253E-10  0.17130000000E+03  0.17130000000E+03 0. -1.
       11    1    1    2    0    0 -0.10364736401E-01  0.38092808609E-01  0.65847011834E+00  0.65965267209E+00  0.51109989000E-03 0. -1.
     -623    1    1    2    0    0  0.49523042891E-02 -0.65883262657E-02  0.15751979523E-02  0.17130000021E+03  0.17130000000E+03 0. -1.
      622    1    1    2    0    0  0.54124321124E-02 -0.31504482343E-01  0.33399546510E+01  0.33403471224E+01  0.40000000000E-01 0. -1.
</event>
<event>
 5   0  0.7212170E+07  0.9118800E+02  0.7818608E-02  0.1180000E+00
       11   -1    0    0    0    0  0.00000000000E+00  0.00000000000E+00  0.39999999673E+01  0.40000000000E+01  0.51109989000E-03 0. -1.
     -623   -1    0    0    0    0  0.00000000000E+00  0.00000000000E+00  0.12525980253E-10  0.17130000000E+03  0.17130000000E+03 0.  1.
       11    1    1    2    0    0  0.50108165167E-03 -0.10247856571E-02  0.44456774320E-02  0.46180666292E-02  0.51109989000E-03 0. -1.
     -623    1    1    2    0    0 -0.46588782475E-03  0.64877073067E-03  0.37261286205E-03  0.17130000000E+03  0.17130000000E+03 0.  1.
      622    1    1    2    0    0 -0.35193826884E-04  0.37601492639E-03  0.39951816774E+01  0.39953819314E+01  0.40000000000E-01 0. -1.
</event>
<event>
 5   0  0.7212170E+07  0.9118800E+02  0.7818608E-02  0.1180000E+00
       11   -1    0    0    0    0  0.00000000000E+00  0.00000000000E+00  0.39999999673E+01  0.40000000000E+01  0.51109989000E-03 0. -1.
     -623   -1    0    0    0    0  0.00000000000E+00  0.00000000000E+00  0.12525980253E-10  0.17130000000E+03  0.17130000000E+03 0.  1.
       11    1    1    2    0    0 -0.14651895022E-01  0.47800168854E-01  0.29602665110E+00  0.30021920917E+00  0.51109989000E-03 0. -1.
     -623    1    1    2    0    0  0.12109655937E-01 -0.74754195738E-02  0.46300617624E-02  0.17130000065E+03  0.17130000000E+03 0.  1.
      622    1    1    2    0    0  0.25422390855E-02 -0.40324749280E-01  0.36993432545E+01  0.36997801371E+01  0.40000000000E-01 0. -1.
</event>
<event>
 5   0  0.7212170E+07  0.9118800E+02  0.7818608E-02  0.1180000E+00
       11   -1    0    0    0    0  0.00000000000E+00  0.00000000000E+00  0.39999999673E+01  0.40000000000E+01  0.51109989000E-03 0. -1.
     -623   -1    0    0    0    0  0.00000000000E+00  0.00000000000E+00  0.12525980253E-10  0.17130000000E+03  0.17130000000E+03 0.  1.
       11    1    1    2    0    0 -0.25540751544E-02  0.41416197706E-02  0.92011888002E-02  0.10421104196E-01  0.51109989000E-03 0. -1.
     -623    1    1    2    0    0 -0.18503959442E-02 -0.17508400542E-02  0.14235828281E-02  0.17130000002E+03  0.17130000000E+03 0.  1.
      622    1    1    2    0    0  0.44044710986E-02 -0.23907797164E-02  0.39893751958E+01  0.39895788710E+01  0.40000000000E-01 0. -1.
</event>
<event>
 5   0  0.7212170E+07  0.9118800E+02  0.7818608E-02  0.1180000E+00
       11   -1    0    0    0    0  0.00000000000E+00  0.00000000000E+00  0.39999999673E+01  0.40000000000E+01  0.51109989000E-03 0.  1.
     -623   -1    0    0    0    0  0.00000000000E+00  0.00000000000E+00  0.12525980253E-10  0.17130000000E+03  0.17130000000E+03 0. -1.
       11    1    1    2    0    0 -0.11959234217E-02  0.16887709438E-02  0.87705704947E-02  0.90258689350E-02  0.51109989000E-03 0.  1.
     -623    1    1    2    0    0 -0.64675876000E-03 -0.16607845300E-01  0.48484236879E-03  0.17130000081E+03  0.17130000000E+03 0. -1.
      622    1    1    2    0    0  0.18426821818E-02  0.14919074360E-01  0.39907445553E+01  0.39909733248E+01  0.40000000000E-01 0.  1.
</event>
<event>
 5   0  0.7212170E+07  0.9118800E+02  0.7818608E-02  0.1180000E+00
       11   -1    0    0    0    0  0.00000000000E+00  0.00000000000E+00  0.39999999673E+01  0.40000000000E+01  0.51109989000E-03 0. -1.
     -623   -1    0    0    0    0  0.00000000000E+00  0.00000000000E+00  0.12525980253E-10  0.17130000000E+03  0.17130000000E+03 0. -1.
       11    1    1    2    0    0 -0.23085779036E-02 -0.49396821089E-03  0.51477392834E-02  0.56862975087E-02  0.51109989000E-03 0. -1.
     -623    1    1    2    0    0  0.25404372096E-02  0.23831650978E-02  0.73930585939E-03  0.17130000004E+03  0.17130000000E+03 0. -1.
      622    1    1    2    0    0 -0.23185930616E-03 -0.18891968871E-02  0.39941129225E+01  0.39943136657E+01  0.40000000000E-01 0. -1.
</event>
<event>
 5   0  0.7212170E+07  0.9118800E+02  0.7818608E-02  0.1180000E+00
       11   -1    0    0    0    0  0.00000000000E+00  0.00000000000E+00  0.39999999673E+01  0.40000000000E+01  0.51109989000E-03 0. -1.
     -623   -1    0    0    0    0  0.00000000000E+00  0.00000000000E+00  0.12525980253E-10  0.17130000000E+03  0.17130000000E+03 0. -1.
       11    1    1    2    0    0 -0.84804644373E-03  0.10437706669E-01  0.34095663716E+00  0.34111780158E+00  0.51109989000E-03 0. -1.
     -623    1    1    2    0    0 -0.96100933583E-02 -0.14715289220E-01  0.39813417848E-03  0.17130000090E+03  0.17130000000E+03 0. -1.
      622    1    1    2    0    0  0.10458139805E-01  0.42775825563E-02  0.36586451974E+01  0.36588812977E+01  0.40000000000E-01 0. -1.
</event>
<event>
 5   0  0.7212170E+07  0.9118800E+02  0.7818608E-02  0.1180000E+00
       11   -1    0    0    0    0  0.00000000000E+00  0.00000000000E+00  0.39999999673E+01  0.40000000000E+01  0.51109989000E-03 0.  1.
     -623   -1    0    0    0    0  0.00000000000E+00  0.00000000000E+00  0.12525980253E-10  0.17130000000E+03  0.17130000000E+03 0.  1.
       11    1    1    2    0    0  0.26560466960E-02 -0.10161127992E-01  0.34113593278E+00  0.34129794750E+00  0.51109989000E-03 0.  1.
     -623    1    1    2    0    0 -0.52520072006E-02 -0.17967918451E-01  0.49072982012E-03  0.17130000102E+03  0.17130000000E+03 0.  1.
      622    1    1    2    0    0  0.25959605051E-02  0.28129046446E-01  0.36583733052E+01  0.36587010294E+01  0.40000000000E-01 0.  1.
</event>
<event>
 5   0  0.7212170E+07  0.9118800E+02  0.7818608E-02  0.1180000E+00
       11   -1    0    0    0    0  0.00000000000E+00  0.00000000000E+00  0.39999999673E+01  0.40000000000E+01  0.51109989000E-03 0. -1.
     -623   -1    0    0    0    0  0.00000000000E+00  0.00000000000E+00  0.12525980253E-10  0.17130000000E+03  0.17130000000E+03 0. -1.
       11    1    1    2    0    0 -0.23938445953E-02 -0.32515655426E-02  0.21108117861E-01  0.21496907525E-01  0.51109989000E-03 0. -1.
     -623    1    1    2    0    0  0.31693596137E-02  0.41773514885E-02  0.59010734126E-03  0.17130000008E+03  0.17130000000E+03 0. -1.
      622    1    1    2    0    0 -0.77551501778E-03 -0.92578594513E-03  0.39783017415E+01  0.39785030105E+01  0.40000000000E-01 0. -1.
</event>
<event>
 5   0  0.7212170E+07  0.9118800E+02  0.7818608E-02  0.1180000E+00
       11   -1    0    0    0    0  0.00000000000E+00  0.00000000000E+00  0.39999999673E+01  0.40000000000E+01  0.51109989000E-03 0.  1.
     -623   -1    0    0    0    0  0.00000000000E+00  0.00000000000E+00  0.12525980253E-10  0.17130000000E+03  0.17130000000E+03 0. -1.
       11    1    1    2    0    0 -0.22978063982E-01 -0.28567661158E-01  0.19186789449E+01  0.19190292488E+01  0.51109989000E-03 0.  1.
     -623    1    1    2    0    0  0.14461826656E-02 -0.35357795377E-02  0.10939139516E-02  0.17130000005E+03  0.17130000000E+03 0. -1.
      622    1    1    2    0    0  0.21531881316E-01  0.32103440696E-01  0.20802271089E+01  0.20809707056E+01  0.40000000000E-01 0.  1.
</event>
<event>
 5   0  0.7212170E+07  0.9118800E+02  0.7818608E-02  0.1180000E+00
       11   -1    0    0    0    0  0.00000000000E+00  0.00000000000E+00  0.39999999673E+01  0.40000000000E+01  0.51109989000E-03 0.  1.
     -623   -1    0    0    0    0  0.00000000000E+00  0.00000000000E+00  0.12525980253E-10  0.17130000000E+03  0.17130000000E+03 0. -1.
       11    1    1    2    0    0  0.16712925274E-02  0.52851490286E-03  0.19875243954E+00  0.19876082610E+00  0.51109989000E-03 0.  1.
     -623    1    1    2    0    0 -0.26906918050E-03 -0.18081154332E-03  0.21909242920E-03  0.17130000000E+03  0.17130000000E+03 0. -1.
      622    1    1    2    0    0 -0.14022233469E-02 -0.34770335953E-03  0.38010284355E+01  0.38012391736E+01  0.40000000000E-01 0.  1.
</event>
<event>
 5   0  0.7212170E+07  0.9118800E+02  0.7818608E-02  0.1180000E+00
       11   -1    0    0    0    0  0.00000000000E+00  0.00000000000E+00  0.39999999673E+01  0.40000000000E+01  0.51109989000E-03 0. -1.
     -623   -1    0    0    0    0  0.00000000000E+00  0.00000000000E+00  0.12525980253E-10  0.17130000000E+03  0.17130000000E+03 0. -1.
       11    1    1    2    0    0  0.24635737554E-02 -0.93015066155E-02  0.33268692687E+00  0.33282644088E+00  0.51109989000E-03 0. -1.
     -623    1    1    2    0    0 -0.17986961200E-01  0.29993578117E-02  0.39688410767E-03  0.17130000097E+03  0.17130000000E+03 0. -1.
      622    1    1    2    0    0  0.15523387444E-01  0.63021488039E-02  0.36669161562E+01  0.36671725879E+01  0.40000000000E-01 0. -1.
</event>
<event>
 5   0  0.7212170E+07  0.9118800E+02  0.7818608E-02  0.1180000E+00
       11   -1    0    0    0    0  0.00000000000E+00  0.00000000000E+00  0.39999999673E+01  0.40000000000E+01  0.51109989000E-03 0.  1.
     -623   -1    0    0    0    0  0.00000000000E+00  0.00000000000E+00  0.12525980253E-10  0.17130000000E+03  0.17130000000E+03 0. -1.
       11    1    1    2    0    0  0.47731659508E-02 -0.34684483153E-01  0.52259948647E+00  0.52377121051E+00  0.51109989000E-03 0.  1.
     -623    1    1    2    0    0  0.79552123182E-03 -0.21795180445E-02  0.16017999159E-02  0.17130000002E+03  0.17130000000E+03 0. -1.
      622    1    1    2    0    0 -0.55686871827E-02  0.36864001197E-01  0.34757986812E+01  0.34762287665E+01  0.40000000000E-01 0.  1.
</event>
<event>
 5   0  0.7212170E+07  0.9118800E+02  0.7818608E-02  0.1180000E+00
       11   -1    0    0    0    0  0.00000000000E+00  0.00000000000E+00  0.39999999673E+01  0.40000000000E+01  0.51109989000E-03 0. -1.
     -623   -1    0    0    0    0  0.00000000000E+00  0.00000000000E+00  0.12525980253E-10  0.17130000000E+03  0.17130000000E+03 0. -1.
       11    1    1    2    0    0  0.80934321915E-03 -0.10551590356E-02  0.37214720273E-03  0.14724515866E-02  0.51109989000E-03 0. -1.
     -623    1    1    2    0    0 -0.77392783888E-03  0.11511186530E-03  0.13004677871E-02  0.17130000001E+03  0.17130000000E+03 0. -1.
      622    1    1    2    0    0 -0.35415380302E-04  0.94004717033E-03  0.39983273522E+01  0.39985275415E+01  0.40000000000E-01 0. -1.
</event>
<event>
 5   0  0.7212170E+07  0.9118800E+02  0.7818608E-02  0.1180000E+00
       11   -1    0    0    0    0  0.00000000000E+00  0.00000000000E+00  0.39999999673E+01  0.40000000000E+01  0.51109989000E-03 0.  1.
     -623   -1    0    0    0    0  0.00000000000E+00  0.00000000000E+00  0.12525980253E-10  0.17130000000E+03  0.17130000000E+03 0. -1.
       11    1    1    2    0    0  0.22042476863E-01 -0.20164550817E-01  0.25828177624E+00  0.26000426354E+00  0.51109989000E-03 0.  1.
     -623    1    1    2    0    0 -0.16295331524E-01  0.74243189291E-02  0.19634290427E-02  0.17130000095E+03  0.17130000000E+03 0. -1.
      622    1    1    2    0    0 -0.57471453390E-02  0.12740231887E-01  0.37397547622E+01  0.37399947894E+01  0.40000000000E-01 0.  1.
</event>
<event>
 5   0  0.7212170E+07  0.9118800E+02  0.7818608E-02  0.1180000E+00
       11   -1    0    0    0    0  0.00000000000E+00  0.00000000000E+00  0.39999999673E+01  0.40000000000E+01  0.51109989000E-03 0. -1.
     -623   -1    0    0    0    0  0.00000000000E+00  0.00000000000E+00  0.12525980253E-10  0.17130000000E+03  0.17130000000E+03 0. -1.
       11    1    1    2    0    0  0.64974520264E-02  0.68590787910E-02  0.10710903609E+01  0.10711321517E+01  0.51109989000E-03 0. -1.
     -623    1    1    2    0    0 -0.66506999164E-02 -0.36004495905E-02  0.31689811563E-03  0.17130000017E+03  0.17130000000E+03 0. -1.
      622    1    1    2    0    0  0.15324789164E-03 -0.32586291996E-02  0.29285927093E+01  0.29288676821E+01  0.40000000000E-01 0. -1.
</event>
<event>
 5   0  0.7212170E+07  0.9118800E+02  0.7818608E-02  0.1180000E+00
       11   -1    0    0    0    0  0.00000000000E+00  0.00000000000E+00  0.39999999673E+01  0.40000000000E+01  0.51109989000E-03 0. -1.
     -623   -1    0    0    0    0  0.00000000000E+00  0.00000000000E+00  0.12525980253E-10  0.17130000000E+03  0.17130000000E+03 0. -1.
       11    1    1    2    0    0 -0.33630374930E-03 -0.94884351564E-03  0.55478016722E-01  0.55489503213E-01  0.51109989000E-03 0. -1.
     -623    1    1    2    0    0  0.34637219640E-04  0.19553022827E-03  0.21435629140E-03  0.17130000000E+03  0.17130000000E+03 0. -1.
      622    1    1    2    0    0  0.30166652967E-03  0.75331328739E-03  0.39443075939E+01  0.39445104961E+01  0.40000000000E-01 0. -1.
</event>
<event>
 5   0  0.7212170E+07  0.9118800E+02  0.7818608E-02  0.1180000E+00
       11   -1    0    0    0    0  0.00000000000E+00  0.00000000000E+00  0.39999999673E+01  0.40000000000E+01  0.51109989000E-03 0. -1.
     -623   -1    0    0    0    0  0.00000000000E+00  0.00000000000E+00  0.12525980253E-10  0.17130000000E+03  0.17130000000E+03 0.  1.
       11    1    1    2    0    0  0.36081790242E-01  0.34839463817E-01  0.30842753247E+01  0.30846831643E+01  0.51109989000E-03 0. -1.
     -623    1    1    2    0    0 -0.96379349001E-02 -0.22323346392E-01  0.17521027657E-02  0.17130000173E+03  0.17130000000E+03 0.  1.
      622    1    1    2    0    0 -0.26443855341E-01 -0.12516117423E-01  0.91397254006E+00  0.91531510130E+00  0.40000000000E-01 0. -1.
</event>
<event>
 5   0  0.7212170E+07  0.9118800E+02  0.7818608E-02  0.1180000E+00
       11   -1    0    0    0    0  0.00000000000E+00  0.00000000000E+00  0.39999999673E+01  0.40000000000E+01  0.51109989000E-03 0.  1.
     -623   -1    0    0    0    0  0.00000000000E+00  0.00000000000E+00  0.12525980253E-10  0.17130000000E+03  0.17130000000E+03 0. -1.
       11    1    1    2    0    0  0.27839990406E-02  0.59183436381E-02  0.40159793434E-01  0.40692108250E-01  0.51109989000E-03 0.  1.
     -623    1    1    2    0    0  0.75236186117E-03 -0.33533745860E-02  0.73678916614E-03  0.17130000004E+03  0.17130000000E+03 0. -1.
      622    1    1    2    0    0 -0.35363609018E-02 -0.25649690522E-02  0.39591033847E+01  0.39593078556E+01  0.40000000000E-01 0.  1.
</event>
<event>
 5   0  0.7212170E+07  0.9118800E+02  0.7818608E-02  0.1180000E+00
       11   -1    0    0    0    0  0.00000000000E+00  0.00000000000E+00  0.39999999673E+01  0.40000000000E+01  0.51109989000E-03 0.  1.
     -623   -1    0    0    0    0  0.00000000000E+00  0.00000000000E+00  0.12525980253E-10  0.17130000000E+03  0.17130000000E+03 0.  1.
       11    1    1    2    0    0  0.44187674822E-01 -0.30742589811E-01  0.11439236278E+01  0.11451895847E+01  0.51109989000E-03 0.  1.
     -623    1    1    2    0    0 -0.40939264111E-01  0.38856066240E-02  0.16793056571E-02  0.17130000494E+03  0.17130000000E+03 0.  1.
      622    1    1    2    0    0 -0.32484107102E-02  0.26856983187E-01  0.28543970341E+01  0.28548054711E+01  0.40000000000E-01 0.  1.
</event>
<event>
 5   0  0.7212170E+07  0.9118800E+02  0.7818608E-02  0.1180000E+00
       11   -1    0    0    0    0  0.00000000000E+00  0.00000000000E+00  0.39999999673E+01  0.40000000000E+01  0.51109989000E-03 0. -1.
     -623   -1    0    0    0    0  0.00000000000E+00  0.00000000000E+00  0.12525980253E-10  0.17130000000E+03  0.17130000000E+03 0. -1.
       11    1    1    2    0    0  0.59343515927E-02  0.18129867220E-02  0.81284276480E-01  0.81522378986E-01  0.51109989000E-03 0. -1.
     -623    1    1    2    0    0  0.61827880040E-04 -0.38135158065E-02  0.44737786675E-03  0.17130000004E+03  0.17130000000E+03 0. -1.
      622    1    1    2    0    0 -0.59961794727E-02  0.20005290842E-02  0.39182683127E+01  0.39184775776E+01  0.40000000000E-01 0. -1.
</event>
<event>
 5   0  0.7212170E+07  0.9118800E+02  0.7818608E-02  0.1180000E+00
       11   -1    0    0    0    0  0.00000000000E+00  0.00000000000E+00  0.39999999673E+01  0.40000000000E+01  0.51109989000E-03 0. -1.
     -623   -1    0    0    0    0  0.00000000000E+00  0.00000000000E+00  0.12525980253E-10  0.17130000000E+03  0.17130000000E+03 0. -1.
       11    1    1    2    0    0  0.17061856647E-02 -0.37304483840E-02  0.48259466331E-01  0.48436191307E-01  0.51109989000E-03 0. -1.
     -623    1    1    2    0    0 -0.32637565581E-02 -0.34445797266E-04  0.38128113831E-03  0.17130000003E+03  0.17130000000E+03 0. -1.
      622    1    1    2    0    0  0.15575708941E-02  0.37648941812E-02  0.39513592208E+01  0.39515637781E+01  0.40000000000E-01 0. -1.
</event>
<event>
 5   0  0.7212170E+07  0.9118800E+02  0.7818608E-02  0.1180000E+00
       11   -1    0    0    0    0  0.00000000000E+00  0.00000000000E+00  0.39999999673E+01  0.40000000000E+01  0.51109989000E-03 0. -1.
     -623   -1    0    0    0    0  0.00000000000E+00  0.00000000000E+00  0.12525980253E-10  0.17130000000E+03  0.17130000000E+03 0. -1.
       11    1    1    2    0    0 -0.10742905469E-01  0.10953340892E-01  0.17081450071E+01  0.17082139832E+01  0.51109989000E-03 0. -1.
     -623    1    1    2    0    0 -0.47001958933E-03  0.34114220235E-03  0.47331493667E-03  0.17130000000E+03  0.17130000000E+03 0. -1.
      622    1    1    2    0    0  0.11212925059E-01 -0.11294483095E-01  0.22913816454E+01  0.22917860153E+01  0.40000000000E-01 0.  0.
</event>
<event>
 5   0  0.7212170E+07  0.9118800E+02  0.7818608E-02  0.1180000E+00
       11   -1    0    0    0    0  0.00000000000E+00  0.00000000000E+00  0.39999999673E+01  0.40000000000E+01  0.51109989000E-03 0. -1.
     -623   -1    0    0    0    0  0.00000000000E+00  0.00000000000E+00  0.12525980253E-10  0.17130000000E+03  0.17130000000E+03 0. -1.
       11    1    1    2    0    0  0.31037471944E-03  0.16021050223E-03  0.38988032256E-02  0.39476435454E-02  0.51109989000E-03 0. -1.
     -623    1    1    2    0    0  0.13385178538E-03 -0.24056815094E-03  0.24903617495E-03  0.17130000000E+03  0.17130000000E+03 0. -1.
      622    1    1    2    0    0 -0.44422650480E-03  0.80357648678E-04  0.39958521274E+01  0.39960523555E+01  0.40000000000E-01 0. -1.
</event>
<event>
 5   0  0.7212170E+07  0.9118800E+02  0.7818608E-02  0.1180000E+00
       11   -1    0    0    0    0  0.00000000000E+00  0.00000000000E+00  0.39999999673E+01  0.40000000000E+01  0.51109989000E-03 0.  1.
     -623   -1    0    0    0    0  0.00000000000E+00  0.00000000000E+00  0.12525980253E-10  0.17130000000E+03  0.17130000000E+03 0. -1.
       11    1    1    2    0    0 -0.54004562107E-02 -0.22056789190E-02  0.28484784089E+00  0.28490802662E+00  0.51109989000E-03 0.  1.
     -623    1    1    2    0    0  0.17265635437E-02  0.40425840278E-02  0.27782466003E-03  0.17130000006E+03  0.17130000000E+03 0. -1.
      622    1    1    2    0    0  0.36738926672E-02 -0.18369051081E-02  0.37148743012E+01  0.37150919161E+01  0.40000000000E-01 0.  1.
</event>
<event>
 5   0  0.7212170E+07  0.9118800E+02  0.7818608E-02  0.1180000E+00
       11   -1    0    0    0    0  0.00000000000E+00  0.00000000000E+00  0.39999999673E+01  0.40000000000E+01  0.51109989000E-03 0.  1.
     -623   -1    0    0    0    0  0.00000000000E+00  0.00000000000E+00  0.12525980253E-10  0.17130000000E+03  0.17130000000E+03 0. -1.
       11    1    1    2    0    0 -0.10280894882E-02 -0.10220101887E-02  0.42101902355E-02  0.44820082261E-02  0.51109989000E-03 0.  1.
     -623    1    1    2    0    0 -0.12824724041E-02  0.18822746388E-02  0.47279124917E-03  0.17130000002E+03  0.17130000000E+03 0. -1.
      622    1    1    2    0    0  0.23105618922E-02 -0.86026444998E-03  0.39953169857E+01  0.39955179758E+01  0.40000000000E-01 0.  1.
</event>
<event>
 5   0  0.7212170E+07  0.9118800E+02  0.7818608E-02  0.1180000E+00
       11   -1    0    0    0    0  0.00000000000E+00  0.00000000000E+00  0.39999999673E+01  0.40000000000E+01  0.51109989000E-03 0.  1.
     -623   -1    0    0    0    0  0.00000000000E+00  0.00000000000E+00  0.12525980253E-10  0.17130000000E+03  0.17130000000E+03 0. -1.
       11    1    1    2    0    0  0.35709836227E-02 -0.27189464333E-02  0.75185113637E-01  0.75320695227E-01  0.51109989000E-03 0.  1.
     -623    1    1    2    0    0  0.14998418216E-02  0.66060740900E-03  0.34321654049E-03  0.17130000001E+03  0.17130000000E+03 0. -1.
      622    1    1    2    0    0 -0.50708254445E-02  0.20583390242E-02  0.39244716378E+01  0.39246792972E+01  0.40000000000E-01 0.  1.
</event>
<event>
 5   0  0.7212170E+07  0.9118800E+02  0.7818608E-02  0.1180000E+00
       11   -1    0    0    0    0  0.00000000000E+00  0.00000000000E+00  0.39999999673E+01  0.40000000000E+01  0.51109989000E-03 0.  1.
     -623   -1    0    0    0    0  0.00000000000E+00  0.00000000000E+00  0.12525980253E-10  0.17130000000E+03  0.17130000000E+03 0. -1.
       11    1    1    2    0    0 -0.90661994842E-02  0.82124935658E-02  0.66884286015E+00  0.66895491165E+00  0.51109989000E-03 0.  1.
     -623    1    1    2    0    0 -0.42654497488E-03 -0.45130887289E-03  0.37476334419E-03  0.17130000000E+03  0.17130000000E+03 0. -1.
      622    1    1    2    0    0  0.94927444591E-02 -0.77611846929E-02  0.33307823443E+01  0.33310450872E+01  0.40000000000E-01 0.  1.
</event>
<event>
 5   0  0.7212170E+07  0.9118800E+02  0.7818608E-02  0.1180000E+00
       11   -1    0    0    0    0  0.00000000000E+00  0.00000000000E+00  0.39999999673E+01  0.40000000000E+01  0.51109989000E-03 0. -1.
     -623   -1    0    0    0    0  0.00000000000E+00  0.00000000000E+00  0.12525980253E-10  0.17130000000E+03  0.17130000000E+03 0. -1.
       11    1    1    2    0    0 -0.37667852272E-02 -0.11038456548E-02  0.62941543891E-01  0.63065888693E-01  0.51109989000E-03 0. -1.
     -623    1    1    2    0    0  0.99474702563E-02 -0.57788526541E-03  0.33302241849E-03  0.17130000029E+03  0.17130000000E+03 0. -1.
      622    1    1    2    0    0 -0.61806850308E-02  0.16817309203E-02  0.39367254018E+01  0.39369338219E+01  0.40000000000E-01 0. -1.
</event>
<event>
 5   0  0.7212170E+07  0.9118800E+02  0.7818608E-02  0.1180000E+00
       11   -1    0    0    0    0  0.00000000000E+00  0.00000000000E+00  0.39999999673E+01  0.40000000000E+01  0.51109989000E-03 0. -1.
     -623   -1    0    0    0    0  0.00000000000E+00  0.00000000000E+00  0.12525980253E-10  0.17130000000E+03  0.17130000000E+03 0. -1.
       11    1    1    2    0    0  0.20017632079E-04  0.11125211725E-02  0.26045323316E-01  0.26074090470E-01  0.51109989000E-03 0. -1.
     -623    1    1    2    0    0  0.78483130528E-04 -0.57899142822E-03  0.23009005970E-03  0.17130000000E+03  0.17130000000E+03 0. -1.
      622    1    1    2    0    0 -0.98500762632E-04 -0.53352974412E-03  0.39737245553E+01  0.39739259097E+01  0.40000000000E-01 0. -1.
</event>
<event>
 5   0  0.7212170E+07  0.9118800E+02  0.7818608E-02  0.1180000E+00
       11   -1    0    0    0    0  0.00000000000E+00  0.00000000000E+00  0.39999999673E+01  0.40000000000E+01  0.51109989000E-03 0.  1.
     -623   -1    0    0    0    0  0.00000000000E+00  0.00000000000E+00  0.12525980253E-10  0.17130000000E+03  0.17130000000E+03 0.  1.
       11    1    1    2    0    0  0.87403706630E-02 -0.18346297036E-01  0.45576435618E+00  0.45621748134E+00  0.51109989000E-03 0.  1.
     -623    1    1    2    0    0  0.71855378676E-02  0.34438322460E-02  0.74615916820E-03  0.17130000019E+03  0.17130000000E+03 0.  1.
      622    1    1    2    0    0 -0.15925908530E-01  0.14902464790E-01  0.35434894519E+01  0.35437823316E+01  0.40000000000E-01 0.  1.
</event>
<event>
 5   0  0.7212170E+07  0.9118800E+02  0.7818608E-02  0.1180000E+00
       11   -1    0    0    0    0  0.00000000000E+00  0.00000000000E+00  0.39999999673E+01  0.40000000000E+01  0.51109989000E-03 0. -1.
     -623   -1    0    0    0    0  0.00000000000E+00  0.00000000000E+00  0.12525980253E-10  0.17130000000E+03  0.17130000000E+03 0. -1.
       11    1    1    2    0    0 -0.72916787953E-03  0.41568395486E-02  0.30122641578E-01  0.30421140011E-01  0.51109989000E-03 0. -1.
     -623    1    1    2    0    0  0.10694877936E-02 -0.71755185369E-02  0.50132041817E-03  0.17130000015E+03  0.17130000000E+03 0. -1.
      622    1    1    2    0    0 -0.34031991428E-03  0.30186789899E-02  0.39693760063E+01  0.39695787066E+01  0.40000000000E-01 0. -1.
</event>
<event>
 5   0  0.7212170E+07  0.9118800E+02  0.7818608E-02  0.1180000E+00
       11   -1    0    0    0    0  0.00000000000E+00  0.00000000000E+00  0.39999999673E+01  0.40000000000E+01  0.51109989000E-03 0.  1.
     -623   -1    0    0    0    0  0.00000000000E+00  0.00000000000E+00  0.12525980253E-10  0.17130000000E+03  0.17130000000E+03 0. -1.
       11    1    1    2    0    0 -0.24411340477E-01 -0.25100316040E-01  0.83135511648E+00  0.83209226071E+00  0.51109989000E-03 0.  1.
     -623    1    1    2    0    0  0.27849859136E-01  0.27067069380E-01  0.99653668954E-03  0.17130000441E+03  0.17130000000E+03 0. -1.
      622    1    1    2    0    0 -0.34385186582E-02 -0.19667533385E-02  0.31676483141E+01  0.31679033339E+01  0.40000000000E-01 0.  1.
</event>
<event>
 5   0  0.7212170E+07  0.9118800E+02  0.7818608E-02  0.1180000E+00
       11   -1    0    0    0    0  0.00000000000E+00  0.00000000000E+00  0.39999999673E+01  0.40000000000E+01  0.51109989000E-03 0.  1.
     -623   -1    0    0    0    0  0.00000000000E+00  0.00000000000E+00  0.12525980253E-10  0.17130000000E+03  0.17130000000E+03 0.  1.
       11    1    1    2    0    0 -0.11685633713E-02 -0.84457325631E-04  0.78706660119E-02  0.79737870527E-02  0.51109989000E-03 0.  1.
     -623    1    1    2    0    0  0.85652595477E-03  0.10106316132E-02  0.30361794897E-03  0.17130000001E+03  0.17130000000E+03 0.  1.
      622    1    1    2    0    0  0.31203741677E-03 -0.92617428730E-03  0.39918256825E+01  0.39920262066E+01  0.40000000000E-01 0.  1.
</event>
<event>
 5   0  0.7212170E+07  0.9118800E+02  0.7818608E-02  0.1180000E+00
       11   -1    0    0    0    0  0.00000000000E+00  0.00000000000E+00  0.39999999673E+01  0.40000000000E+01  0.51109989000E-03 0.  1.
     -623   -1    0    0    0    0  0.00000000000E+00  0.00000000000E+00  0.12525980253E-10  0.17130000000E+03  0.17130000000E+03 0.  1.
       11    1    1    2    0    0 -0.30392828018E-02 -0.83387119929E-02  0.40514886642E+00  0.40524638992E+00  0.51109989000E-03 0.  1.
     -623    1    1    2    0    0 -0.28325965282E-02 -0.11598826267E-02  0.33741812722E-03  0.17130000003E+03  0.17130000000E+03 0.  1.
      622    1    1    2    0    0  0.58718793294E-02  0.94985946194E-02  0.35945136820E+01  0.35947535816E+01  0.40000000000E-01 0.  1.
</event>
<event>
 5   0  0.7212170E+07  0.9118800E+02  0.7818608E-02  0.1180000E+00
       11   -1    0    0    0    0  0.00000000000E+00  0.00000000000E+00  0.39999999673E+01  0.40000000000E+01  0.51109989000E-03 0.  1.
     -623   -1    0    0    0    0  0.00000000000E+00  0.00000000000E+00  0.12525980253E-10  0.17130000000E+03  0.17130000000E+03 0.  1.
       11    1    1    2    0    0 -0.10682222876E-02 -0.15727761079E-02  0.36315182643E-02  0.41308439262E-02  0.51109989000E-03 0.  1.
     -623    1    1    2    0    0 -0.22434179744E-02 -0.12356670028E-02  0.70188472389E-03  0.17130000002E+03  0.17130000000E+03 0.  1.
      622    1    1    2    0    0  0.33116402621E-02  0.28084431109E-02  0.39956665646E+01  0.39958691358E+01  0.40000000000E-01 0.  1.
</event>
<event>
 5   0  0.7212170E+07  0.9118800E+02  0.7818608E-02  0.1180000E+00
       11   -1    0    0    0    0  0.00000000000E+00  0.00000000000E+00  0.39999999673E+01  0.40000000000E+01  0.51109989000E-03 0.  1.
     -623   -1    0    0    0    0  0.00000000000E+00  0.00000000000E+00  0.12525980253E-10  0.17130000000E+03  0.17130000000E+03 0. -1.
       11    1    1    2    0    0 -0.19693853372E-02  0.23246739592E-02  0.12299050776E+00  0.12302930061E+00  0.51109989000E-03 0.  1.
     -623    1    1    2    0    0 -0.46171585990E-02 -0.49255104670E-02  0.25171323791E-03  0.17130000013E+03  0.17130000000E+03 0. -1.
      622    1    1    2    0    0  0.65865439373E-02  0.26008365090E-02  0.38767577474E+01  0.38769705672E+01  0.40000000000E-01 0.  1.
</event>
<event>
 5   0  0.7212170E+07  0.9118800E+02  0.7818608E-02  0.1180000E+00
       11   -1    0    0    0    0  0.00000000000E+00  0.00000000000E+00  0.39999999673E+01  0.40000000000E+01  0.51109989000E-03 0. -1.
     -623   -1    0    0    0    0  0.00000000000E+00  0.00000000000E+00  0.12525980253E-10  0.17130000000E+03  0.17130000000E+03 0.  1.
       11    1    1    2    0    0 -0.14621840964E-01 -0.65134583161E-03  0.26910749108E+00  0.26950570581E+00  0.51109989000E-03 0. -1.
     -623    1    1    2    0    0 -0.18660462000E-02 -0.41151786874E-02  0.65218175068E-03  0.17130000006E+03  0.17130000000E+03 0.  1.
      622    1    1    2    0    0  0.16487887164E-01  0.47665245191E-02  0.37302402946E+01  0.37304942334E+01  0.40000000000E-01 0. -1.
</event>
<event>
 5   0  0.7212170E+07  0.9118800E+02  0.7818608E-02  0.1180000E+00
       11   -1    0    0    0    0  0.00000000000E+00  0.00000000000E+00  0.39999999673E+01  0.40000000000E+01  0.51109989000E-03 0. -1.
     -623   -1    0    0    0    0  0.00000000000E+00  0.00000000000E+00  0.12525980253E-10  0.17130000000E+03  0.17130000000E+03 0.  1.
       11    1    1    2    0    0 -0.64235853916E-02 -0.13156653067E-01  0.11427429508E+01  0.11428368531E+01  0.51109989000E-03 0. -1.
     -623    1    1    2    0    0  0.85925902049E-02  0.42891021580E-02  0.38873658146E-03  0.17130000027E+03  0.17130000000E+03 0.  1.
      622    1    1    2    0    0 -0.21690048119E-02  0.88675509101E-02  0.28568682793E+01  0.28571628766E+01  0.40000000000E-01 0. -1.
</event>
<event>
 5   0  0.7212170E+07  0.9118800E+02  0.7818608E-02  0.1180000E+00
       11   -1    0    0    0    0  0.00000000000E+00  0.00000000000E+00  0.39999999673E+01  0.40000000000E+01  0.51109989000E-03 0. -1.
     -623   -1    0    0    0    0  0.00000000000E+00  0.00000000000E+00  0.12525980253E-10  0.17130000000E+03  0.17130000000E+03 0. -1.
       11    1    1    2    0    0  0.78616001489E-03  0.13944096344E-02  0.14678184980E-01  0.14774057100E-01  0.51109989000E-03 0. -1.
     -623    1    1    2    0    0  0.69654968551E-03 -0.79485952571E-03  0.29691043305E-03  0.17130000000E+03  0.17130000000E+03 0. -1.
      622    1    1    2    0    0 -0.14827097003E-02 -0.59955010886E-03  0.39850248713E+01  0.39852259387E+01  0.40000000000E-01 0. -1.
</event>
<event>
 5   0  0.7212170E+07  0.9118800E+02  0.7818608E-02  0.1180000E+00
       11   -1    0    0    0    0  0.00000000000E+00  0.00000000000E+00  0.39999999673E+01  0.40000000000E+01  0.51109989000E-03 0. -1.
     -623   -1    0    0    0    0  0.00000000000E+00  0.00000000000E+00  0.12525980253E-10  0.17130000000E+03  0.17130000000E+03 0.  1.
       11    1    1    2    0    0  0.13298306220E-01 -0.36497981047E-01  0.26746959917E+01  0.26749781039E+01  0.51109989000E-03 0. -1.
     -623    1    1    2    0    0 -0.23434920610E-02  0.14764165248E-02  0.13944498242E-02  0.17130000003E+03  0.17130000000E+03 0.  1.
      622    1    1    2    0    0 -0.10954814159E-01  0.35021564522E-01  0.13239095262E+01  0.13250218683E+01  0.40000000000E-01 0.  0.
</event>
<event>
 5   0  0.7212170E+07  0.9118800E+02  0.7818608E-02  0.1180000E+00
       11   -1    0    0    0    0  0.00000000000E+00  0.00000000000E+00  0.39999999673E+01  0.40000000000E+01  0.51109989000E-03 0.  1.
     -623   -1    0    0    0    0  0.00000000000E+00  0.00000000000E+00  0.12525980253E-10  0.17130000000E+03  0.17130000000E+03 0. -1.
       11    1    1    2    0    0 -0.61028138174E-02 -0.53531188101E-02  0.22586092998E+00  0.22600734751E+00  0.51109989000E-03 0.  1.
     -623    1    1    2    0    0 -0.46246809301E-02  0.10610368434E-01  0.37766859586E-03  0.17130000039E+03  0.17130000000E+03 0. -1.
      622    1    1    2    0    0  0.10727494748E-01 -0.52572496257E-02  0.37737613693E+01  0.37739922616E+01  0.40000000000E-01 0.  1.
</event>
<event>
 5   0  0.7212170E+07  0.9118800E+02  0.7818608E-02  0.1180000E+00
       11   -1    0    0    0    0  0.00000000000E+00  0.00000000000E+00  0.39999999673E+01  0.40000000000E+01  0.51109989000E-03 0. -1.
     -623   -1    0    0    0    0  0.00000000000E+00  0.00000000000E+00  0.12525980253E-10  0.17130000000E+03  0.17130000000E+03 0. -1.
       11    1    1    2    0    0  0.36124466841E-04 -0.25416718611E-02  0.33050395961E-01  0.33151942584E-01  0.51109989000E-03 0. -1.
     -623    1    1    2    0    0 -0.98556216467E-03  0.19637830391E-02  0.30336064252E-03  0.17130000001E+03  0.17130000000E+03 0. -1.
      622    1    1    2    0    0  0.94943769804E-03  0.57788882161E-03  0.39666462116E+01  0.39668480439E+01  0.40000000000E-01 0. -1.
</event>
<event>
 5   0  0.7212170E+07  0.9118800E+02  0.7818608E-02  0.1180000E+00
       11   -1    0    0    0    0  0.00000000000E+00  0.00000000000E+00  0.39999999673E+01  0.40000000000E+01  0.51109989000E-03 0.  1.
     -623   -1    0    0    0    0  0.00000000000E+00  0.00000000000E+00  0.12525980253E-10  0.17130000000E+03  0.17130000000E+03 0. -1.
       11    1    1    2    0    0  0.13675397117E-02 -0.25912012089E-02  0.89302685056E+00  0.89303180320E+00  0.51109989000E-03 0.  1.
     -623    1    1    2    0    0  0.57511386274E-03  0.63981083244E-03  0.26363900920E-03  0.17130000000E+03  0.17130000000E+03 0. -1.
      622    1    1    2    0    0 -0.19426535746E-02  0.19513903763E-02  0.31067094789E+01  0.31069681955E+01  0.40000000000E-01 0.  1.
</event>
<event>
 5   0  0.7212170E+07  0.9118800E+02  0.7818608E-02  0.1180000E+00
       11   -1    0    0    0    0  0.00000000000E+00  0.00000000000E+00  0.39999999673E+01  0.40000000000E+01  0.51109989000E-03 0. -1.
     -623   -1    0    0    0    0  0.00000000000E+00  0.00000000000E+00  0.12525980253E-10  0.17130000000E+03  0.17130000000E+03 0.  1.
       11    1    1    2    0    0 -0.84572992503E-03 -0.14152670477E-01  0.31846971337E-01  0.34864081046E-01  0.51109989000E-03 0. -1.
     -623    1    1    2    0    0  0.92868841043E-02  0.12723590793E-01  0.32288384349E-02  0.17130000075E+03  0.17130000000E+03 0.  1.
      622    1    1    2    0    0 -0.84411541796E-02  0.14290796835E-02  0.39649241577E+01  0.39651351644E+01  0.40000000000E-01 0. -1.
</event>
<event>
 5   0  0.7212170E+07  0.9118800E+02  0.7818608E-02  0.1180000E+00
       11   -1    0    0    0    0  0.00000000000E+00  0.00000000000E+00  0.39999999673E+01  0.40000000000E+01  0.51109989000E-03 0. -1.
     -623   -1    0    0    0    0  0.00000000000E+00  0.00000000000E+00  0.12525980253E-10  0.17130000000E+03  0.17130000000E+03 0. -1.
       11    1    1    2    0    0  0.14176766500E-03  0.61695377199E-05 -0.22958296867E-03  0.57798578797E-03  0.51109989000E-03 0. -1.
     -623    1    1    2    0    0  0.10651164480E-02  0.85578338932E-03  0.10078534316E-02  0.17130000001E+03  0.17130000000E+03 0. -1.
      622    1    1    2    0    0 -0.12068841132E-02 -0.86195292718E-03  0.39992216975E+01  0.39994220064E+01  0.40000000000E-01 0. -1.
</event>
<event>
 5   0  0.7212170E+07  0.9118800E+02  0.7818608E-02  0.1180000E+00
       11   -1    0    0    0    0  0.00000000000E+00  0.00000000000E+00  0.39999999673E+01  0.40000000000E+01  0.51109989000E-03 0.  1.
     -623   -1    0    0    0    0  0.00000000000E+00  0.00000000000E+00  0.12525980253E-10  0.17130000000E+03  0.17130000000E+03 0. -1.
       11    1    1    2    0    0 -0.15663857596E-02 -0.23777119992E-02  0.15549513383E-01  0.15816310196E-01  0.51109989000E-03 0.  1.
     -623    1    1    2    0    0  0.12551614303E-02 -0.19060487523E-02  0.46989424139E-03  0.17130000002E+03  0.17130000000E+03 0. -1.
      622    1    1    2    0    0  0.31122432910E-03  0.42837607517E-02  0.39839805601E+01  0.39841836743E+01  0.40000000000E-01 0.  1.
</event>
<event>
 5   0  0.7212170E+07  0.9118800E+02  0.7818608E-02  0.1180000E+00
       11   -1    0    0    0    0  0.00000000000E+00  0.00000000000E+00  0.39999999673E+01  0.40000000000E+01  0.51109989000E-03 0.  1.
     -623   -1    0    0    0    0  0.00000000000E+00  0.00000000000E+00  0.12525980253E-10  0.17130000000E+03  0.17130000000E+03 0. -1.
       11    1    1    2    0    0 -0.13336707592E-01 -0.30725063204E-02  0.40755788282E+00  0.40778793157E+00  0.51109989000E-03 0.  1.
     -623    1    1    2    0    0  0.65871148758E-03  0.21833767743E-03  0.47623672946E-03  0.17130000000E+03  0.17130000000E+03 0. -1.
      622    1    1    2    0    0  0.12677996104E-01  0.28541686430E-02  0.35919658478E+01  0.35922120663E+01  0.40000000000E-01 0.  0.
</event>
<event>
 5   0  0.7212170E+07  0.9118800E+02  0.7818608E-02  0.1180000E+00
       11   -1    0    0    0    0  0.00000000000E+00  0.00000000000E+00  0.39999999673E+01  0.40000000000E+01  0.51109989000E-03 0. -1.
     -623   -1    0    0    0    0  0.00000000000E+00  0.00000000000E+00  0.12525980253E-10  0.17130000000E+03  0.17130000000E+03 0.  1.
       11    1    1    2    0    0 -0.36102616414E-02 -0.27030464498E-02  0.76959412336E-01  0.77093143790E-01  0.51109989000E-03 0. -1.
     -623    1    1    2    0    0 -0.29025324135E-02  0.58244087343E-02  0.34440689049E-03  0.17130000012E+03  0.17130000000E+03 0.  1.
      622    1    1    2    0    0  0.65127940546E-02 -0.31213622838E-02  0.39226961477E+01  0.39229067318E+01  0.40000000000E-01 0. -1.
</event>
<event>
 5   0  0.7212170E+07  0.9118800E+02  0.7818608E-02  0.1180000E+00
       11   -1    0    0    0    0  0.00000000000E+00  0.00000000000E+00  0.39999999673E+01  0.40000000000E+01  0.51109989000E-03 0.  1.
     -623   -1    0    0    0    0  0.00000000000E+00  0.00000000000E+00  0.12525980253E-10  0.17130000000E+03  0.17130000000E+03 0. -1.
       11    1    1    2    0    0  0.97283696252E-02  0.14801331172E-01  0.15519338018E+01  0.15520349568E+01  0.51109989000E-03 0.  1.
     -623    1    1    2    0    0 -0.18682114970E-02  0.32624059917E-03  0.48732665179E-03  0.17130000001E+03  0.17130000000E+03 0. -1.
      622    1    1    2    0    0 -0.78601581283E-02 -0.15127571771E-01  0.24475788387E+01  0.24479650318E+01  0.40000000000E-01 0.  1.
</event>
<event>
 5   0  0.7212170E+07  0.9118800E+02  0.7818608E-02  0.1180000E+00
       11   -1    0    0    0    0  0.00000000000E+00  0.00000000000E+00  0.39999999673E+01  0.40000000000E+01  0.51109989000E-03 0.  1.
     -623   -1    0    0    0    0  0.00000000000E+00  0.00000000000E+00  0.12525980253E-10  0.17130000000E+03  0.17130000000E+03 0. -1.
       11    1    1    2    0    0  0.10118598205E-02 -0.14279955491E-02  0.16188871807E-01  0.16291219263E-01  0.51109989000E-03 0.  1.
     -623    1    1    2    0    0  0.24051365901E-03  0.13511979516E-02  0.30334114329E-03  0.17130000001E+03  0.17130000000E+03 0. -1.
      622    1    1    2    0    0 -0.12523734795E-02  0.76797597818E-04  0.39835077535E+01  0.39837087741E+01  0.40000000000E-01 0.  1.
</event>
<event>
 5   0  0.7212170E+07  0.9118800E+02  0.7818608E-02  0.1180000E+00
       11   -1    0    0    0    0  0.00000000000E+00  0.00000000000E+00  0.39999999673E+01  0.40000000000E+01  0.51109989000E-03 0.  1.
     -623   -1    0    0    0    0  0.00000000000E+00  0.00000000000E+00  0.12525980253E-10  0.17130000000E+03  0.17130000000E+03 0.  1.
       11    1    1    2    0    0  0.20460453636E-02  0.16581004862E-02  0.13329208348E+00  0.13331907718E+00  0.51109989000E-03 0.  1.
     -623    1    1    2    0    0 -0.83189911370E-02  0.10050428652E-02  0.24007327288E-03  0.17130000021E+03  0.17130000000E+03 0.  1.
      622    1    1    2    0    0  0.62729457708E-02 -0.26631433511E-02  0.38664678094E+01  0.38666807165E+01  0.40000000000E-01 0.  1.
</event>
<event>
 5   0  0.7212170E+07  0.9118800E+02  0.7818608E-02  0.1180000E+00
       11   -1    0    0    0    0  0.00000000000E+00  0.00000000000E+00  0.39999999673E+01  0.40000000000E+01  0.51109989000E-03 0.  1.
     -623   -1    0    0    0    0  0.00000000000E+00  0.00000000000E+00  0.12525980253E-10  0.17130000000E+03  0.17130000000E+03 0. -1.
       11    1    1    2    0    0 -0.40091991040E-02 -0.28867470885E-02  0.32620732232E+00  0.32624513076E+00  0.51109989000E-03 0.  1.
     -623    1    1    2    0    0  0.38206539865E-03  0.25252975686E-03  0.25827904597E-03  0.17130000000E+03  0.17130000000E+03 0. -1.
      622    1    1    2    0    0  0.36271337053E-02  0.26342173316E-02  0.36735343672E+01  0.36737548697E+01  0.40000000000E-01 0.  1.
</event>
<event>
 5   0  0.7212170E+07  0.9118800E+02  0.7818608E-02  0.1180000E+00
       11   -1    0    0    0    0  0.00000000000E+00  0.00000000000E+00  0.39999999673E+01  0.40000000000E+01  0.51109989000E-03 0.  1.
     -623   -1    0    0    0    0  0.00000000000E+00  0.00000000000E+00  0.12525980253E-10  0.17130000000E+03  0.17130000000E+03 0.  1.
       11    1    1    2    0    0  0.15830093891E-02 -0.11538321682E-01  0.89146336675E-01  0.89905335502E-01  0.51109989000E-03 0.  1.
     -623    1    1    2    0    0 -0.61960237093E-02  0.23627764057E-01  0.98672640372E-03  0.17130000174E+03  0.17130000000E+03 0.  1.
      622    1    1    2    0    0  0.46130143208E-02 -0.12089442378E-01  0.39098669047E+01  0.39100929205E+01  0.40000000000E-01 0.  1.
</event>
<event>
 5   0  0.7212170E+07  0.9118800E+02  0.7818608E-02  0.1180000E+00
       11   -1    0    0    0    0  0.00000000000E+00  0.00000000000E+00  0.39999999673E+01  0.40000000000E+01  0.51109989000E-03 0.  1.
     -623   -1    0    0    0    0  0.00000000000E+00  0.00000000000E+00  0.12525980253E-10  0.17130000000E+03  0.17130000000E+03 0. -1.
       11    1    1    2    0    0 -0.87654584175E-03 -0.39026306879E-02  0.52730061862E+00  0.52731603662E+00  0.51109989000E-03 0.  1.
     -623    1    1    2    0    0  0.20196284840E-02 -0.27084567881E-02  0.25227733752E-03  0.17130000003E+03  0.17130000000E+03 0. -1.
      622    1    1    2    0    0 -0.11430826419E-02  0.66110874756E-02  0.34724470707E+01  0.34726839292E+01  0.40000000000E-01 0.  1.
</event>
<event>
 5   0  0.7212170E+07  0.9118800E+02  0.7818608E-02  0.1180000E+00
       11   -1    0    0    0    0  0.00000000000E+00  0.00000000000E+00  0.39999999673E+01  0.40000000000E+01  0.51109989000E-03 0. -1.
     -623   -1    0    0    0    0  0.00000000000E+00  0.00000000000E+00  0.12525980253E-10  0.17130000000E+03  0.17130000000E+03 0.  1.
       11    1    1    2    0    0 -0.17188185817E-02  0.22903789162E-01  0.28499977771E+01  0.28500903720E+01  0.51109989000E-03 0. -1.
     -623    1    1    2    0    0  0.27230175025E-01 -0.21807656247E-02  0.12607661346E-02  0.17130000218E+03  0.17130000000E+03 0.  1.
      622    1    1    2    0    0 -0.25511356445E-01 -0.20723023537E-01  0.11487414243E+01  0.11499074454E+01  0.40000000000E-01 0. -1.
</event>
<event>
 5   0  0.7212170E+07  0.9118800E+02  0.7818608E-02  0.1180000E+00
       11   -1    0    0    0    0  0.00000000000E+00  0.00000000000E+00  0.39999999673E+01  0.40000000000E+01  0.51109989000E-03 0. -1.
     -623   -1    0    0    0    0  0.00000000000E+00  0.00000000000E+00  0.12525980253E-10  0.17130000000E+03  0.17130000000E+03 0.  1.
       11    1    1    2    0    0  0.10059016500E-01  0.16792873558E-01  0.62298178691E+00  0.62328946122E+00  0.51109989000E-03 0. -1.
     -623    1    1    2    0    0 -0.48764839554E-02  0.42017228654E-02  0.61393823748E-03  0.17130000012E+03  0.17130000000E+03 0.  1.
      622    1    1    2    0    0 -0.51825325439E-02 -0.20994596424E-01  0.33764042425E+01  0.33767104170E+01  0.40000000000E-01 0. -1.
</event>
<event>
 5   0  0.7212170E+07  0.9118800E+02  0.7818608E-02  0.1180000E+00
       11   -1    0    0    0    0  0.00000000000E+00  0.00000000000E+00  0.39999999673E+01  0.40000000000E+01  0.51109989000E-03 0.  1.
     -623   -1    0    0    0    0  0.00000000000E+00  0.00000000000E+00  0.12525980253E-10  0.17130000000E+03  0.17130000000E+03 0.  1.
       11    1    1    2    0    0  0.34583602316E-01 -0.41024313374E-01  0.18721924357E+01  0.18729612376E+01  0.51109989000E-03 0.  1.
     -623    1    1    2    0    0  0.63310425713E-02 -0.83562821895E-02  0.21123452704E-02  0.17130000033E+03  0.17130000000E+03 0.  1.
      622    1    1    2    0    0 -0.40914644888E-01  0.49380595564E-01  0.21256951866E+01  0.21270384288E+01  0.40000000000E-01 0.  1.
</event>
<event>
 5   0  0.7212170E+07  0.9118800E+02  0.7818608E-02  0.1180000E+00
       11   -1    0    0    0    0  0.00000000000E+00  0.00000000000E+00  0.39999999673E+01  0.40000000000E+01  0.51109989000E-03 0.  1.
     -623   -1    0    0    0    0  0.00000000000E+00  0.00000000000E+00  0.12525980253E-10  0.17130000000E+03  0.17130000000E+03 0. -1.
       11    1    1    2    0    0  0.52522167805E-02 -0.13330627139E-01  0.14915913184E+01  0.14916602206E+01  0.51109989000E-03 0.  1.
     -623    1    1    2    0    0 -0.60002157694E-04  0.38483887046E-03  0.42661324735E-03  0.17130000000E+03  0.17130000000E+03 0. -1.
      622    1    1    2    0    0 -0.51922146228E-02  0.12945788268E-01  0.25079820354E+01  0.25083397781E+01  0.40000000000E-01 0.  1.
</event>
<event>
 5   0  0.7212170E+07  0.9118800E+02  0.7818608E-02  0.1180000E+00
       11   -1    0    0    0    0  0.00000000000E+00  0.00000000000E+00  0.39999999673E+01  0.40000000000E+01  0.51109989000E-03 0. -1.
     -623   -1    0    0    0    0  0.00000000000E+00  0.00000000000E+00  0.12525980253E-10  0.17130000000E+03  0.17130000000E+03 0.  1.
       11    1    1    2    0    0 -0.80257685424E-03 -0.11125598017E-02  0.86284374036E-02  0.87517469139E-02  0.51109989000E-03 0. -1.
     -623    1    1    2    0    0  0.70386378668E-03 -0.34788967617E-03  0.32399098892E-03  0.17130000000E+03  0.17130000000E+03 0.  1.
      622    1    1    2    0    0  0.98713067483E-04  0.14604494779E-02  0.39910475394E+01  0.39912482514E+01  0.40000000000E-01 0. -1.
</event>
<event>
 5   0  0.7212170E+07  0.9118800E+02  0.7818608E-02  0.1180000E+00
       11   -1    0    0    0    0  0.00000000000E+00  0.00000000000E+00  0.39999999673E+01  0.40000000000E+01  0.51109989000E-03 0. -1.
     -623   -1    0    0    0    0  0.00000000000E+00  0.00000000000E+00  0.12525980253E-10  0.17130000000E+03  0.17130000000E+03 0. -1.
       11    1    1    2    0    0 -0.77262347120E-02  0.11622610971E-01  0.38738482439E+00  0.38763648330E+00  0.51109989000E-03 0. -1.
     -623    1    1    2    0    0  0.19912820951E-01 -0.15577294621E-01  0.49768358659E-03  0.17130000187E+03  0.17130000000E+03 0. -1.
      622    1    1    2    0    0 -0.12186586234E-01  0.39546836461E-02  0.36121174584E+01  0.36123616494E+01  0.40000000000E-01 0. -1.
</event>
<event>
 5   0  0.7212170E+07  0.9118800E+02  0.7818608E-02  0.1180000E+00
       11   -1    0    0    0    0  0.00000000000E+00  0.00000000000E+00  0.39999999673E+01  0.40000000000E+01  0.51109989000E-03 0. -1.
     -623   -1    0    0    0    0  0.00000000000E+00  0.00000000000E+00  0.12525980253E-10  0.17130000000E+03  0.17130000000E+03 0.  1.
       11    1    1    2    0    0 -0.10664208390E-03  0.25906389931E-02  0.31753131608E-01  0.31862915324E-01  0.51109989000E-03 0. -1.
     -623    1    1    2    0    0 -0.30773748025E-03 -0.13507564480E-02  0.31158337519E-03  0.17130000001E+03  0.17130000000E+03 0.  1.
      622    1    1    2    0    0  0.41437956408E-03 -0.12398825454E-02  0.39679352516E+01  0.39681370780E+01  0.40000000000E-01 0. -1.
</event>
<event>
 5   0  0.7212170E+07  0.9118800E+02  0.7818608E-02  0.1180000E+00
       11   -1    0    0    0    0  0.00000000000E+00  0.00000000000E+00  0.39999999673E+01  0.40000000000E+01  0.51109989000E-03 0.  1.
     -623   -1    0    0    0    0  0.00000000000E+00  0.00000000000E+00  0.12525980253E-10  0.17130000000E+03  0.17130000000E+03 0. -1.
       11    1    1    2    0    0  0.35998452960E-02 -0.24909177527E-02  0.11589244882E+00  0.11597622374E+00  0.51109989000E-03 0.  1.
     -623    1    1    2    0    0  0.14072179358E-02  0.18455371546E-02  0.29301688741E-03  0.17130000002E+03  0.17130000000E+03 0. -1.
      622    1    1    2    0    0 -0.50070632315E-02  0.64538059854E-03  0.38838145009E+01  0.38840237595E+01  0.40000000000E-01 0.  1.
</event>
<event>
 5   0  0.7212170E+07  0.9118800E+02  0.7818608E-02  0.1180000E+00
       11   -1    0    0    0    0  0.00000000000E+00  0.00000000000E+00  0.39999999673E+01  0.40000000000E+01  0.51109989000E-03 0.  1.
     -623   -1    0    0    0    0  0.00000000000E+00  0.00000000000E+00  0.12525980253E-10  0.17130000000E+03  0.17130000000E+03 0. -1.
       11    1    1    2    0    0 -0.21556335371E-02 -0.13866829760E-01  0.44425807276E+00  0.44447995698E+00  0.51109989000E-03 0.  1.
     -623    1    1    2    0    0 -0.83530936129E-03  0.14654832642E-02  0.46975684063E-03  0.17130000001E+03  0.17130000000E+03 0. -1.
      622    1    1    2    0    0  0.29909428985E-02  0.12401346496E-01  0.35552721385E+01  0.35555200348E+01  0.40000000000E-01 0.  0.
</event>
<event>
 5   0  0.7212170E+07  0.9118800E+02  0.7818608E-02  0.1180000E+00
       11   -1    0    0    0    0  0.00000000000E+00  0.00000000000E+00  0.39999999673E+01  0.40000000000E+01  0.51109989000E-03 0. -1.
     -623   -1    0    0    0    0  0.00000000000E+00  0.00000000000E+00  0.12525980253E-10  0.17130000000E+03  0.17130000000E+03 0.  1.
       11    1    1    2    0    0  0.19741396095E-03 -0.66062639380E-03  0.16975601954E-01  0.16997284616E-01  0.51109989000E-03 0. -1.
     -623    1    1    2    0    0 -0.86594893721E-03  0.26269282378E-03  0.22258709966E-03  0.17130000000E+03  0.17130000000E+03 0.  1.
      622    1    1    2    0    0  0.66853497671E-03  0.39793356988E-03  0.39828017804E+01  0.39830027149E+01  0.40000000000E-01 0. -1.
</event>
<event>
 5   0  0.7212170E+07  0.9118800E+02  0.7818608E-02  0.1180000E+00
       11   -1    0    0    0    0  0.00000000000E+00  0.00000000000E+00  0.39999999673E+01  0.40000000000E+01  0.51109989000E-03 0. -1.
     -623   -1    0    0    0    0  0.00000000000E+00  0.00000000000E+00  0.12525980253E-10  0.17130000000E+03  0.17130000000E+03 0. -1.
       11    1    1    2    0    0  0.35867817703E-02 -0.11091179296E-01  0.19836789622E+01  0.19837132770E+01  0.51109989000E-03 0. -1.
     -623    1    1    2    0    0 -0.21720994986E-02  0.38867741208E-03  0.46001182403E-03  0.17130000001E+03  0.17130000000E+03 0. -1.
      622    1    1    2    0    0 -0.14146822722E-02  0.10702501884E-01  0.20158609925E+01  0.20162867073E+01  0.40000000000E-01 0. -1.
</event>
<event>
 5   0  0.7212170E+07  0.9118800E+02  0.7818608E-02  0.1180000E+00
       11   -1    0    0    0    0  0.00000000000E+00  0.00000000000E+00  0.39999999673E+01  0.40000000000E+01  0.51109989000E-03 0. -1.
     -623   -1    0    0    0    0  0.00000000000E+00  0.00000000000E+00  0.12525980253E-10  0.17130000000E+03  0.17130000000E+03 0. -1.
       11    1    1    2    0    0 -0.65114354320E-02 -0.65829885438E-02  0.64564937597E-01  0.65227501252E-01  0.51109989000E-03 0. -1.
     -623    1    1    2    0    0  0.16062095166E-02 -0.45301990998E-02  0.88467374031E-03  0.17130000007E+03  0.17130000000E+03 0. -1.
      622    1    1    2    0    0  0.49052259156E-02  0.11113187643E-01  0.39345503557E+01  0.39347724287E+01  0.40000000000E-01 0. -1.
</event>
<event>
 5   0  0.7212170E+07  0.9118800E+02  0.7818608E-02  0.1180000E+00
       11   -1    0    0    0    0  0.00000000000E+00  0.00000000000E+00  0.39999999673E+01  0.40000000000E+01  0.51109989000E-03 0. -1.
     -623   -1    0    0    0    0  0.00000000000E+00  0.00000000000E+00  0.12525980253E-10  0.17130000000E+03  0.17130000000E+03 0.  1.
       11    1    1    2    0    0 -0.92854952352E-03 -0.10423633012E-01  0.93226878530E-01  0.93813785943E-01  0.51109989000E-03 0. -1.
     -623    1    1    2    0    0 -0.12539796793E-02 -0.40602404243E-02  0.81920203299E-03  0.17130000005E+03  0.17130000000E+03 0.  1.
      622    1    1    2    0    0  0.21825292029E-02  0.14483873436E-01  0.39059538869E+01  0.39061861595E+01  0.40000000000E-01 0. -1.
</event>
<event>
 5   0  0.7212170E+07  0.9118800E+02  0.7818608E-02  0.1180000E+00
       11   -1    0    0    0    0  0.00000000000E+00  0.00000000000E+00  0.39999999673E+01  0.40000000000E+01  0.51109989000E-03 0. -1.
     -623   -1    0    0    0    0  0.00000000000E+00  0.00000000000E+00  0.12525980253E-10  0.17130000000E+03  0.17130000000E+03 0. -1.
       11    1    1    2    0    0  0.22467316300E-02 -0.12616847156E-02  0.42257001386E-02  0.49756824755E-02  0.51109989000E-03 0. -1.
     -623    1    1    2    0    0 -0.97589478418E-03  0.15198668124E-02  0.95042645228E-03  0.17130000001E+03  0.17130000000E+03 0. -1.
      622    1    1    2    0    0 -0.12708368458E-02 -0.25818209678E-03  0.39948238408E+01  0.39950243054E+01  0.40000000000E-01 0. -1.
</event>
<event>
 5   0  0.7212170E+07  0.9118800E+02  0.7818608E-02  0.1180000E+00
       11   -1    0    0    0    0  0.00000000000E+00  0.00000000000E+00  0.39999999673E+01  0.40000000000E+01  0.51109989000E-03 0.  1.
     -623   -1    0    0    0    0  0.00000000000E+00  0.00000000000E+00  0.12525980253E-10  0.17130000000E+03  0.17130000000E+03 0.  1.
       11    1    1    2    0    0  0.37031694969E-03  0.56346754396E-03  0.88621278803E-02  0.89024246125E-02  0.51109989000E-03 0.  1.
     -623    1    1    2    0    0 -0.55000405535E-03  0.24180215690E-02  0.24185110008E-03  0.17130000002E+03  0.17130000000E+03 0.  1.
      622    1    1    2    0    0  0.17968710559E-03 -0.29814891127E-02  0.39908959879E+01  0.39910975568E+01  0.40000000000E-01 0.  1.
</event>
<event>
 5   0  0.7212170E+07  0.9118800E+02  0.7818608E-02  0.1180000E+00
       11   -1    0    0    0    0  0.00000000000E+00  0.00000000000E+00  0.39999999673E+01  0.40000000000E+01  0.51109989000E-03 0. -1.
     -623   -1    0    0    0    0  0.00000000000E+00  0.00000000000E+00  0.12525980253E-10  0.17130000000E+03  0.17130000000E+03 0.  1.
       11    1    1    2    0    0 -0.60910379387E-02  0.10119443445E-01  0.10125470636E+00  0.10194253608E+00  0.51109989000E-03 0. -1.
     -623    1    1    2    0    0 -0.13624388777E-02  0.20742787574E-03  0.91384709429E-03  0.17130000001E+03  0.17130000000E+03 0.  1.
      622    1    1    2    0    0  0.74534768165E-02 -0.10326871321E-01  0.38978314139E+01  0.38980574560E+01  0.40000000000E-01 0. -1.
</event>
<event>
 5   0  0.7212170E+07  0.9118800E+02  0.7818608E-02  0.1180000E+00
       11   -1    0    0    0    0  0.00000000000E+00  0.00000000000E+00  0.39999999673E+01  0.40000000000E+01  0.51109989000E-03 0. -1.
     -623   -1    0    0    0    0  0.00000000000E+00  0.00000000000E+00  0.12525980253E-10  0.17130000000E+03  0.17130000000E+03 0.  1.
       11    1    1    2    0    0 -0.80212919102E-04  0.61840124869E-03  0.17316930981E-02  0.19101932625E-02  0.51109989000E-03 0. -1.
     -623    1    1    2    0    0 -0.17230023845E-03 -0.84102493327E-03  0.37858482978E-03  0.17130000000E+03  0.17130000000E+03 0.  1.
      622    1    1    2    0    0  0.25251315755E-03  0.22262368457E-03  0.39978896894E+01  0.39980898041E+01  0.40000000000E-01 0. -1.
</event>
<event>
 5   0  0.7212170E+07  0.9118800E+02  0.7818608E-02  0.1180000E+00
       11   -1    0    0    0    0  0.00000000000E+00  0.00000000000E+00  0.39999999673E+01  0.40000000000E+01  0.51109989000E-03 0.  1.
     -623   -1    0    0    0    0  0.00000000000E+00  0.00000000000E+00  0.12525980253E-10  0.17130000000E+03  0.17130000000E+03 0.  1.
       11    1    1    2    0    0  0.18518156995E-02  0.25567380176E-02  0.36413943002E-01  0.36554105087E-01  0.51109989000E-03 0.  1.
     -623    1    1    2    0    0 -0.45138972297E-02 -0.20391349788E-02  0.34297895312E-03  0.17130000007E+03  0.17130000000E+03 0.  1.
      622    1    1    2    0    0  0.26620815301E-02 -0.51760303887E-03  0.39632430453E+01  0.39634458229E+01  0.40000000000E-01 0.  1.
</event>
<event>
 5   0  0.7212170E+07  0.9118800E+02  0.7818608E-02  0.1180000E+00
       11   -1    0    0    0    0  0.00000000000E+00  0.00000000000E+00  0.39999999673E+01  0.40000000000E+01  0.51109989000E-03 0.  1.
     -623   -1    0    0    0    0  0.00000000000E+00  0.00000000000E+00  0.12525980253E-10  0.17130000000E+03  0.17130000000E+03 0.  1.
       11    1    1    2    0    0 -0.16342119615E-02 -0.32196092451E-03  0.52569516819E-02  0.55381469514E-02  0.51109989000E-03 0.  1.
     -623    1    1    2    0    0  0.13352515269E-02  0.11375207565E-02  0.48154904977E-03  0.17130000001E+03  0.17130000000E+03 0.  1.
      622    1    1    2    0    0  0.29896043442E-03 -0.81555983212E-03  0.39942614671E+01  0.39944618438E+01  0.40000000000E-01 0.  1.
</event>
<event>
 5   0  0.7212170E+07  0.9118800E+02  0.7818608E-02  0.1180000E+00
       11   -1    0    0    0    0  0.00000000000E+00  0.00000000000E+00  0.39999999673E+01  0.40000000000E+01  0.51109989000E-03 0. -1.
     -623   -1    0    0    0    0  0.00000000000E+00  0.00000000000E+00  0.12525980253E-10  0.17130000000E+03  0.17130000000E+03 0. -1.
       11    1    1    2    0    0  0.36309609344E-01  0.26912028232E-02  0.12370364058E+01  0.12375722043E+01  0.51109989000E-03 0. -1.
     -623    1    1    2    0    0 -0.19424093190E-02 -0.24287825088E-02  0.10392360419E-02  0.17130000003E+03  0.17130000000E+03 0. -1.
      622    1    1    2    0    0 -0.34367200025E-01 -0.26242031429E-03  0.27619243257E+01  0.27624277645E+01  0.40000000000E-01 0. -1.
</event>
<event>
 5   0  0.7212170E+07  0.9118800E+02  0.7818608E-02  0.1180000E+00
       11   -1    0    0    0    0  0.00000000000E+00  0.00000000000E+00  0.39999999673E+01  0.40000000000E+01  0.51109989000E-03 0. -1.
     -623   -1    0    0    0    0  0.00000000000E+00  0.00000000000E+00  0.12525980253E-10  0.17130000000E+03  0.17130000000E+03 0.  1.
       11    1    1    2    0    0  0.34897127716E-01  0.61647757314E-01  0.23234903692E+01  0.23245700704E+01  0.51109989000E-03 0. -1.
     -623    1    1    2    0    0 -0.16462787144E-01 -0.93669570122E-02  0.24759148390E-02  0.17130000107E+03  0.17130000000E+03 0.  1.
      622    1    1    2    0    0 -0.18434340572E-01 -0.52280800302E-01  0.16740336834E+01  0.16754288646E+01  0.40000000000E-01 0.  0.
</event>
<event>
 5   0  0.7212170E+07  0.9118800E+02  0.7818608E-02  0.1180000E+00
       11   -1    0    0    0    0  0.00000000000E+00  0.00000000000E+00  0.39999999673E+01  0.40000000000E+01  0.51109989000E-03 0. -1.
     -623   -1    0    0    0    0  0.00000000000E+00  0.00000000000E+00  0.12525980253E-10  0.17130000000E+03  0.17130000000E+03 0.  1.
       11    1    1    2    0    0 -0.16006325833E-01 -0.33050084809E-01  0.14361499927E+01  0.14366194949E+01  0.51109989000E-03 0. -1.
     -623    1    1    2    0    0  0.19814659239E-02 -0.18955195201E-02  0.10582171552E-02  0.17130000003E+03  0.17130000000E+03 0.  1.
      622    1    1    2    0    0  0.14024859909E-01  0.34945604329E-01  0.25627917576E+01  0.25633804799E+01  0.40000000000E-01 0. -1.
</event>
<event>
 5   0  0.7212170E+07  0.9118800E+02  0.7818608E-02  0.1180000E+00
       11   -1    0    0    0    0  0.00000000000E+00  0.00000000000E+00  0.39999999673E+01  0.40000000000E+01  0.51109989000E-03 0. -1.
     -623   -1    0    0    0    0  0.00000000000E+00  0.00000000000E+00  0.12525980253E-10  0.17130000000E+03  0.17130000000E+03 0. -1.
       11    1    1    2    0    0  0.16785496814E-01 -0.29641037677E-01  0.21487347591E+00  0.21755738528E+00  0.51109989000E-03 0. -1.
     -623    1    1    2    0    0 -0.20504045264E-01  0.52100590377E-01  0.29730759224E-02  0.17130000918E+03  0.17130000000E+03 0. -1.
      622    1    1    2    0    0  0.37185484494E-02 -0.22459552699E-01  0.37821534155E+01  0.37824334386E+01  0.40000000000E-01 0. -1.
</event>
<event>
 5   0  0.7212170E+07  0.9118800E+02  0.7818608E-02  0.1180000E+00
       11   -1    0    0    0    0  0.00000000000E+00  0.00000000000E+00  0.39999999673E+01  0.40000000000E+01  0.51109989000E-03 0. -1.
     -623   -1    0    0    0    0  0.00000000000E+00  0.00000000000E+00  0.12525980253E-10  0.17130000000E+03  0.17130000000E+03 0. -1.
       11    1    1    2    0    0 -0.42940282859E-02 -0.35506192007E-02  0.10717848344E+00  0.10732443390E+00  0.51109989000E-03 0. -1.
     -623    1    1    2    0    0  0.21925969640E-01 -0.17381741678E-03  0.39455753331E-03  0.17130000140E+03  0.17130000000E+03 0. -1.
      622    1    1    2    0    0 -0.17631941356E-01  0.37244366175E-02  0.38924269268E+01  0.38926741627E+01  0.40000000000E-01 0. -1.
</event>
<event>
 5   0  0.7212170E+07  0.9118800E+02  0.7818608E-02  0.1180000E+00
       11   -1    0    0    0    0  0.00000000000E+00  0.00000000000E+00  0.39999999673E+01  0.40000000000E+01  0.51109989000E-03 0.  1.
     -623   -1    0    0    0    0  0.00000000000E+00  0.00000000000E+00  0.12525980253E-10  0.17130000000E+03  0.17130000000E+03 0. -1.
       11    1    1    2    0    0 -0.15680041130E-03 -0.31727779760E-03  0.12183957416E-02  0.13678314409E-02  0.51109989000E-03 0.  1.
     -623    1    1    2    0    0 -0.26089047230E-03 -0.24185976002E-03  0.34953811699E-03  0.17130000000E+03  0.17130000000E+03 0. -1.
      622    1    1    2    0    0  0.41769088358E-03  0.55913755761E-03  0.39984320333E+01  0.39986321677E+01  0.40000000000E-01 0.  1.
</event>
<event>
 5   0  0.7212170E+07  0.9118800E+02  0.7818608E-02  0.1180000E+00
       11   -1    0    0    0    0  0.00000000000E+00  0.00000000000E+00  0.39999999673E+01  0.40000000000E+01  0.51109989000E-03 0.  1.
     -623   -1    0    0    0    0  0.00000000000E+00  0.00000000000E+00  0.12525980253E-10  0.17130000000E+03  0.17130000000E+03 0. -1.
       11    1    1    2    0    0 -0.46569692242E-02 -0.32261247919E-03  0.72170876510E-01  0.72323496047E-01  0.51109989000E-03 0.  1.
     -623    1    1    2    0    0  0.72174876787E-02 -0.20631111325E-03  0.35729777681E-03  0.17130000015E+03  0.17130000000E+03 0. -1.
      622    1    1    2    0    0 -0.25605184567E-02  0.52892359250E-03  0.39274717943E+01  0.39276763526E+01  0.40000000000E-01 0.  1.
</event>
<event>
 5   0  0.7212170E+07  0.9118800E+02  0.7818608E-02  0.1180000E+00
       11   -1    0    0    0    0  0.00000000000E+00  0.00000000000E+00  0.39999999673E+01  0.40000000000E+01  0.51109989000E-03 0. -1.
     -623   -1    0    0    0    0  0.00000000000E+00  0.00000000000E+00  0.12525980253E-10  0.17130000000E+03  0.17130000000E+03 0.  1.
       11    1    1    2    0    0  0.18101589599E-02 -0.14668992540E-02  0.18639196812E-01  0.18791204054E-01  0.51109989000E-03 0. -1.
     -623    1    1    2    0    0 -0.30532888818E-02  0.46945973544E-02  0.35451814020E-03  0.17130000009E+03  0.17130000000E+03 0.  1.
      622    1    1    2    0    0  0.12431299212E-02 -0.32276980993E-02  0.39810062514E+01  0.39812087031E+01  0.40000000000E-01 0. -1.
</event>
<event>
 5   0  0.7212170E+07  0.9118800E+02  0.7818608E-02  0.1180000E+00
       11   -1    0    0    0    0  0.00000000000E+00  0.00000000000E+00  0.39999999673E+01  0.40000000000E+01  0.51109989000E-03 0. -1.
     -623   -1    0    0    0    0  0.00000000000E+00  0.00000000000E+00  0.12525980253E-10  0.17130000000E+03  0.17130000000E+03 0.  1.
       11    1    1    2    0    0 -0.12274824403E-02 -0.21669474275E-02  0.20182041462E-02  0.32460353307E-02  0.51109989000E-03 0. -1.
     -623    1    1    2    0    0  0.42950081137E-02 -0.61111370427E-03  0.14301696618E-02  0.17130000006E+03  0.17130000000E+03 0.  1.
      622    1    1    2    0    0 -0.30675256738E-02  0.27780611318E-02  0.39965515939E+01  0.39967539042E+01  0.40000000000E-01 0. -1.
</event>
<event>
 5   0  0.7212170E+07  0.9118800E+02  0.7818608E-02  0.1180000E+00
       11   -1    0    0    0    0  0.00000000000E+00  0.00000000000E+00  0.39999999673E+01  0.40000000000E+01  0.51109989000E-03 0. -1.
     -623   -1    0    0    0    0  0.00000000000E+00  0.00000000000E+00  0.12525980253E-10  0.17130000000E+03  0.17130000000E+03 0.  1.
       11    1    1    2    0    0 -0.27957208157E-02  0.11680044613E-02  0.21839895797E-01  0.22054989477E-01  0.51109989000E-03 0. -1.
     -623    1    1    2    0    0 -0.10074318151E-02 -0.12101136155E-02  0.41800106965E-03  0.17130000001E+03  0.17130000000E+03 0.  1.
      622    1    1    2    0    0  0.38031526308E-02  0.42109154326E-04  0.39777420709E+01  0.39779450032E+01  0.40000000000E-01 0. -1.
</event>
<event>
 5   0  0.7212170E+07  0.9118800E+02  0.7818608E-02  0.1180000E+00
       11   -1    0    0    0    0  0.00000000000E+00  0.00000000000E+00  0.39999999673E+01  0.40000000000E+01  0.51109989000E-03 0. -1.
     -623   -1    0    0    0    0  0.00000000000E+00  0.00000000000E+00  0.12525980253E-10  0.17130000000E+03  0.17130000000E+03 0. -1.
       11    1    1    2    0    0 -0.56656104052E-03 -0.72771632738E-03  0.14712521643E-02  0.18100741682E-02  0.51109989000E-03 0. -1.
     -623    1    1    2    0    0  0.81635355625E-03  0.13865510119E-02  0.53895540903E-03  0.17130000001E+03  0.17130000000E+03 0. -1.
      622    1    1    2    0    0 -0.24979251591E-03 -0.65883468480E-03  0.39979897607E+01  0.39981899183E+01  0.40000000000E-01 0. -1.
</event>
<event>
 5   0  0.7212170E+07  0.9118800E+02  0.7818608E-02  0.1180000E+00
       11   -1    0    0    0    0  0.00000000000E+00  0.00000000000E+00  0.39999999673E+01  0.40000000000E+01  0.51109989000E-03 0. -1.
     -623   -1    0    0    0    0  0.00000000000E+00  0.00000000000E+00  0.12525980253E-10  0.17130000000E+03  0.17130000000E+03 0.  1.
       11    1    1    2    0    0 -0.52558116247E-01  0.38345044357E-01  0.12623582512E+01  0.12640337470E+01  0.51109989000E-03 0. -1.
     -623    1    1    2    0    0  0.44245912415E-01 -0.28236034927E-01  0.20072401186E-02  0.17130000805E+03  0.17130000000E+03 0.  1.
      622    1    1    2    0    0  0.83122038290E-02 -0.10109009428E-01  0.27356344763E+01  0.27359582001E+01  0.40000000000E-01 0.  0.
</event>
<event>
 5   0  0.7212170E+07  0.9118800E+02  0.7818608E-02  0.1180000E+00
       11   -1    0    0    0    0  0.00000000000E+00  0.00000000000E+00  0.39999999673E+01  0.40000000000E+01  0.51109989000E-03 0. -1.
     -623   -1    0    0    0    0  0.00000000000E+00  0.00000000000E+00  0.12525980253E-10  0.17130000000E+03  0.17130000000E+03 0.  1.
       11    1    1    2    0    0  0.73408919526E-02 -0.65175955677E-02  0.18892696035E+00  0.18918251853E+00  0.51109989000E-03 0. -1.
     -623    1    1    2    0    0 -0.14561736552E-02 -0.16916402408E-02  0.47886177592E-03  0.17130000002E+03  0.17130000000E+03 0.  1.
      622    1    1    2    0    0 -0.58847182972E-02  0.82092358087E-02  0.38105941457E+01  0.38108174667E+01  0.40000000000E-01 0. -1.
</event>
<event>
 5   0  0.7212170E+07  0.9118800E+02  0.7818608E-02  0.1180000E+00
       11   -1    0    0    0    0  0.00000000000E+00  0.00000000000E+00  0.39999999673E+01  0.40000000000E+01  0.51109989000E-03 0.  1.
     -623   -1    0    0    0    0  0.00000000000E+00  0.00000000000E+00  0.12525980253E-10  0.17130000000E+03  0.17130000000E+03 0. -1.
       11    1    1    2    0    0 -0.88673648635E-04 -0.49016952804E-03  0.25010631824E-02  0.26008977916E-02  0.51109989000E-03 0.  1.
     -623    1    1    2    0    0 -0.21770173532E-02  0.12190474210E-02  0.30066411818E-03  0.17130000002E+03  0.17130000000E+03 0. -1.
      622    1    1    2    0    0  0.22656910019E-02 -0.72887789301E-03  0.39971982403E+01  0.39973990840E+01  0.40000000000E-01 0.  1.
</event>
<event>
 5   0  0.7212170E+07  0.9118800E+02  0.7818608E-02  0.1180000E+00
       11   -1    0    0    0    0  0.00000000000E+00  0.00000000000E+00  0.39999999673E+01  0.40000000000E+01  0.51109989000E-03 0.  1.
     -623   -1    0    0    0    0  0.00000000000E+00  0.00000000000E+00  0.12525980253E-10  0.17130000000E+03  0.17130000000E+03 0. -1.
       11    1    1    2    0    0 -0.58176450187E-03 -0.23257740746E-02  0.64321597371E+00  0.64322064468E+00  0.51109989000E-03 0.  1.
     -623    1    1    2    0    0  0.30449761669E-03 -0.61904356880E-03  0.24427527522E-03  0.17130000000E+03  0.17130000000E+03 0. -1.
      622    1    1    2    0    0  0.27726688501E-03  0.29448176437E-02  0.33565397205E+01  0.33567793559E+01  0.40000000000E-01 0.  0.
</event>
<event>
 5   0  0.7212170E+07  0.9118800E+02  0.7818608E-02  0.1180000E+00
       11   -1    0    0    0    0  0.00000000000E+00  0.00000000000E+00  0.39999999673E+01  0.40000000000E+01  0.51109989000E-03 0.  1.
     -623   -1    0    0    0    0  0.00000000000E+00  0.00000000000E+00  0.12525980253E-10  0.17130000000E+03  0.17130000000E+03 0. -1.
       11    1    1    2    0    0 -0.71850719833E-02  0.51376911096E-02  0.10740759133E+00  0.10777139243E+00  0.51109989000E-03 0.  1.
     -623    1    1    2    0    0  0.74080503239E-02 -0.51600737791E-02  0.56955698113E-03  0.17130000024E+03  0.17130000000E+03 0. -1.
      622    1    1    2    0    0 -0.22297833982E-03  0.22382669012E-04  0.38920228187E+01  0.38922283683E+01  0.40000000000E-01 0.  1.
</event>
<event>
 5   0  0.7212170E+07  0.9118800E+02  0.7818608E-02  0.1180000E+00
       11   -1    0    0    0    0  0.00000000000E+00  0.00000000000E+00  0.39999999673E+01  0.40000000000E+01  0.51109989000E-03 0.  1.
     -623   -1    0    0    0    0  0.00000000000E+00  0.00000000000E+00  0.12525980253E-10  0.17130000000E+03  0.17130000000E+03 0.  1.
       11    1    1    2    0    0  0.24781215775E-02 -0.75170985551E-04  0.38623653457E-01  0.38706518400E-01  0.51109989000E-03 0.  1.
     -623    1    1    2    0    0 -0.19781243778E-02 -0.16392272705E-02  0.28521375147E-03  0.17130000002E+03  0.17130000000E+03 0.  1.
      622    1    1    2    0    0 -0.49999719888E-03  0.17143982568E-02  0.39610911018E+01  0.39612934637E+01  0.40000000000E-01 0.  1.
</event>
<event>
 5   0  0.7212170E+07  0.9118800E+02  0.7818608E-02  0.1180000E+00
       11   -1    0    0    0    0  0.00000000000E+00  0.00000000000E+00  0.39999999673E+01  0.40000000000E+01  0.51109989000E-03 0. -1.
     -623   -1    0    0    0    0  0.00000000000E+00  0.00000000000E+00  0.12525980253E-10  0.17130000000E+03  0.17130000000E+03 0. -1.
       11    1    1    2    0    0 -0.25376804982E-02 -0.15421481212E-02  0.21985344946E-01  0.22190868812E-01  0.51109989000E-03 0. -1.
     -623    1    1    2    0    0 -0.43486480306E-03 -0.12744383948E-02  0.40872577301E-03  0.17130000001E+03  0.17130000000E+03 0. -1.
      622    1    1    2    0    0  0.29725453014E-02  0.28165865163E-02  0.39776058976E+01  0.39778091264E+01  0.40000000000E-01 0. -1.
</event>
<event>
 5   0  0.7212170E+07  0.9118800E+02  0.7818608E-02  0.1180000E+00
       11   -1    0    0    0    0  0.00000000000E+00  0.00000000000E+00  0.39999999673E+01  0.40000000000E+01  0.51109989000E-03 0.  1.
     -623   -1    0    0    0    0  0.00000000000E+00  0.00000000000E+00  0.12525980253E-10  0.17130000000E+03  0.17130000000E+03 0.  1.
       11    1    1    2    0    0  0.10725425279E-01 -0.70441465304E-02  0.27217623803E+00  0.27247902767E+00  0.51109989000E-03 0.  1.
     -623    1    1    2    0    0  0.73049137814E-03  0.62468116102E-03  0.54051965153E-03  0.17130000000E+03  0.17130000000E+03 0.  1.
      622    1    1    2    0    0 -0.11455916657E-01  0.64194653694E-02  0.37272832092E+01  0.37275209683E+01  0.40000000000E-01 0.  1.
</event>
<event>
 5   0  0.7212170E+07  0.9118800E+02  0.7818608E-02  0.1180000E+00
       11   -1    0    0    0    0  0.00000000000E+00  0.00000000000E+00  0.39999999673E+01  0.40000000000E+01  0.51109989000E-03 0.  1.
     -623   -1    0    0    0    0  0.00000000000E+00  0.00000000000E+00  0.12525980253E-10  0.17130000000E+03  0.17130000000E+03 0. -1.
       11    1    1    2    0    0 -0.64150520225E-03  0.84395471918E-02  0.11268096712E+01  0.11268415745E+01  0.51109989000E-03 0.  1.
     -623    1    1    2    0    0 -0.20202727831E-03  0.25051390682E-04  0.32291754337E-03  0.17130000000E+03  0.17130000000E+03 0. -1.
      622    1    1    2    0    0  0.84353248056E-03 -0.84645985824E-02  0.28728673786E+01  0.28731584252E+01  0.40000000000E-01 0.  1.
</event>
<event>
 5   0  0.7212170E+07  0.9118800E+02  0.7818608E-02  0.1180000E+00
       11   -1    0    0    0    0  0.00000000000E+00  0.00000000000E+00  0.39999999673E+01  0.40000000000E+01  0.51109989000E-03 0.  1.
     -623   -1    0    0    0    0  0.00000000000E+00  0.00000000000E+00  0.12525980253E-10  0.17130000000E+03  0.17130000000E+03 0.  1.
       11    1    1    2    0    0 -0.66923835630E-02 -0.23918837122E-02  0.61152713223E-01  0.61566424803E-01  0.51109989000E-03 0.  1.
     -623    1    1    2    0    0 -0.12948485429E-02 -0.73845513513E-02  0.63721021669E-03  0.17130000017E+03  0.17130000000E+03 0.  1.
      622    1    1    2    0    0  0.79872321061E-02  0.97764350649E-02  0.39382100447E+01  0.39384334107E+01  0.40000000000E-01 0.  1.
</event>
<event>
 5   0  0.7212170E+07  0.9118800E+02  0.7818608E-02  0.1180000E+00
       11   -1    0    0    0    0  0.00000000000E+00  0.00000000000E+00  0.39999999673E+01  0.40000000000E+01  0.51109989000E-03 0. -1.
     -623   -1    0    0    0    0  0.00000000000E+00  0.00000000000E+00  0.12525980253E-10  0.17130000000E+03  0.17130000000E+03 0.  1.
       11    1    1    2    0    0 -0.27554996688E-02  0.16285192030E-02  0.13391823252E-01  0.13778497970E-01  0.51109989000E-03 0. -1.
     -623    1    1    2    0    0  0.19514322929E-02 -0.67568864291E-02  0.59086398938E-03  0.17130000015E+03  0.17130000000E+03 0.  1.
      622    1    1    2    0    0  0.80406737580E-03  0.51283672264E-02  0.39860172803E+01  0.39862213568E+01  0.40000000000E-01 0. -1.
</event>
<event>
 5   0  0.7212170E+07  0.9118800E+02  0.7818608E-02  0.1180000E+00
       11   -1    0    0    0    0  0.00000000000E+00  0.00000000000E+00  0.39999999673E+01  0.40000000000E+01  0.51109989000E-03 0. -1.
     -623   -1    0    0    0    0  0.00000000000E+00  0.00000000000E+00  0.12525980253E-10  0.17130000000E+03  0.17130000000E+03 0. -1.
       11    1    1    2    0    0  0.11260090588E-01  0.51733101350E-01  0.35389475563E+00  0.35783356844E+00  0.51109989000E-03 0. -1.
     -623    1    1    2    0    0  0.29358480154E-01  0.10701340296E-01  0.49231081920E-02  0.17130000292E+03  0.17130000000E+03 0. -1.
      622    1    1    2    0    0 -0.40618570742E-01 -0.62434441646E-01  0.36411821035E+01  0.36421635107E+01  0.40000000000E-01 0. -1.
</event>
<event>
 5   0  0.7212170E+07  0.9118800E+02  0.7818608E-02  0.1180000E+00
       11   -1    0    0    0    0  0.00000000000E+00  0.00000000000E+00  0.39999999673E+01  0.40000000000E+01  0.51109989000E-03 0.  1.
     -623   -1    0    0    0    0  0.00000000000E+00  0.00000000000E+00  0.12525980253E-10  0.17130000000E+03  0.17130000000E+03 0. -1.
       11    1    1    2    0    0  0.30169444922E-02 -0.16376633611E-02  0.31709842756E+00  0.31711741971E+00  0.51109989000E-03 0.  1.
     -623    1    1    2    0    0  0.28562140367E-02 -0.29498622182E-02  0.24377710773E-03  0.17130000005E+03  0.17130000000E+03 0. -1.
      622    1    1    2    0    0 -0.58731585303E-02  0.45875255807E-02  0.36826577646E+01  0.36828825328E+01  0.40000000000E-01 0.  1.
</event>
<event>
 5   0  0.7212170E+07  0.9118800E+02  0.7818608E-02  0.1180000E+00
       11   -1    0    0    0    0  0.00000000000E+00  0.00000000000E+00  0.39999999673E+01  0.40000000000E+01  0.51109989000E-03 0. -1.
     -623   -1    0    0    0    0  0.00000000000E+00  0.00000000000E+00  0.12525980253E-10  0.17130000000E+03  0.17130000000E+03 0. -1.
       11    1    1    2    0    0 -0.11748299513E-01  0.33350244978E-01  0.21515229199E+00  0.21803905924E+00  0.51109989000E-03 0. -1.
     -623    1    1    2    0    0 -0.12914249729E-01 -0.29391338203E-01  0.31838001458E-02  0.17130000304E+03  0.17130000000E+03 0. -1.
      622    1    1    2    0    0  0.24662549242E-01 -0.39589067736E-02  0.37816638754E+01  0.37819579031E+01  0.40000000000E-01 0. -1.
</event>
<event>
 5   0  0.7212170E+07  0.9118800E+02  0.7818608E-02  0.1180000E+00
       11   -1    0    0    0    0  0.00000000000E+00  0.00000000000E+00  0.39999999673E+01  0.40000000000E+01  0.51109989000E-03 0.  1.
     -623   -1    0    0    0    0  0.00000000000E+00  0.00000000000E+00  0.12525980253E-10  0.17130000000E+03  0.17130000000E+03 0.  1.
       11    1    1    2    0    0 -0.36820295292E-04 -0.71924342194E-04  0.13494943142E-01  0.13504859953E-01  0.51109989000E-03 0.  1.
     -623    1    1    2    0    0  0.46598075983E-04  0.88979347588E-04  0.21056695995E-03  0.17130000000E+03  0.17130000000E+03 0.  1.
      622    1    1    2    0    0 -0.97777806853E-05 -0.17055005384E-04  0.39862944568E+01  0.39864951394E+01  0.40000000000E-01 0.  1.
</event>
<event>
 5   0  0.7212170E+07  0.9118800E+02  0.7818608E-02  0.1180000E+00
       11   -1    0    0    0    0  0.00000000000E+00  0.00000000000E+00  0.39999999673E+01  0.40000000000E+01  0.51109989000E-03 0. -1.
     -623   -1    0    0    0    0  0.00000000000E+00  0.00000000000E+00  0.12525980253E-10  0.17130000000E+03  0.17130000000E+03 0.  1.
       11    1    1    2    0    0 -0.75721396671E-02 -0.14814425423E-02  0.99541931369E-02  0.12604727496E-01  0.51109989000E-03 0. -1.
     -623    1    1    2    0    0  0.32585783065E-02  0.14345492204E-01  0.28748801240E-02  0.17130000066E+03  0.17130000000E+03 0.  1.
      622    1    1    2    0    0  0.43135613606E-02 -0.12864049661E-01  0.39871708941E+01  0.39873946167E+01  0.40000000000E-01 0. -1.
</event>
<event>
 5   0  0.7212170E+07  0.9118800E+02  0.7818608E-02  0.1180000E+00
       11   -1    0    0    0    0  0.00000000000E+00  0.00000000000E+00  0.39999999673E+01  0.40000000000E+01  0.51109989000E-03 0.  1.
     -623   -1    0    0    0    0  0.00000000000E+00  0.00000000000E+00  0.12525980253E-10  0.17130000000E+03  0.17130000000E+03 0. -1.
       11    1    1    2    0    0 -0.80579842447E-03  0.53766133793E-03  0.63451717938E-03  0.12657906476E-02  0.51109989000E-03 0.  1.
     -623    1    1    2    0    0 -0.13520132960E-02 -0.76145966090E-03  0.83190668645E-03  0.17130000001E+03  0.17130000000E+03 0. -1.
      622    1    1    2    0    0  0.21578117205E-02  0.22379832298E-03  0.39985335436E+01  0.39987342004E+01  0.40000000000E-01 0.  1.
</event>
<event>
 5   0  0.7212170E+07  0.9118800E+02  0.7818608E-02  0.1180000E+00
       11   -1    0    0    0    0  0.00000000000E+00  0.00000000000E+00  0.39999999673E+01  0.40000000000E+01  0.51109989000E-03 0.  1.
     -623   -1    0    0    0    0  0.00000000000E+00  0.00000000000E+00  0.12525980253E-10  0.17130000000E+03  0.17130000000E+03 0. -1.
       11    1    1    2    0    0  0.16156583371E-01  0.64947127051E-03  0.15262485069E+01  0.15263342435E+01  0.51109989000E-03 0.  1.
     -623    1    1    2    0    0 -0.44238667134E-02  0.50755716195E-02  0.44371891021E-03  0.17130000013E+03  0.17130000000E+03 0. -1.
      622    1    1    2    0    0 -0.11732716657E-01 -0.57250428903E-02  0.24733077418E+01  0.24736656238E+01  0.40000000000E-01 0.  1.
</event>
<event>
 5   0  0.7212170E+07  0.9118800E+02  0.7818608E-02  0.1180000E+00
       11   -1    0    0    0    0  0.00000000000E+00  0.00000000000E+00  0.39999999673E+01  0.40000000000E+01  0.51109989000E-03 0.  1.
     -623   -1    0    0    0    0  0.00000000000E+00  0.00000000000E+00  0.12525980253E-10  0.17130000000E+03  0.17130000000E+03 0.  1.
       11    1    1    2    0    0 -0.80782170331E-02 -0.35037517757E-02  0.33872428713E+00  0.33883910309E+00  0.51109989000E-03 0.  1.
     -623    1    1    2    0    0 -0.50118921913E-03 -0.63303320375E-03  0.34569218234E-03  0.17130000000E+03  0.17130000000E+03 0.  1.
      622    1    1    2    0    0  0.85794062523E-02  0.41367849795E-02  0.36609299885E+01  0.36611608951E+01  0.40000000000E-01 0.  1.
</event>
<event>
 5   0  0.7212170E+07  0.9118800E+02  0.7818608E-02  0.1180000E+00
       11   -1    0    0    0    0  0.00000000000E+00  0.00000000000E+00  0.39999999673E+01  0.40000000000E+01  0.51109989000E-03 0.  1.
     -623   -1    0    0    0    0  0.00000000000E+00  0.00000000000E+00  0.12525980253E-10  0.17130000000E+03  0.17130000000E+03 0. -1.
       11    1    1    2    0    0  0.22659736457E-02  0.20557773330E-03  0.51000095956E-02  0.56078712307E-02  0.51109989000E-03 0.  1.
     -623    1    1    2    0    0 -0.70338641066E-03  0.11917779696E-02  0.70867194362E-03  0.17130000001E+03  0.17130000000E+03 0. -1.
      622    1    1    2    0    0 -0.15625872350E-02 -0.13973557030E-02  0.39941912861E+01  0.39943921220E+01  0.40000000000E-01 0.  1.
</event>
<event>
 5   0  0.7212170E+07  0.9118800E+02  0.7818608E-02  0.1180000E+00
       11   -1    0    0    0    0  0.00000000000E+00  0.00000000000E+00  0.39999999673E+01  0.40000000000E+01  0.51109989000E-03 0. -1.
     -623   -1    0    0    0    0  0.00000000000E+00  0.00000000000E+00  0.12525980253E-10  0.17130000000E+03  0.17130000000E+03 0. -1.
       11    1    1    2    0    0 -0.21669813507E-01  0.15954270764E-01  0.74116561563E+00  0.74165413138E+00  0.51109989000E-03 0. -1.
     -623    1    1    2    0    0  0.33449504267E-01 -0.28729357972E-01  0.78603381860E-03  0.17130000568E+03  0.17130000000E+03 0. -1.
      622    1    1    2    0    0 -0.11779690759E-01  0.12775087207E-01  0.32580483179E+01  0.32583401918E+01  0.40000000000E-01 0. -1.
</event>
<event>
 5   0  0.7212170E+07  0.9118800E+02  0.7818608E-02  0.1180000E+00
       11   -1    0    0    0    0  0.00000000000E+00  0.00000000000E+00  0.39999999673E+01  0.40000000000E+01  0.51109989000E-03 0. -1.
     -623   -1    0    0    0    0  0.00000000000E+00  0.00000000000E+00  0.12525980253E-10  0.17130000000E+03  0.17130000000E+03 0.  1.
       11    1    1    2    0    0  0.10414004110E-02 -0.44133445555E-02  0.90416858021E+00  0.90418009533E+00  0.51109989000E-03 0. -1.
     -623    1    1    2    0    0  0.17575629832E-03  0.53728256437E-02  0.27037878525E-03  0.17130000008E+03  0.17130000000E+03 0.  1.
      622    1    1    2    0    0 -0.12171567093E-02 -0.95948108890E-03  0.30955610089E+01  0.30958198206E+01  0.40000000000E-01 0. -1.
</event>
<event>
 5   0  0.7212170E+07  0.9118800E+02  0.7818608E-02  0.1180000E+00
       11   -1    0    0    0    0  0.00000000000E+00  0.00000000000E+00  0.39999999673E+01  0.40000000000E+01  0.51109989000E-03 0.  1.
     -623   -1    0    0    0    0  0.00000000000E+00  0.00000000000E+00  0.12525980253E-10  0.17130000000E+03  0.17130000000E+03 0.  1.
       11    1    1    2    0    0  0.89004528983E-01 -0.44485702223E-02  0.29170849883E+01  0.29184459368E+01  0.51109989000E-03 0.  1.
     -623    1    1    2    0    0 -0.46784045811E-01  0.75689922485E-02  0.29369006226E-02  0.17130000658E+03  0.17130000000E+03 0.  1.
      622    1    1    2    0    0 -0.42220483170E-01 -0.31204220264E-02  0.10799780786E+01  0.10815474823E+01  0.40000000000E-01 0.  0.
</event>
<event>
 5   0  0.7212170E+07  0.9118800E+02  0.7818608E-02  0.1180000E+00
       11   -1    0    0    0    0  0.00000000000E+00  0.00000000000E+00  0.39999999673E+01  0.40000000000E+01  0.51109989000E-03 0.  1.
     -623   -1    0    0    0    0  0.00000000000E+00  0.00000000000E+00  0.12525980253E-10  0.17130000000E+03  0.17130000000E+03 0.  1.
       11    1    1    2    0    0  0.32306524338E-02 -0.79761365964E-03  0.21062666807E+00  0.21065357303E+00  0.51109989000E-03 0.  1.
     -623    1    1    2    0    0 -0.16489588404E-02  0.93876779458E-03  0.23833982340E-03  0.17130000001E+03  0.17130000000E+03 0.  1.
      622    1    1    2    0    0 -0.15816935935E-02 -0.14115413491E-03  0.37891349593E+01  0.37893464162E+01  0.40000000000E-01 0.  1.
</event>
<event>
 5   0  0.7212170E+07  0.9118800E+02  0.7818608E-02  0.1180000E+00
       11   -1    0    0    0    0  0.00000000000E+00  0.00000000000E+00  0.39999999673E+01  0.40000000000E+01  0.51109989000E-03 0. -1.
     -623   -1    0    0    0    0  0.00000000000E+00  0.00000000000E+00  0.12525980253E-10  0.17130000000E+03  0.17130000000E+03 0.  1.
       11    1    1    2    0    0  0.10409771541E-01  0.25138564703E-02  0.82777253141E+00  0.82784195823E+00  0.51109989000E-03 0. -1.
     -623    1    1    2    0    0 -0.33991532688E-03 -0.54278971765E-03  0.33819684084E-03  0.17130000000E+03  0.17130000000E+03 0.  1.
      622    1    1    2    0    0 -0.10069856214E-01 -0.19710667526E-02  0.31718892393E+01  0.31721580404E+01  0.40000000000E-01 0. -1.
</event>
<event>
 5   0  0.7212170E+07  0.9118800E+02  0.7818608E-02  0.1180000E+00
       11   -1    0    0    0    0  0.00000000000E+00  0.00000000000E+00  0.39999999673E+01  0.40000000000E+01  0.51109989000E-03 0. -1.
     -623   -1    0    0    0    0  0.00000000000E+00  0.00000000000E+00  0.12525980253E-10  0.17130000000E+03  0.17130000000E+03 0.  1.
       11    1    1    2    0    0  0.89205669341E-03 -0.36015175151E-02  0.32733475399E-01  0.32947053409E-01  0.51109989000E-03 0. -1.
     -623    1    1    2    0    0  0.33773645565E-02  0.25478838582E-02  0.41770174792E-03  0.17130000005E+03  0.17130000000E+03 0.  1.
      622    1    1    2    0    0 -0.42694212498E-02  0.10536336570E-02  0.39668487900E+01  0.39670528937E+01  0.40000000000E-01 0. -1.
</event>
<event>
 5   0  0.7212170E+07  0.9118800E+02  0.7818608E-02  0.1180000E+00
       11   -1    0    0    0    0  0.00000000000E+00  0.00000000000E+00  0.39999999673E+01  0.40000000000E+01  0.51109989000E-03 0.  1.
     -623   -1    0    0    0    0  0.00000000000E+00  0.00000000000E+00  0.12525980253E-10  0.17130000000E+03  0.17130000000E+03 0.  1.
       11    1    1    2    0    0  0.96275115574E-04  0.10350198337E-02  0.43205515905E-02  0.44731335882E-02  0.51109989000E-03 0.  1.
     -623    1    1    2    0    0  0.16604531423E-03 -0.57529054225E-03  0.35281475292E-03  0.17130000000E+03  0.17130000000E+03 0.  1.
      622    1    1    2    0    0 -0.26232042981E-03 -0.45972929142E-03  0.39953266012E+01  0.39955268652E+01  0.40000000000E-01 0.  1.
</event>
<event>
 5   0  0.7212170E+07  0.9118800E+02  0.7818608E-02  0.1180000E+00
       11   -1    0    0    0    0  0.00000000000E+00  0.00000000000E+00  0.39999999673E+01  0.40000000000E+01  0.51109989000E-03 0.  1.
     -623   -1    0    0    0    0  0.00000000000E+00  0.00000000000E+00  0.12525980253E-10  0.17130000000E+03  0.17130000000E+03 0.  1.
       11    1    1    2    0    0  0.12105053757E-02 -0.57075890713E-03  0.56875352488E-02  0.58651828018E-02  0.51109989000E-03 0.  1.
     -623    1    1    2    0    0 -0.67339383512E-03 -0.74987072632E-03  0.37817146227E-03  0.17130000000E+03  0.17130000000E+03 0.  1.
      622    1    1    2    0    0 -0.53711154062E-03  0.13206296334E-02  0.39939342605E+01  0.39941348136E+01  0.40000000000E-01 0.  1.
</event>
<event>
 5   0  0.7212170E+07  0.9118800E+02  0.7818608E-02  0.1180000E+00
       11   -1    0    0    0    0  0.00000000000E+00  0.00000000000E+00  0.39999999673E+01  0.40000000000E+01  0.51109989000E-03 0.  1.
     -623   -1    0    0    0    0  0.00000000000E+00  0.00000000000E+00  0.12525980253E-10  0.17130000000E+03  0.17130000000E+03 0. -1.
       11    1    1    2    0    0  0.21190824632E-02  0.45435777245E-02  0.22776118555E+00  0.22781692974E+00  0.51109989000E-03 0.  1.
     -623    1    1    2    0    0  0.52765750949E-03 -0.14621869192E-02  0.26999077356E-03  0.17130000001E+03  0.17130000000E+03 0. -1.
      622    1    1    2    0    0 -0.26467399726E-02 -0.30813908054E-02  0.37719687907E+01  0.37721830627E+01  0.40000000000E-01 0.  1.
</event>
<event>
 5   0  0.7212170E+07  0.9118800E+02  0.7818608E-02  0.1180000E+00
       11   -1    0    0    0    0  0.00000000000E+00  0.00000000000E+00  0.39999999673E+01  0.40000000000E+01  0.51109989000E-03 0.  1.
     -623   -1    0    0    0    0  0.00000000000E+00  0.00000000000E+00  0.12525980253E-10  0.17130000000E+03  0.17130000000E+03 0. -1.
       11    1    1    2    0    0  0.64230315026E-02  0.54158341409E-02  0.28298267336E-01  0.29523545695E-01  0.51109989000E-03 0.  1.
     -623    1    1    2    0    0 -0.14711497034E-02 -0.10151157925E-02  0.14322803080E-02  0.17130000002E+03  0.17130000000E+03 0. -1.
      622    1    1    2    0    0 -0.49518817992E-02 -0.44007183484E-02  0.39702694196E+01  0.39704764389E+01  0.40000000000E-01 0.  1.
</event>
<event>
 5   0  0.7212170E+07  0.9118800E+02  0.7818608E-02  0.1180000E+00
       11   -1    0    0    0    0  0.00000000000E+00  0.00000000000E+00  0.39999999673E+01  0.40000000000E+01  0.51109989000E-03 0. -1.
     -623   -1    0    0    0    0  0.00000000000E+00  0.00000000000E+00  0.12525980253E-10  0.17130000000E+03  0.17130000000E+03 0.  1.
       11    1    1    2    0    0  0.61379459667E-02  0.50671789839E-02  0.29253113697E+00  0.29263984350E+00  0.51109989000E-03 0. -1.
     -623    1    1    2    0    0  0.12519688603E-02 -0.62443097786E-02  0.33213836657E-03  0.17130000012E+03  0.17130000000E+03 0.  1.
      622    1    1    2    0    0 -0.73899148272E-02  0.11771307956E-02  0.37071366926E+01  0.37073600384E+01  0.40000000000E-01 0. -1.
</event>
<event>
 5   0  0.7212170E+07  0.9118800E+02  0.7818608E-02  0.1180000E+00
       11   -1    0    0    0    0  0.00000000000E+00  0.00000000000E+00  0.39999999673E+01  0.40000000000E+01  0.51109989000E-03 0.  1.
     -623   -1    0    0    0    0  0.00000000000E+00  0.00000000000E+00  0.12525980253E-10  0.17130000000E+03  0.17130000000E+03 0. -1.
       11    1    1    2    0    0  0.42021752092E-03  0.42067499969E-02  0.91386803076E-01  0.91485967928E-01  0.51109989000E-03 0.  1.
     -623    1    1    2    0    0 -0.14262923211E-02  0.28605698624E-03  0.30653724332E-03  0.17130000001E+03  0.17130000000E+03 0. -1.
      622    1    1    2    0    0  0.10060747999E-02 -0.44928069831E-02  0.39083066265E+01  0.39085140250E+01  0.40000000000E-01 0.  1.
</event>
<event>
 5   0  0.7212170E+07  0.9118800E+02  0.7818608E-02  0.1180000E+00
       11   -1    0    0    0    0  0.00000000000E+00  0.00000000000E+00  0.39999999673E+01  0.40000000000E+01  0.51109989000E-03 0. -1.
     -623   -1    0    0    0    0  0.00000000000E+00  0.00000000000E+00  0.12525980253E-10  0.17130000000E+03  0.17130000000E+03 0.  1.
       11    1    1    2    0    0 -0.29883162059E-01  0.24898396923E-01  0.33470375652E+00  0.33695667288E+00  0.51109989000E-03 0. -1.
     -623    1    1    2    0    0 -0.40165285750E-02 -0.70374894910E-02  0.26719250780E-02  0.17130000021E+03  0.17130000000E+03 0.  1.
      622    1    1    2    0    0  0.33899690634E-01 -0.17860907432E-01  0.36626242858E+01  0.36630431147E+01  0.40000000000E-01 0. -1.
</event>
<event>
 5   0  0.7212170E+07  0.9118800E+02  0.7818608E-02  0.1180000E+00
       11   -1    0    0    0    0  0.00000000000E+00  0.00000000000E+00  0.39999999673E+01  0.40000000000E+01  0.51109989000E-03 0. -1.
     -623   -1    0    0    0    0  0.00000000000E+00  0.00000000000E+00  0.12525980253E-10  0.17130000000E+03  0.17130000000E+03 0.  1.
       11    1    1    2    0    0 -0.41976839820E-02 -0.22561982583E-02  0.52426095085E+00  0.52428285953E+00  0.51109989000E-03 0. -1.
     -623    1    1    2    0    0  0.69133985027E-02  0.17349908754E-04  0.25397381960E-03  0.17130000014E+03  0.17130000000E+03 0.  1.
      622    1    1    2    0    0 -0.27157145218E-02  0.22388483496E-02  0.34754850433E+01  0.34757170014E+01  0.40000000000E-01 0. -1.
</event>
<event>
 5   0  0.7212170E+07  0.9118800E+02  0.7818608E-02  0.1180000E+00
       11   -1    0    0    0    0  0.00000000000E+00  0.00000000000E+00  0.39999999673E+01  0.40000000000E+01  0.51109989000E-03 0. -1.
     -623   -1    0    0    0    0  0.00000000000E+00  0.00000000000E+00  0.12525980253E-10  0.17130000000E+03  0.17130000000E+03 0. -1.
       11    1    1    2    0    0  0.50365438183E-03  0.12968072106E-01  0.44932419333E+00  0.44951186469E+00  0.51109989000E-03 0. -1.
     -623    1    1    2    0    0  0.30724941049E-02  0.25204794884E-02  0.44860053748E-03  0.17130000005E+03  0.17130000000E+03 0. -1.
      622    1    1    2    0    0 -0.35761484873E-02 -0.15488551595E-01  0.35502271742E+01  0.35504880893E+01  0.40000000000E-01 0. -1.
</event>
<event>
 5   0  0.7212170E+07  0.9118800E+02  0.7818608E-02  0.1180000E+00
       11   -1    0    0    0    0  0.00000000000E+00  0.00000000000E+00  0.39999999673E+01  0.40000000000E+01  0.51109989000E-03 0. -1.
     -623   -1    0    0    0    0  0.00000000000E+00  0.00000000000E+00  0.12525980253E-10  0.17130000000E+03  0.17130000000E+03 0.  1.
       11    1    1    2    0    0 -0.12498803732E-02 -0.14400222114E-02  0.58272632990E+00  0.58272967374E+00  0.51109989000E-03 0. -1.
     -623    1    1    2    0    0  0.19380730440E-02 -0.18645390617E-02  0.23911266515E-03  0.17130000002E+03  0.17130000000E+03 0.  1.
      622    1    1    2    0    0 -0.68819267093E-03  0.33045612731E-02  0.34170345250E+01  0.34172703051E+01  0.40000000000E-01 0. -1.
</event>
<event>
 5   0  0.7212170E+07  0.9118800E+02  0.7818608E-02  0.1180000E+00
       11   -1    0    0    0    0  0.00000000000E+00  0.00000000000E+00  0.39999999673E+01  0.40000000000E+01  0.51109989000E-03 0.  1.
     -623   -1    0    0    0    0  0.00000000000E+00  0.00000000000E+00  0.12525980253E-10  0.17130000000E+03  0.17130000000E+03 0.  1.
       11    1    1    2    0    0 -0.11632391309E-02  0.50382894584E-04  0.64858403199E+00  0.64858527846E+00  0.51109989000E-03 0.  1.
     -623    1    1    2    0    0  0.14671567114E-02 -0.62417198584E-03  0.23999799041E-03  0.17130000001E+03  0.17130000000E+03 0.  1.
      622    1    1    2    0    0 -0.30391758072E-03  0.57378909132E-03  0.33511759378E+01  0.33514147144E+01  0.40000000000E-01 0.  1.
</event>
<event>
 5   0  0.7212170E+07  0.9118800E+02  0.7818608E-02  0.1180000E+00
       11   -1    0    0    0    0  0.00000000000E+00  0.00000000000E+00  0.39999999673E+01  0.40000000000E+01  0.51109989000E-03 0.  1.
     -623   -1    0    0    0    0  0.00000000000E+00  0.00000000000E+00  0.12525980253E-10  0.17130000000E+03  0.17130000000E+03 0. -1.
       11    1    1    2    0    0 -0.81174607396E-02 -0.13900143502E-01  0.12485470683E+01  0.12486509321E+01  0.51109989000E-03 0.  1.
     -623    1    1    2    0    0 -0.99157069092E-02  0.55798506863E-02  0.46667799924E-03  0.17130000038E+03  0.17130000000E+03 0. -1.
      622    1    1    2    0    0  0.18033167652E-01  0.83202928137E-02  0.27509862222E+01  0.27513486906E+01  0.40000000000E-01 0. -1.
</event>
<event>
 5   0  0.7212170E+07  0.9118800E+02  0.7818608E-02  0.1180000E+00
       11   -1    0    0    0    0  0.00000000000E+00  0.00000000000E+00  0.39999999673E+01  0.40000000000E+01  0.51109989000E-03 0.  1.
     -623   -1    0    0    0    0  0.00000000000E+00  0.00000000000E+00  0.12525980253E-10  0.17130000000E+03  0.17130000000E+03 0. -1.
       11    1    1    2    0    0  0.44561507857E-03  0.16632782204E-02  0.70186608837E-01  0.70209588736E-01  0.51109989000E-03 0.  1.
     -623    1    1    2    0    0  0.19411014397E-03 -0.77539280936E-04  0.22689803254E-03  0.17130000000E+03  0.17130000000E+03 0. -1.
      622    1    1    2    0    0 -0.63972522256E-03 -0.15857389395E-02  0.39295864609E+01  0.39297904114E+01  0.40000000000E-01 0.  1.
</event>
<event>
 5   0  0.7212170E+07  0.9118800E+02  0.7818608E-02  0.1180000E+00
       11   -1    0    0    0    0  0.00000000000E+00  0.00000000000E+00  0.39999999673E+01  0.40000000000E+01  0.51109989000E-03 0.  1.
     -623   -1    0    0    0    0  0.00000000000E+00  0.00000000000E+00  0.12525980253E-10  0.17130000000E+03  0.17130000000E+03 0.  1.
       11    1    1    2    0    0  0.20877196629E-02  0.28749615041E-01  0.26936564636E+01  0.26938107402E+01  0.51109989000E-03 0.  1.
     -623    1    1    2    0    0  0.35169616385E-02 -0.14820149717E-02  0.10637145037E-02  0.17130000005E+03  0.17130000000E+03 0.  1.
      622    1    1    2    0    0 -0.56046813013E-02 -0.27267600070E-01  0.13052797891E+01  0.13061892139E+01  0.40000000000E-01 0. -1.
</event>
<event>
 5   0  0.7212170E+07  0.9118800E+02  0.7818608E-02  0.1180000E+00
       11   -1    0    0    0    0  0.00000000000E+00  0.00000000000E+00  0.39999999673E+01  0.40000000000E+01  0.51109989000E-03 0. -1.
     -623   -1    0    0    0    0  0.00000000000E+00  0.00000000000E+00  0.12525980253E-10  0.17130000000E+03  0.17130000000E+03 0.  1.
       11    1    1    2    0    0 -0.25607410084E-02 -0.10619473886E-02  0.42678621457E-01  0.42771615347E-01  0.51109989000E-03 0. -1.
     -623    1    1    2    0    0 -0.51176946856E-02  0.32016688851E-02  0.30326310865E-03  0.17130000011E+03  0.17130000000E+03 0.  1.
      622    1    1    2    0    0  0.76784356937E-02 -0.21397214963E-02  0.39570180826E+01  0.39572282778E+01  0.40000000000E-01 0. -1.
</event>
<event>
 5   0  0.7212170E+07  0.9118800E+02  0.7818608E-02  0.1180000E+00
       11   -1    0    0    0    0  0.00000000000E+00  0.00000000000E+00  0.39999999673E+01  0.40000000000E+01  0.51109989000E-03 0. -1.
     -623   -1    0    0    0    0  0.00000000000E+00  0.00000000000E+00  0.12525980253E-10  0.17130000000E+03  0.17130000000E+03 0. -1.
       11    1    1    2    0    0 -0.68151275710E-03  0.86891047196E-03  0.44926054566E-01  0.44942530715E-01  0.51109989000E-03 0. -1.
     -623    1    1    2    0    0 -0.33157022150E-04 -0.25954124280E-03  0.21883320094E-03  0.17130000000E+03  0.17130000000E+03 0. -1.
      622    1    1    2    0    0  0.71466977925E-03 -0.60936922915E-03  0.39548550797E+01  0.39550574690E+01  0.40000000000E-01 0. -1.
</event>
<event>
 5   0  0.7212170E+07  0.9118800E+02  0.7818608E-02  0.1180000E+00
       11   -1    0    0    0    0  0.00000000000E+00  0.00000000000E+00  0.39999999673E+01  0.40000000000E+01  0.51109989000E-03 0. -1.
     -623   -1    0    0    0    0  0.00000000000E+00  0.00000000000E+00  0.12525980253E-10  0.17130000000E+03  0.17130000000E+03 0. -1.
       11    1    1    2    0    0  0.18495458490E-03  0.29060161196E-03  0.26858515214E-02  0.27556630759E-02  0.51109989000E-03 0. -1.
     -623    1    1    2    0    0 -0.25511220344E-03 -0.24414628229E-03  0.26992326535E-03  0.17130000000E+03  0.17130000000E+03 0. -1.
      622    1    1    2    0    0  0.70157618596E-04 -0.46455329622E-04  0.39970441934E+01  0.39972443372E+01  0.40000000000E-01 0. -1.
</event>
<event>
 5   0  0.7212170E+07  0.9118800E+02  0.7818608E-02  0.1180000E+00
       11   -1    0    0    0    0  0.00000000000E+00  0.00000000000E+00  0.39999999673E+01  0.40000000000E+01  0.51109989000E-03 0.  1.
     -623   -1    0    0    0    0  0.00000000000E+00  0.00000000000E+00  0.12525980253E-10  0.17130000000E+03  0.17130000000E+03 0. -1.
       11    1    1    2    0    0 -0.22457578591E-02  0.41240723009E-02  0.17220250816E+00  0.17226728198E+00  0.51109989000E-03 0.  1.
     -623    1    1    2    0    0  0.29073396680E-02 -0.35336495366E-03  0.27568769811E-03  0.17130000003E+03  0.17130000000E+03 0. -1.
      622    1    1    2    0    0 -0.66158180837E-03 -0.37707073473E-02  0.38275217708E+01  0.38277326921E+01  0.40000000000E-01 0.  1.
</event>
<event>
 5   0  0.7212170E+07  0.9118800E+02  0.7818608E-02  0.1180000E+00
       11   -1    0    0    0    0  0.00000000000E+00  0.00000000000E+00  0.39999999673E+01  0.40000000000E+01  0.51109989000E-03 0. -1.
     -623   -1    0    0    0    0  0.00000000000E+00  0.00000000000E+00  0.12525980253E-10  0.17130000000E+03  0.17130000000E+03 0.  1.
       11    1    1    2    0    0  0.17664861964E-02 -0.26286536198E-01  0.59278304809E+00  0.59336844016E+00  0.51109989000E-03 0. -1.
     -623    1    1    2    0    0 -0.11287342257E-01 -0.15674091292E-01  0.10930518367E-02  0.17130000109E+03  0.17130000000E+03 0.  1.
      622    1    1    2    0    0  0.95208560598E-02  0.41960627489E-01  0.34061238671E+01  0.34066304671E+01  0.40000000000E-01 0. -1.
</event>
<event>
 5   0  0.7212170E+07  0.9118800E+02  0.7818608E-02  0.1180000E+00
       11   -1    0    0    0    0  0.00000000000E+00  0.00000000000E+00  0.39999999673E+01  0.40000000000E+01  0.51109989000E-03 0. -1.
     -623   -1    0    0    0    0  0.00000000000E+00  0.00000000000E+00  0.12525980253E-10  0.17130000000E+03  0.17130000000E+03 0.  1.
       11    1    1    2    0    0  0.62248124689E-02  0.80580752144E-02  0.23698099157E-01  0.25798100573E-01  0.51109989000E-03 0. -1.
     -623    1    1    2    0    0 -0.27978472486E-02  0.17002469391E-02  0.23147777010E-02  0.17130000005E+03  0.17130000000E+03 0.  1.
      622    1    1    2    0    0 -0.34269652201E-02 -0.97583221536E-02  0.39739870907E+01  0.39742018527E+01  0.40000000000E-01 0. -1.
</event>
<event>
 5   0  0.7212170E+07  0.9118800E+02  0.7818608E-02  0.1180000E+00
       11   -1    0    0    0    0  0.00000000000E+00  0.00000000000E+00  0.39999999673E+01  0.40000000000E+01  0.51109989000E-03 0. -1.
     -623   -1    0    0    0    0  0.00000000000E+00  0.00000000000E+00  0.12525980253E-10  0.17130000000E+03  0.17130000000E+03 0.  1.
       11    1    1    2    0    0 -0.75835601144E-02  0.65682020404E-02  0.79865990633E+00  0.79872308021E+00  0.51109989000E-03 0. -1.
     -623    1    1    2    0    0 -0.35637268831E-03 -0.13452612556E-02  0.32716550336E-03  0.17130000001E+03  0.17130000000E+03 0.  1.
      622    1    1    2    0    0  0.79399328028E-02 -0.52229407846E-02  0.32010128963E+01  0.32012769146E+01  0.40000000000E-01 0. -1.
</event>
<event>
 5   0  0.7212170E+07  0.9118800E+02  0.7818608E-02  0.1180000E+00
       11   -1    0    0    0    0  0.00000000000E+00  0.00000000000E+00  0.39999999673E+01  0.40000000000E+01  0.51109989000E-03 0.  1.
     -623   -1    0    0    0    0  0.00000000000E+00  0.00000000000E+00  0.12525980253E-10  0.17130000000E+03  0.17130000000E+03 0. -1.
       11    1    1    2    0    0 -0.17820163241E-02  0.22704634522E-02  0.66946749287E-01  0.67010887546E-01  0.51109989000E-03 0.  1.
     -623    1    1    2    0    0 -0.14568526750E-03 -0.24367618521E-03  0.26851365814E-03  0.17130000000E+03  0.17130000000E+03 0. -1.
      622    1    1    2    0    0  0.19277015916E-02 -0.20267872669E-02  0.39327847049E+01  0.39329891125E+01  0.40000000000E-01 0.  1.
</event>
<event>
 5   0  0.7212170E+07  0.9118800E+02  0.7818608E-02  0.1180000E+00
       11   -1    0    0    0    0  0.00000000000E+00  0.00000000000E+00  0.39999999673E+01  0.40000000000E+01  0.51109989000E-03 0.  1.
     -623   -1    0    0    0    0  0.00000000000E+00  0.00000000000E+00  0.12525980253E-10  0.17130000000E+03  0.17130000000E+03 0.  1.
       11    1    1    2    0    0 -0.14666307127E-01  0.26828277586E-02  0.10617462832E+01  0.10618510862E+01  0.51109989000E-03 0.  1.
     -623    1    1    2    0    0 -0.20471518232E-02  0.21138767064E-02  0.42854641458E-03  0.17130000003E+03  0.17130000000E+03 0.  1.
      622    1    1    2    0    0  0.16713458951E-01 -0.47967044654E-02  0.29378251383E+01  0.29381488886E+01  0.40000000000E-01 0.  0.
</event>
<event>
 5   0  0.7212170E+07  0.9118800E+02  0.7818608E-02  0.1180000E+00
       11   -1    0    0    0    0  0.00000000000E+00  0.00000000000E+00  0.39999999673E+01  0.40000000000E+01  0.51109989000E-03 0. -1.
     -623   -1    0    0    0    0  0.00000000000E+00  0.00000000000E+00  0.12525980253E-10  0.17130000000E+03  0.17130000000E+03 0.  1.
       11    1    1    2    0    0  0.80272179131E-02  0.11513813293E-01  0.26794236329E+00  0.26831022231E+00  0.51109989000E-03 0. -1.
     -623    1    1    2    0    0 -0.33416094468E-02 -0.11345516538E-01  0.58556761148E-03  0.17130000041E+03  0.17130000000E+03 0.  1.
      622    1    1    2    0    0 -0.46856084663E-02 -0.16829675492E-03  0.37314720365E+01  0.37316893685E+01  0.40000000000E-01 0. -1.
</event>
<event>
 5   0  0.7212170E+07  0.9118800E+02  0.7818608E-02  0.1180000E+00
       11   -1    0    0    0    0  0.00000000000E+00  0.00000000000E+00  0.39999999673E+01  0.40000000000E+01  0.51109989000E-03 0.  1.
     -623   -1    0    0    0    0  0.00000000000E+00  0.00000000000E+00  0.12525980253E-10  0.17130000000E+03  0.17130000000E+03 0.  1.
       11    1    1    2    0    0  0.12722602403E-01 -0.97789555647E-02  0.56574645569E+00  0.56597420960E+00  0.51109989000E-03 0.  1.
     -623    1    1    2    0    0 -0.98103348436E-02  0.20806933386E-01  0.48118102832E-03  0.17130000155E+03  0.17130000000E+03 0.  1.
      622    1    1    2    0    0 -0.29122675558E-02 -0.11027977828E-01  0.34337723320E+01  0.34340242465E+01  0.40000000000E-01 0.  1.
</event>
<event>
 5   0  0.7212170E+07  0.9118800E+02  0.7818608E-02  0.1180000E+00
       11   -1    0    0    0    0  0.00000000000E+00  0.00000000000E+00  0.39999999673E+01  0.40000000000E+01  0.51109989000E-03 0. -1.
     -623   -1    0    0    0    0  0.00000000000E+00  0.00000000000E+00  0.12525980253E-10  0.17130000000E+03  0.17130000000E+03 0. -1.
       11    1    1    2    0    0  0.11484077160E-01  0.97684643338E-03  0.12029797653E+01  0.12030350848E+01  0.51109989000E-03 0. -1.
     -623    1    1    2    0    0 -0.45066762803E-03 -0.19060178005E-02  0.36325621856E-03  0.17130000001E+03  0.17130000000E+03 0. -1.
      622    1    1    2    0    0 -0.11033409532E-01  0.92917136761E-03  0.27966569468E+01  0.27969649046E+01  0.40000000000E-01 0.  1.
</event>
<event>
 5   0  0.7212170E+07  0.9118800E+02  0.7818608E-02  0.1180000E+00
       11   -1    0    0    0    0  0.00000000000E+00  0.00000000000E+00  0.39999999673E+01  0.40000000000E+01  0.51109989000E-03 0. -1.
     -623   -1    0    0    0    0  0.00000000000E+00  0.00000000000E+00  0.12525980253E-10  0.17130000000E+03  0.17130000000E+03 0.  1.
       11    1    1    2    0    0  0.22252024060E-02 -0.50474938481E-02  0.59621536161E+00  0.59624109835E+00  0.51109989000E-03 0. -1.
     -623    1    1    2    0    0  0.55238490476E-03  0.56583253039E-02  0.26202923488E-03  0.17130000009E+03  0.17130000000E+03 0.  1.
      622    1    1    2    0    0 -0.27775873110E-02 -0.61083145834E-03  0.34035225783E+01  0.34037588089E+01  0.40000000000E-01 0. -1.
</event>
<event>
 5   0  0.7212170E+07  0.9118800E+02  0.7818608E-02  0.1180000E+00
       11   -1    0    0    0    0  0.00000000000E+00  0.00000000000E+00  0.39999999673E+01  0.40000000000E+01  0.51109989000E-03 0. -1.
     -623   -1    0    0    0    0  0.00000000000E+00  0.00000000000E+00  0.12525980253E-10  0.17130000000E+03  0.17130000000E+03 0.  1.
       11    1    1    2    0    0 -0.20418204014E-02  0.46828585639E-02  0.63619760644E+00  0.63621832248E+00  0.51109989000E-03 0. -1.
     -623    1    1    2    0    0 -0.13654299223E-02 -0.33505864081E-03  0.26306114470E-03  0.17130000001E+03  0.17130000000E+03 0.  1.
      622    1    1    2    0    0  0.34072503235E-02 -0.43477999232E-02  0.33635392989E+01  0.33637816706E+01  0.40000000000E-01 0. -1.
</event>
<event>
 5   0  0.7212170E+07  0.9118800E+02  0.7818608E-02  0.1180000E+00
       11   -1    0    0    0    0  0.00000000000E+00  0.00000000000E+00  0.39999999673E+01  0.40000000000E+01  0.51109989000E-03 0.  1.
     -623   -1    0    0    0    0  0.00000000000E+00  0.00000000000E+00  0.12525980253E-10  0.17130000000E+03  0.17130000000E+03 0.  1.
       11    1    1    2    0    0 -0.41461675726E-02 -0.12304679566E-01  0.29569710678E+00  0.29598249277E+00  0.51109989000E-03 0.  1.
     -623    1    1    2    0    0  0.24073495014E-01  0.30636447857E-01  0.60474822262E-03  0.17130000443E+03  0.17130000000E+03 0.  1.
      622    1    1    2    0    0 -0.19927327443E-01 -0.18331768293E-01  0.37036981127E+01  0.37040130753E+01  0.40000000000E-01 0.  1.
</event>
<event>
 5   0  0.7212170E+07  0.9118800E+02  0.7818608E-02  0.1180000E+00
       11   -1    0    0    0    0  0.00000000000E+00  0.00000000000E+00  0.39999999673E+01  0.40000000000E+01  0.51109989000E-03 0. -1.
     -623   -1    0    0    0    0  0.00000000000E+00  0.00000000000E+00  0.12525980253E-10  0.17130000000E+03  0.17130000000E+03 0. -1.
       11    1    1    2    0    0  0.61083675908E-03 -0.20453417272E-02  0.18855202891E-01  0.18982529955E-01  0.51109989000E-03 0. -1.
     -623    1    1    2    0    0  0.16754491294E-02  0.10630875487E-02  0.32904267771E-03  0.17130000001E+03  0.17130000000E+03 0. -1.
      622    1    1    2    0    0 -0.22862858885E-02  0.98225417848E-03  0.39808157219E+01  0.39810174583E+01  0.40000000000E-01 0. -1.
</event>
<event>
 5   0  0.7212170E+07  0.9118800E+02  0.7818608E-02  0.1180000E+00
       11   -1    0    0    0    0  0.00000000000E+00  0.00000000000E+00  0.39999999673E+01  0.40000000000E+01  0.51109989000E-03 0. -1.
     -623   -1    0    0    0    0  0.00000000000E+00  0.00000000000E+00  0.12525980253E-10  0.17130000000E+03  0.17130000000E+03 0. -1.
       11    1    1    2    0    0 -0.13117341622E-02  0.40420279692E-03  0.17956265660E-01  0.18015902030E-01  0.51109989000E-03 0. -1.
     -623    1    1    2    0    0  0.68837415391E-03  0.10682440039E-03  0.26059687139E-03  0.17130000000E+03  0.17130000000E+03 0. -1.
      622    1    1    2    0    0  0.62336000847E-03 -0.51102719729E-03  0.39817831040E+01  0.39819840955E+01  0.40000000000E-01 0. -1.
</event>
<event>
 5   0  0.7212170E+07  0.9118800E+02  0.7818608E-02  0.1180000E+00
       11   -1    0    0    0    0  0.00000000000E+00  0.00000000000E+00  0.39999999673E+01  0.40000000000E+01  0.51109989000E-03 0.  1.
     -623   -1    0    0    0    0  0.00000000000E+00  0.00000000000E+00  0.12525980253E-10  0.17130000000E+03  0.17130000000E+03 0. -1.
       11    1    1    2    0    0  0.16797171333E-01  0.54123391395E-01  0.10546496813E+01  0.10561712446E+01  0.51109989000E-03 0.  1.
     -623    1    1    2    0    0  0.26636816242E-02 -0.82654270581E-02  0.22151068605E-02  0.17130000023E+03  0.17130000000E+03 0. -1.
      622    1    1    2    0    0 -0.19460852957E-01 -0.45857964337E-01  0.29431351790E+01  0.29438285208E+01  0.40000000000E-01 0.  1.
</event>
<event>
 5   0  0.7212170E+07  0.9118800E+02  0.7818608E-02  0.1180000E+00
       11   -1    0    0    0    0  0.00000000000E+00  0.00000000000E+00  0.39999999673E+01  0.40000000000E+01  0.51109989000E-03 0. -1.
     -623   -1    0    0    0    0  0.00000000000E+00  0.00000000000E+00  0.12525980253E-10  0.17130000000E+03  0.17130000000E+03 0.  1.
       11    1    1    2    0    0  0.62365847429E-02 -0.41983100618E-02  0.58019941747E-01  0.58507227417E-01  0.51109989000E-03 0. -1.
     -623    1    1    2    0    0 -0.87364773040E-03 -0.56131024689E-03  0.69675423272E-03  0.17130000000E+03  0.17130000000E+03 0.  1.
      622    1    1    2    0    0 -0.53629370125E-02  0.47596203087E-02  0.39412832713E+01  0.39414927679E+01  0.40000000000E-01 0. -1.
</event>
<event>
 5   0  0.7212170E+07  0.9118800E+02  0.7818608E-02  0.1180000E+00
       11   -1    0    0    0    0  0.00000000000E+00  0.00000000000E+00  0.39999999673E+01  0.40000000000E+01  0.51109989000E-03 0. -1.
     -623   -1    0    0    0    0  0.00000000000E+00  0.00000000000E+00  0.12525980253E-10  0.17130000000E+03  0.17130000000E+03 0.  1.
       11    1    1    2    0    0 -0.81658452113E-02 -0.26195281396E-02  0.44142014108E-01  0.44970230023E-01  0.51109989000E-03 0. -1.
     -623    1    1    2    0    0  0.18148240636E-02 -0.74988533444E-02  0.10486829410E-02  0.17130000018E+03  0.17130000000E+03 0.  1.
      622    1    1    2    0    0  0.63510211477E-02  0.10118381484E-01  0.39548092702E+01  0.39550295929E+01  0.40000000000E-01 0. -1.
</event>
<event>
 5   0  0.7212170E+07  0.9118800E+02  0.7818608E-02  0.1180000E+00
       11   -1    0    0    0    0  0.00000000000E+00  0.00000000000E+00  0.39999999673E+01  0.40000000000E+01  0.51109989000E-03 0. -1.
     -623   -1    0    0    0    0  0.00000000000E+00  0.00000000000E+00  0.12525980253E-10  0.17130000000E+03  0.17130000000E+03 0. -1.
       11    1    1    2    0    0 -0.11223396830E+00  0.16343052876E-01  0.29539464902E+01  0.29561230839E+01  0.51109989000E-03 0. -1.
     -623    1    1    2    0    0  0.17058283833E-01  0.13547731840E-01  0.77260285247E-02  0.17130000156E+03  0.17130000000E+03 0. -1.
      622    1    1    2    0    0  0.95175684461E-01 -0.29890784716E-01  0.10383274487E+01  0.10438753568E+01  0.40000000000E-01 0. -1.
</event>
<event>
 5   0  0.7212170E+07  0.9118800E+02  0.7818608E-02  0.1180000E+00
       11   -1    0    0    0    0  0.00000000000E+00  0.00000000000E+00  0.39999999673E+01  0.40000000000E+01  0.51109989000E-03 0. -1.
     -623   -1    0    0    0    0  0.00000000000E+00  0.00000000000E+00  0.12525980253E-10  0.17130000000E+03  0.17130000000E+03 0.  1.
       11    1    1    2    0    0  0.23477302796E-02  0.67074446516E-02  0.21838707710E+01  0.21838823932E+01  0.51109989000E-03 0. -1.
     -623    1    1    2    0    0 -0.27917489211E-01 -0.11871588828E-02  0.64287218185E-03  0.17130000228E+03  0.17130000000E+03 0.  1.
      622    1    1    2    0    0  0.25569758938E-01 -0.55202857685E-02  0.18154863251E+01  0.18161153275E+01  0.40000000000E-01 0.  0.
</event>
<event>
 5   0  0.7212170E+07  0.9118800E+02  0.7818608E-02  0.1180000E+00
       11   -1    0    0    0    0  0.00000000000E+00  0.00000000000E+00  0.39999999673E+01  0.40000000000E+01  0.51109989000E-03 0.  1.
     -623   -1    0    0    0    0  0.00000000000E+00  0.00000000000E+00  0.12525980253E-10  0.17130000000E+03  0.17130000000E+03 0.  1.
       11    1    1    2    0    0  0.26082687779E-02 -0.18987994786E-02  0.46280479989E-01  0.46395609239E-01  0.51109989000E-03 0.  1.
     -623    1    1    2    0    0 -0.26465834342E-01  0.85856915667E-02  0.39735155076E-03  0.17130000226E+03  0.17130000000E+03 0.  1.
      622    1    1    2    0    0  0.23857565573E-01 -0.66868920910E-02  0.39533221372E+01  0.39536021320E+01  0.40000000000E-01 0.  1.
</event>
<event>
 5   0  0.7212170E+07  0.9118800E+02  0.7818608E-02  0.1180000E+00
       11   -1    0    0    0    0  0.00000000000E+00  0.00000000000E+00  0.39999999673E+01  0.40000000000E+01  0.51109989000E-03 0.  1.
     -623   -1    0    0    0    0  0.00000000000E+00  0.00000000000E+00  0.12525980253E-10  0.17130000000E+03  0.17130000000E+03 0. -1.
       11    1    1    2    0    0  0.91871749859E-04 -0.88377110609E-03  0.13081550348E-02  0.16619219233E-02  0.51109989000E-03 0.  1.
     -623    1    1    2    0    0 -0.27818572062E-03  0.32010105477E-03  0.55386788089E-03  0.17130000000E+03  0.17130000000E+03 0. -1.
      622    1    1    2    0    0  0.18631397081E-03  0.56367005126E-03  0.39981379452E+01  0.39983380774E+01  0.40000000000E-01 0.  1.
</event>
<event>
 5   0  0.7212170E+07  0.9118800E+02  0.7818608E-02  0.1180000E+00
       11   -1    0    0    0    0  0.00000000000E+00  0.00000000000E+00  0.39999999673E+01  0.40000000000E+01  0.51109989000E-03 0.  1.
     -623   -1    0    0    0    0  0.00000000000E+00  0.00000000000E+00  0.12525980253E-10  0.17130000000E+03  0.17130000000E+03 0. -1.
       11    1    1    2    0    0  0.16509055330E-02 -0.44361711823E-03  0.76893974167E-02  0.78936899456E-02  0.51109989000E-03 0.  1.
     -623    1    1    2    0    0 -0.24321117167E-03  0.51808058231E-03  0.40491071530E-03  0.17130000000E+03  0.17130000000E+03 0. -1.
      622    1    1    2    0    0 -0.14076943612E-02 -0.74463464248E-04  0.39919056606E+01  0.39921063099E+01  0.40000000000E-01 0.  1.
</event>
<event>
 5   0  0.7212170E+07  0.9118800E+02  0.7818608E-02  0.1180000E+00
       11   -1    0    0    0    0  0.00000000000E+00  0.00000000000E+00  0.39999999673E+01  0.40000000000E+01  0.51109989000E-03 0. -1.
     -623   -1    0    0    0    0  0.00000000000E+00  0.00000000000E+00  0.12525980253E-10  0.17130000000E+03  0.17130000000E+03 0.  1.
       11    1    1    2    0    0  0.19456234485E-01  0.48377760111E-01  0.15058183929E+01  0.15067210247E+01  0.51109989000E-03 0. -1.
     -623    1    1    2    0    0 -0.13445205277E-03 -0.20296619736E-02  0.17292745521E-02  0.17130000002E+03  0.17130000000E+03 0.  1.
      622    1    1    2    0    0 -0.19321782432E-01 -0.46348098137E-01  0.24924523000E+01  0.24932789546E+01  0.40000000000E-01 0.  0.
</event>
<event>
 5   0  0.7212170E+07  0.9118800E+02  0.7818608E-02  0.1180000E+00
       11   -1    0    0    0    0  0.00000000000E+00  0.00000000000E+00  0.39999999673E+01  0.40000000000E+01  0.51109989000E-03 0.  1.
     -623   -1    0    0    0    0  0.00000000000E+00  0.00000000000E+00  0.12525980253E-10  0.17130000000E+03  0.17130000000E+03 0.  1.
       11    1    1    2    0    0 -0.71975775395E-03 -0.31449931439E-02  0.22552904869E-01  0.22788237629E-01  0.51109989000E-03 0.  1.
     -623    1    1    2    0    0  0.41339174650E-02  0.36732377968E-02  0.43804154144E-03  0.17130000009E+03  0.17130000000E+03 0.  1.
      622    1    1    2    0    0 -0.34141597107E-02 -0.52824465256E-03  0.39770090206E+01  0.39772116722E+01  0.40000000000E-01 0.  1.
</event>
<event>
 5   0  0.7212170E+07  0.9118800E+02  0.7818608E-02  0.1180000E+00
       11   -1    0    0    0    0  0.00000000000E+00  0.00000000000E+00  0.39999999673E+01  0.40000000000E+01  0.51109989000E-03 0.  1.
     -623   -1    0    0    0    0  0.00000000000E+00  0.00000000000E+00  0.12525980253E-10  0.17130000000E+03  0.17130000000E+03 0.  1.
       11    1    1    2    0    0 -0.12423102943E-02 -0.26815646623E-03  0.10155367293E-01  0.10247338714E-01  0.51109989000E-03 0.  1.
     -623    1    1    2    0    0  0.70718865955E-03  0.85726892632E-04  0.29249929237E-03  0.17130000000E+03  0.17130000000E+03 0.  1.
      622    1    1    2    0    0  0.53512163470E-03  0.18242957360E-03  0.39895521009E+01  0.39897526596E+01  0.40000000000E-01 0.  1.
</event>
<event>
 5   0  0.7212170E+07  0.9118800E+02  0.7818608E-02  0.1180000E+00
       11   -1    0    0    0    0  0.00000000000E+00  0.00000000000E+00  0.39999999673E+01  0.40000000000E+01  0.51109989000E-03 0.  1.
     -623   -1    0    0    0    0  0.00000000000E+00  0.00000000000E+00  0.12525980253E-10  0.17130000000E+03  0.17130000000E+03 0. -1.
       11    1    1    2    0    0 -0.45237522223E-02 -0.61485201065E-02  0.65282675117E+00  0.65287157765E+00  0.51109989000E-03 0.  1.
     -623    1    1    2    0    0 -0.61753516152E-02  0.14767095426E-01  0.31275942309E-03  0.17130000075E+03  0.17130000000E+03 0. -1.
      622    1    1    2    0    0  0.10699103841E-01 -0.86185753276E-02  0.33468604589E+01  0.33471276764E+01  0.40000000000E-01 0.  1.
</event>
<event>
 5   0  0.7212170E+07  0.9118800E+02  0.7818608E-02  0.1180000E+00
       11   -1    0    0    0    0  0.00000000000E+00  0.00000000000E+00  0.39999999673E+01  0.40000000000E+01  0.51109989000E-03 0. -1.
     -623   -1    0    0    0    0  0.00000000000E+00  0.00000000000E+00  0.12525980253E-10  0.17130000000E+03  0.17130000000E+03 0. -1.
       11    1    1    2    0    0 -0.14187826667E-02  0.25008074765E-03  0.41043089723E-03  0.15827701206E-02  0.51109989000E-03 0. -1.
     -623    1    1    2    0    0  0.74905449047E-03 -0.35331739587E-02  0.13738383759E-02  0.17130000004E+03  0.17130000000E+03 0. -1.
      622    1    1    2    0    0  0.66972817623E-03  0.32830932112E-02  0.39982156983E+01  0.39984171865E+01  0.40000000000E-01 0. -1.
</event>
<event>
 5   0  0.7212170E+07  0.9118800E+02  0.7818608E-02  0.1180000E+00
       11   -1    0    0    0    0  0.00000000000E+00  0.00000000000E+00  0.39999999673E+01  0.40000000000E+01  0.51109989000E-03 0.  1.
     -623   -1    0    0    0    0  0.00000000000E+00  0.00000000000E+00  0.12525980253E-10  0.17130000000E+03  0.17130000000E+03 0. -1.
       11    1    1    2    0    0  0.10720352990E-01  0.10273101466E-02  0.32702121375E+00  0.32719889487E+00  0.51109989000E-03 0.  1.
     -623    1    1    2    0    0  0.28415551648E-03 -0.30267727504E-02  0.41253105819E-03  0.17130000003E+03  0.17130000000E+03 0. -1.
      622    1    1    2    0    0 -0.11004508507E-01  0.19994626046E-02  0.36725662237E+01  0.36728010788E+01  0.40000000000E-01 0.  1.
</event>
<event>
 5   0  0.7212170E+07  0.9118800E+02  0.7818608E-02  0.1180000E+00
       11   -1    0    0    0    0  0.00000000000E+00  0.00000000000E+00  0.39999999673E+01  0.40000000000E+01  0.51109989000E-03 0.  1.
     -623   -1    0    0    0    0  0.00000000000E+00  0.00000000000E+00  0.12525980253E-10  0.17130000000E+03  0.17130000000E+03 0.  1.
       11    1    1    2    0    0 -0.18758682422E-01  0.65985659315E-02  0.82905543520E+00  0.82929404019E+00  0.51109989000E-03 0.  1.
     -623    1    1    2    0    0  0.16395002812E-02  0.29852740446E-02  0.55163113938E-03  0.17130000003E+03  0.17130000000E+03 0.  1.
      622    1    1    2    0    0  0.17119182141E-01 -0.95838399762E-02  0.31703929011E+01  0.31707059252E+01  0.40000000000E-01 0.  1.
</event>
<event>
 5   0  0.7212170E+07  0.9118800E+02  0.7818608E-02  0.1180000E+00
       11   -1    0    0    0    0  0.00000000000E+00  0.00000000000E+00  0.39999999673E+01  0.40000000000E+01  0.51109989000E-03 0.  1.
     -623   -1    0    0    0    0  0.00000000000E+00  0.00000000000E+00  0.12525980253E-10  0.17130000000E+03  0.17130000000E+03 0.  1.
       11    1    1    2    0    0 -0.13399259268E-03 -0.20785458261E-03  0.10897607734E-02  0.12288039645E-02  0.51109989000E-03 0.  1.
     -623    1    1    2    0    0  0.19890473827E-03  0.10198773744E-02  0.33916348133E-03  0.17130000000E+03  0.17130000000E+03 0.  1.
      622    1    1    2    0    0 -0.64912145613E-04 -0.81202279187E-03  0.39985710434E+01  0.39987711929E+01  0.40000000000E-01 0.  1.
</event>
<event>
 5   0  0.7212170E+07  0.9118800E+02  0.7818608E-02  0.1180000E+00
       11   -1    0    0    0    0  0.00000000000E+00  0.00000000000E+00  0.39999999673E+01  0.40000000000E+01  0.51109989000E-03 0. -1.
     -623   -1    0    0    0    0  0.00000000000E+00  0.00000000000E+00  0.12525980253E-10  0.17130000000E+03  0.17130000000E+03 0. -1.
       11    1    1    2    0    0 -0.30624843638E-02 -0.29349153533E-02  0.16885326747E+00  0.16890731097E+00  0.51109989000E-03 0. -1.
     -623    1    1    2    0    0 -0.88985376705E-04  0.73017049751E-03  0.26476674997E-03  0.17130000000E+03  0.17130000000E+03 0. -1.
      622    1    1    2    0    0  0.31514697406E-02  0.22047448556E-02  0.38308819341E+01  0.38310926882E+01  0.40000000000E-01 0. -1.
</event>
<event>
 5   0  0.7212170E+07  0.9118800E+02  0.7818608E-02  0.1180000E+00
       11   -1    0    0    0    0  0.00000000000E+00  0.00000000000E+00  0.39999999673E+01  0.40000000000E+01  0.51109989000E-03 0.  1.
     -623   -1    0    0    0    0  0.00000000000E+00  0.00000000000E+00  0.12525980253E-10  0.17130000000E+03  0.17130000000E+03 0. -1.
       11    1    1    2    0    0  0.62502601105E-02 -0.68521922190E-03  0.48599443618E-01  0.49007167026E-01  0.51109989000E-03 0.  1.
     -623    1    1    2    0    0  0.36963625809E-03  0.99122936581E-03  0.61573904595E-03  0.17130000000E+03  0.17130000000E+03 0. -1.
      622    1    1    2    0    0 -0.66198963686E-02 -0.30601014398E-03  0.39507847850E+01  0.39509928289E+01  0.40000000000E-01 0.  1.
</event>
<event>
 5   0  0.7212170E+07  0.9118800E+02  0.7818608E-02  0.1180000E+00
       11   -1    0    0    0    0  0.00000000000E+00  0.00000000000E+00  0.39999999673E+01  0.40000000000E+01  0.51109989000E-03 0. -1.
     -623   -1    0    0    0    0  0.00000000000E+00  0.00000000000E+00  0.12525980253E-10  0.17130000000E+03  0.17130000000E+03 0.  1.
       11    1    1    2    0    0  0.23280369256E-01 -0.31937600558E-01  0.87522419362E+00  0.87611622302E+00  0.51109989000E-03 0. -1.
     -623    1    1    2    0    0  0.34997980074E-02  0.72132408881E-02  0.13609478247E-02  0.17130000019E+03  0.17130000000E+03 0.  1.
      622    1    1    2    0    0 -0.26780167263E-01  0.24724359669E-01  0.31234148260E+01  0.31238835840E+01  0.40000000000E-01 0. -1.
</event>
<event>
 5   0  0.7212170E+07  0.9118800E+02  0.7818608E-02  0.1180000E+00
       11   -1    0    0    0    0  0.00000000000E+00  0.00000000000E+00  0.39999999673E+01  0.40000000000E+01  0.51109989000E-03 0.  1.
     -623   -1    0    0    0    0  0.00000000000E+00  0.00000000000E+00  0.12525980253E-10  0.17130000000E+03  0.17130000000E+03 0. -1.
       11    1    1    2    0    0  0.76414184584E-02  0.67176357010E-02  0.11605704996E+01  0.11606152091E+01  0.51109989000E-03 0.  1.
     -623    1    1    2    0    0 -0.48176401248E-03  0.16870494131E-02  0.34791940734E-03  0.17130000001E+03  0.17130000000E+03 0. -1.
      622    1    1    2    0    0 -0.71596544457E-02 -0.84046851146E-02  0.28390815495E+01  0.28393847827E+01  0.40000000000E-01 0. -1.
</event>
<event>
 5   0  0.7212170E+07  0.9118800E+02  0.7818608E-02  0.1180000E+00
       11   -1    0    0    0    0  0.00000000000E+00  0.00000000000E+00  0.39999999673E+01  0.40000000000E+01  0.51109989000E-03 0.  1.
     -623   -1    0    0    0    0  0.00000000000E+00  0.00000000000E+00  0.12525980253E-10  0.17130000000E+03  0.17130000000E+03 0. -1.
       11    1    1    2    0    0 -0.48832066009E-02  0.12661273624E-03  0.56516572398E-01  0.56729585898E-01  0.51109989000E-03 0.  1.
     -623    1    1    2    0    0  0.42912840892E-02 -0.45325597058E-02  0.41848361070E-03  0.17130000011E+03  0.17130000000E+03 0. -1.
      622    1    1    2    0    0  0.59192251080E-03  0.44059469706E-02  0.39430649122E+01  0.39432703007E+01  0.40000000000E-01 0.  1.
</event>
<event>
 5   0  0.7212170E+07  0.9118800E+02  0.7818608E-02  0.1180000E+00
       11   -1    0    0    0    0  0.00000000000E+00  0.00000000000E+00  0.39999999673E+01  0.40000000000E+01  0.51109989000E-03 0.  1.
     -623   -1    0    0    0    0  0.00000000000E+00  0.00000000000E+00  0.12525980253E-10  0.17130000000E+03  0.17130000000E+03 0. -1.
       11    1    1    2    0    0  0.14406827927E-02  0.18326228675E-03  0.64762191821E-02  0.66567101460E-02  0.51109989000E-03 0.  1.
     -623    1    1    2    0    0  0.88747945441E-04  0.59884618684E-03  0.38116772319E-03  0.17130000000E+03  0.17130000000E+03 0. -1.
      622    1    1    2    0    0 -0.15294307382E-02 -0.78210847358E-03  0.39931425803E+01  0.39933432882E+01  0.40000000000E-01 0.  1.
</event>
<event>
 5   0  0.7212170E+07  0.9118800E+02  0.7818608E-02  0.1180000E+00
       11   -1    0    0    0    0  0.00000000000E+00  0.00000000000E+00  0.39999999673E+01  0.40000000000E+01  0.51109989000E-03 0.  1.
     -623   -1    0    0    0    0  0.00000000000E+00  0.00000000000E+00  0.12525980253E-10  0.17130000000E+03  0.17130000000E+03 0.  1.
       11    1    1    2    0    0 -0.52029969240E-03 -0.57517027240E-02  0.12253347166E-01  0.13555756558E-01  0.51109989000E-03 0.  1.
     -623    1    1    2    0    0  0.34621664347E-02  0.42912450809E-02  0.15045103383E-02  0.17130000010E+03  0.17130000000E+03 0.  1.
      622    1    1    2    0    0 -0.29418667424E-02  0.14604576430E-02  0.39862421100E+01  0.39864441482E+01  0.40000000000E-01 0.  1.
</event>
<event>
 5   0  0.7212170E+07  0.9118800E+02  0.7818608E-02  0.1180000E+00
       11   -1    0    0    0    0  0.00000000000E+00  0.00000000000E+00  0.39999999673E+01  0.40000000000E+01  0.51109989000E-03 0.  1.
     -623   -1    0    0    0    0  0.00000000000E+00  0.00000000000E+00  0.12525980253E-10  0.17130000000E+03  0.17130000000E+03 0.  1.
       11    1    1    2    0    0  0.63521848670E-02 -0.43204176090E-02  0.12755594349E+00  0.12778809101E+00  0.51109989000E-03 0.  1.
     -623    1    1    2    0    0 -0.27681746424E-02 -0.27940149568E-02  0.44696115689E-03  0.17130000005E+03  0.17130000000E+03 0.  1.
      622    1    1    2    0    0 -0.35840102242E-02  0.71144325662E-02  0.38719970633E+01  0.38722118638E+01  0.40000000000E-01 0.  1.
</event>
<event>
 5   0  0.7212170E+07  0.9118800E+02  0.7818608E-02  0.1180000E+00
       11   -1    0    0    0    0  0.00000000000E+00  0.00000000000E+00  0.39999999673E+01  0.40000000000E+01  0.51109989000E-03 0. -1.
     -623   -1    0    0    0    0  0.00000000000E+00  0.00000000000E+00  0.12525980253E-10  0.17130000000E+03  0.17130000000E+03 0. -1.
       11    1    1    2    0    0  0.81162061108E-04 -0.12089155313E-03  0.35403144726E-02  0.35799792891E-02  0.51109989000E-03 0.  1.
     -623    1    1    2    0    0 -0.78969830986E-03  0.70099092096E-03  0.23992468856E-03  0.17130000000E+03  0.17130000000E+03 0. -1.
      622    1    1    2    0    0  0.70853624890E-03 -0.58009936797E-03  0.39962197290E+01  0.39964200180E+01  0.40000000000E-01 0. -1.
</event>
<event>
 5   0  0.7212170E+07  0.9118800E+02  0.7818608E-02  0.1180000E+00
       11   -1    0    0    0    0  0.00000000000E+00  0.00000000000E+00  0.39999999673E+01  0.40000000000E+01  0.51109989000E-03 0.  1.
     -623   -1    0    0    0    0  0.00000000000E+00  0.00000000000E+00  0.12525980253E-10  0.17130000000E+03  0.17130000000E+03 0. -1.
       11    1    1    2    0    0 -0.42489217688E-02  0.10045873684E-02  0.13166208360E+00  0.13173544706E+00  0.51109989000E-03 0.  1.
     -623    1    1    2    0    0  0.23575218306E-03  0.30337593988E-03  0.28245110719E-03  0.17130000000E+03  0.17130000000E+03 0. -1.
      622    1    1    2    0    0  0.40131695857E-02 -0.13079633083E-02  0.38680554333E+01  0.38682645529E+01  0.40000000000E-01 0.  1.
</event>
<event>
 5   0  0.7212170E+07  0.9118800E+02  0.7818608E-02  0.1180000E+00
       11   -1    0    0    0    0  0.00000000000E+00  0.00000000000E+00  0.39999999673E+01  0.40000000000E+01  0.51109989000E-03 0. -1.
     -623   -1    0    0    0    0  0.00000000000E+00  0.00000000000E+00  0.12525980253E-10  0.17130000000E+03  0.17130000000E+03 0. -1.
       11    1    1    2    0    0  0.56281267351E-03 -0.95056205833E-04  0.33026123657E-02  0.33903193542E-02  0.51109989000E-03 0. -1.
     -623    1    1    2    0    0 -0.40833154549E-03  0.60523653111E-03  0.28788636955E-03  0.17130000000E+03  0.17130000000E+03 0. -1.
      622    1    1    2    0    0 -0.15448112809E-03 -0.51018032517E-03  0.39964094679E+01  0.39966096781E+01  0.40000000000E-01 0. -1.
</event>
<event>
 5   0  0.7212170E+07  0.9118800E+02  0.7818608E-02  0.1180000E+00
       11   -1    0    0    0    0  0.00000000000E+00  0.00000000000E+00  0.39999999673E+01  0.40000000000E+01  0.51109989000E-03 0.  1.
     -623   -1    0    0    0    0  0.00000000000E+00  0.00000000000E+00  0.12525980253E-10  0.17130000000E+03  0.17130000000E+03 0.  1.
       11    1    1    2    0    0  0.26557692295E-01  0.31999516741E-01  0.17585510216E+01  0.17590427047E+01  0.51109989000E-03 0.  1.
     -623    1    1    2    0    0 -0.32729255244E-01 -0.10914628195E-01  0.95985748419E-03  0.17130000348E+03  0.17130000000E+03 0.  1.
      622    1    1    2    0    0  0.61715629484E-02 -0.21084888546E-01  0.22404890881E+01  0.22409538181E+01  0.40000000000E-01 0.  1.
</event>
<event>
 5   0  0.7212170E+07  0.9118800E+02  0.7818608E-02  0.1180000E+00
       11   -1    0    0    0    0  0.00000000000E+00  0.00000000000E+00  0.39999999673E+01  0.40000000000E+01  0.51109989000E-03 0. -1.
     -623   -1    0    0    0    0  0.00000000000E+00  0.00000000000E+00  0.12525980253E-10  0.17130000000E+03  0.17130000000E+03 0.  1.
       11    1    1    2    0    0 -0.14238110831E-02 -0.21511136473E-02  0.49819872332E+00  0.49820566403E+00  0.51109989000E-03 0. -1.
     -623    1    1    2    0    0  0.27518034184E-03 -0.97582266032E-04  0.23628068685E-03  0.17130000000E+03  0.17130000000E+03 0.  1.
      622    1    1    2    0    0  0.11486307413E-02  0.22486959134E-02  0.35015649628E+01  0.35017943350E+01  0.40000000000E-01 0. -1.
</event>
<event>
 5   0  0.7212170E+07  0.9118800E+02  0.7818608E-02  0.1180000E+00
       11   -1    0    0    0    0  0.00000000000E+00  0.00000000000E+00  0.39999999673E+01  0.40000000000E+01  0.51109989000E-03 0.  1.
     -623   -1    0    0    0    0  0.00000000000E+00  0.00000000000E+00  0.12525980253E-10  0.17130000000E+03  0.17130000000E+03 0. -1.
       11    1    1    2    0    0  0.16987353937E-02  0.55673911671E-02  0.12551363894E+00  0.12564957752E+00  0.51109989000E-03 0.  1.
     -623    1    1    2    0    0 -0.10045351163E-02  0.37186292034E-03  0.34701614785E-03  0.17130000000E+03  0.17130000000E+03 0. -1.
      622    1    1    2    0    0 -0.69420027735E-03 -0.59392540875E-02  0.38741393124E+01  0.38743504189E+01  0.40000000000E-01 0.  1.
</event>
<event>
 5   0  0.7212170E+07  0.9118800E+02  0.7818608E-02  0.1180000E+00
       11   -1    0    0    0    0  0.00000000000E+00  0.00000000000E+00  0.39999999673E+01  0.40000000000E+01  0.51109989000E-03 0. -1.
     -623   -1    0    0    0    0  0.00000000000E+00  0.00000000000E+00  0.12525980253E-10  0.17130000000E+03  0.17130000000E+03 0. -1.
       11    1    1    2    0    0 -0.52801971219E-02  0.20898999093E-02  0.66717422441E-01  0.66960614121E-01  0.51109989000E-03 0. -1.
     -623    1    1    2    0    0  0.16135908947E-03 -0.52364709152E-03  0.45021392997E-03  0.17130000000E+03  0.17130000000E+03 0. -1.
      622    1    1    2    0    0  0.51188380324E-02 -0.15662528179E-02  0.39328323304E+01  0.39330393838E+01  0.40000000000E-01 0. -1.
</event>
<event>
 5   0  0.7212170E+07  0.9118800E+02  0.7818608E-02  0.1180000E+00
       11   -1    0    0    0    0  0.00000000000E+00  0.00000000000E+00  0.39999999673E+01  0.40000000000E+01  0.51109989000E-03 0.  1.
     -623   -1    0    0    0    0  0.00000000000E+00  0.00000000000E+00  0.12525980253E-10  0.17130000000E+03  0.17130000000E+03 0.  1.
       11    1    1    2    0    0 -0.62022739779E-02 -0.57032186710E-02  0.83273687167E+00  0.83277965487E+00  0.51109989000E-03 0.  1.
     -623    1    1    2    0    0  0.52649485422E-03 -0.12106975085E-02  0.30798645444E-03  0.17130000001E+03  0.17130000000E+03 0.  1.
      622    1    1    2    0    0  0.56757791236E-02  0.69139161799E-02  0.31669551105E+01  0.31672203410E+01  0.40000000000E-01 0.  1.
</event>
<event>
 5   0  0.7212170E+07  0.9118800E+02  0.7818608E-02  0.1180000E+00
       11   -1    0    0    0    0  0.00000000000E+00  0.00000000000E+00  0.39999999673E+01  0.40000000000E+01  0.51109989000E-03 0.  1.
     -623   -1    0    0    0    0  0.00000000000E+00  0.00000000000E+00  0.12525980253E-10  0.17130000000E+03  0.17130000000E+03 0.  1.
       11    1    1    2    0    0  0.71004077851E-02 -0.46402755380E-02  0.85835878931E+00  0.85840085063E+00  0.51109989000E-03 0.  1.
     -623    1    1    2    0    0  0.99774221511E-03  0.25683520637E-03  0.31018633157E-03  0.17130000000E+03  0.17130000000E+03 0.  1.
      622    1    1    2    0    0 -0.80981500004E-02  0.43834403316E-02  0.31413309924E+01  0.31415991467E+01  0.40000000000E-01 0.  1.
</event>
<event>
 5   0  0.7212170E+07  0.9118800E+02  0.7818608E-02  0.1180000E+00
       11   -1    0    0    0    0  0.00000000000E+00  0.00000000000E+00  0.39999999673E+01  0.40000000000E+01  0.51109989000E-03 0. -1.
     -623   -1    0    0    0    0  0.00000000000E+00  0.00000000000E+00  0.12525980253E-10  0.17130000000E+03  0.17130000000E+03 0.  1.
       11    1    1    2    0    0  0.12779310157E-01  0.99547447195E-03  0.20281809658E+00  0.20322338266E+00  0.51109989000E-03 0. -1.
     -623    1    1    2    0    0 -0.15708585446E-02  0.46107280745E-02  0.63671917241E-03  0.17130000007E+03  0.17130000000E+03 0.  1.
      622    1    1    2    0    0 -0.11208451612E-01 -0.56062025466E-02  0.37965451517E+01  0.37967765470E+01  0.40000000000E-01 0. -1.
</event>
<event>
 5   0  0.7212170E+07  0.9118800E+02  0.7818608E-02  0.1180000E+00
       11   -1    0    0    0    0  0.00000000000E+00  0.00000000000E+00  0.39999999673E+01  0.40000000000E+01  0.51109989000E-03 0.  1.
     -623   -1    0    0    0    0  0.00000000000E+00  0.00000000000E+00  0.12525980253E-10  0.17130000000E+03  0.17130000000E+03 0.  1.
       11    1    1    2    0    0  0.22763175792E-01  0.18741507882E-01  0.40208652607E+00  0.40316651890E+00  0.51109989000E-03 0.  1.
     -623    1    1    2    0    0 -0.19458614892E-02 -0.18030904085E-02  0.14025444419E-02  0.17130000003E+03  0.17130000000E+03 0.  1.
      622    1    1    2    0    0 -0.20817314302E-01 -0.16938417473E-01  0.35965108972E+01  0.35968334551E+01  0.40000000000E-01 0.  1.
</event>
<event>
 5   0  0.7212170E+07  0.9118800E+02  0.7818608E-02  0.1180000E+00
       11   -1    0    0    0    0  0.00000000000E+00  0.00000000000E+00  0.39999999673E+01  0.40000000000E+01  0.51109989000E-03 0.  1.
     -623   -1    0    0    0    0  0.00000000000E+00  0.00000000000E+00  0.12525980253E-10  0.17130000000E+03  0.17130000000E+03 0.  1.
       11    1    1    2    0    0  0.13719443288E-02 -0.69586540149E-03  0.70090381514E-02  0.71940460662E-02  0.51109989000E-03 0.  1.
     -623    1    1    2    0    0 -0.48853148713E-04  0.13997951806E-02  0.38562809399E-03  0.17130000001E+03  0.17130000000E+03 0.  1.
      622    1    1    2    0    0 -0.13230911801E-02 -0.70392977915E-03  0.39926053013E+01  0.39928059480E+01  0.40000000000E-01 0.  1.
</event>
<event>
 5   0  0.7212170E+07  0.9118800E+02  0.7818608E-02  0.1180000E+00
       11   -1    0    0    0    0  0.00000000000E+00  0.00000000000E+00  0.39999999673E+01  0.40000000000E+01  0.51109989000E-03 0. -1.
     -623   -1    0    0    0    0  0.00000000000E+00  0.00000000000E+00  0.12525980253E-10  0.17130000000E+03  0.17130000000E+03 0.  1.
       11    1    1    2    0    0 -0.36992162890E-02 -0.45998102078E-02  0.29565798895E+00  0.29571734834E+00  0.51109989000E-03 0. -1.
     -623    1    1    2    0    0  0.23693173187E-03  0.44875376945E-03  0.27924440230E-03  0.17130000000E+03  0.17130000000E+03 0.  1.
      622    1    1    2    0    0  0.34622845572E-02  0.41510564383E-02  0.37040627338E+01  0.37042826504E+01  0.40000000000E-01 0. -1.
</event>
<event>
 5   0  0.7212170E+07  0.9118800E+02  0.7818608E-02  0.1180000E+00
       11   -1    0    0    0    0  0.00000000000E+00  0.00000000000E+00  0.39999999673E+01  0.40000000000E+01  0.51109989000E-03 0.  1.
     -623   -1    0    0    0    0  0.00000000000E+00  0.00000000000E+00  0.12525980253E-10  0.17130000000E+03  0.17130000000E+03 0.  1.
       11    1    1    2    0    0  0.11660895868E-02  0.33184968834E-02  0.57494818671E+00  0.57495917316E+00  0.51109989000E-03 0.  1.
     -623    1    1    2    0    0 -0.44409249349E-03  0.38926844734E-03  0.24661999203E-03  0.17130000000E+03  0.17130000000E+03 0.  1.
      622    1    1    2    0    0 -0.72199709342E-03 -0.37077653307E-02  0.34248051598E+01  0.34250408248E+01  0.40000000000E-01 0.  1.
</event>
<event>
 5   0  0.7212170E+07  0.9118800E+02  0.7818608E-02  0.1180000E+00
       11   -1    0    0    0    0  0.00000000000E+00  0.00000000000E+00  0.39999999673E+01  0.40000000000E+01  0.51109989000E-03 0. -1.
     -623   -1    0    0    0    0  0.00000000000E+00  0.00000000000E+00  0.12525980253E-10  0.17130000000E+03  0.17130000000E+03 0. -1.
       11    1    1    2    0    0  0.94211572768E-05 -0.75408233189E-03  0.18368740647E-01  0.18391318196E-01  0.51109989000E-03 0. -1.
     -623    1    1    2    0    0  0.55730978644E-03  0.88443831877E-03  0.22351959696E-03  0.17130000000E+03  0.17130000000E+03 0. -1.
      622    1    1    2    0    0 -0.56673094401E-03 -0.13035598735E-03  0.39814077092E+01  0.39816086805E+01  0.40000000000E-01 0. -1.
</event>
<event>
 5   0  0.7212170E+07  0.9118800E+02  0.7818608E-02  0.1180000E+00
       11   -1    0    0    0    0  0.00000000000E+00  0.00000000000E+00  0.39999999673E+01  0.40000000000E+01  0.51109989000E-03 0.  1.
     -623   -1    0    0    0    0  0.00000000000E+00  0.00000000000E+00  0.12525980253E-10  0.17130000000E+03  0.17130000000E+03 0.  1.
       11    1    1    2    0    0 -0.19715040782E-02  0.69052716067E-02  0.37679179704E-01  0.38360805656E-01  0.51109989000E-03 0.  1.
     -623    1    1    2    0    0  0.21602253029E-02 -0.33430290940E-02  0.88518973547E-03  0.17130000005E+03  0.17130000000E+03 0.  1.
      622    1    1    2    0    0 -0.18872122498E-03 -0.35622425123E-02  0.39614355985E+01  0.39616391464E+01  0.40000000000E-01 0.  0.
</event>
<event>
 5   0  0.7212170E+07  0.9118800E+02  0.7818608E-02  0.1180000E+00
       11   -1    0    0    0    0  0.00000000000E+00  0.00000000000E+00  0.39999999673E+01  0.40000000000E+01  0.51109989000E-03 0.  1.
     -623   -1    0    0    0    0  0.00000000000E+00  0.00000000000E+00  0.12525980253E-10  0.17130000000E+03  0.17130000000E+03 0.  1.
       11    1    1    2    0    0  0.80124650709E-02  0.33622334027E-02  0.11488958723E+01  0.11489288450E+01  0.51109989000E-03 0.  1.
     -623    1    1    2    0    0 -0.92379536650E-02 -0.96831397251E-02  0.32134418912E-03  0.17130000052E+03  0.17130000000E+03 0.  1.
      622    1    1    2    0    0  0.12254885930E-02  0.63209063213E-02  0.28507827504E+01  0.28510706314E+01  0.40000000000E-01 0.  1.
</event>
<event>
 5   0  0.7212170E+07  0.9118800E+02  0.7818608E-02  0.1180000E+00
       11   -1    0    0    0    0  0.00000000000E+00  0.00000000000E+00  0.39999999673E+01  0.40000000000E+01  0.51109989000E-03 0.  1.
     -623   -1    0    0    0    0  0.00000000000E+00  0.00000000000E+00  0.12525980253E-10  0.17130000000E+03  0.17130000000E+03 0.  1.
       11    1    1    2    0    0 -0.10304249259E-02 -0.58527479972E-02  0.17850385228E+01  0.17850484883E+01  0.51109989000E-03 0.  1.
     -623    1    1    2    0    0  0.11858894044E-02  0.54172821570E-03  0.37752329728E-03  0.17130000001E+03  0.17130000000E+03 0.  1.
      622    1    1    2    0    0 -0.15546447840E-03  0.53110197815E-02  0.22145839211E+01  0.22149515062E+01  0.40000000000E-01 0.  1.
</event>
<event>
 5   0  0.7212170E+07  0.9118800E+02  0.7818608E-02  0.1180000E+00
       11   -1    0    0    0    0  0.00000000000E+00  0.00000000000E+00  0.39999999673E+01  0.40000000000E+01  0.51109989000E-03 0.  1.
     -623   -1    0    0    0    0  0.00000000000E+00  0.00000000000E+00  0.12525980253E-10  0.17130000000E+03  0.17130000000E+03 0.  1.
       11    1    1    2    0    0  0.50210422081E-02  0.46995859767E-02  0.16295761471E-01  0.17694915604E-01  0.51109989000E-03 0.  1.
     -623    1    1    2    0    0 -0.28097841344E-02  0.39799675640E-02  0.16101652059E-02  0.17130000008E+03  0.17130000000E+03 0.  1.
      622    1    1    2    0    0 -0.22112580736E-02 -0.86795535409E-02  0.39820940409E+01  0.39823050077E+01  0.40000000000E-01 0.  1.
</event>
<event>
 5   0  0.7212170E+07  0.9118800E+02  0.7818608E-02  0.1180000E+00
       11   -1    0    0    0    0  0.00000000000E+00  0.00000000000E+00  0.39999999673E+01  0.40000000000E+01  0.51109989000E-03 0.  1.
     -623   -1    0    0    0    0  0.00000000000E+00  0.00000000000E+00  0.12525980253E-10  0.17130000000E+03  0.17130000000E+03 0.  1.
       11    1    1    2    0    0  0.19048746754E-02  0.10033012720E-01  0.26164641810E+00  0.26184613654E+00  0.51109989000E-03 0.  1.
     -623    1    1    2    0    0 -0.52463258313E-02 -0.64661612342E-02  0.41709951254E-03  0.17130000020E+03  0.17130000000E+03 0.  1.
      622    1    1    2    0    0  0.33414511557E-02 -0.35668514861E-02  0.37379364495E+01  0.37381536604E+01  0.40000000000E-01 0.  1.
</event>
<event>
 5   0  0.7212170E+07  0.9118800E+02  0.7818608E-02  0.1180000E+00
       11   -1    0    0    0    0  0.00000000000E+00  0.00000000000E+00  0.39999999673E+01  0.40000000000E+01  0.51109989000E-03 0.  1.
     -623   -1    0    0    0    0  0.00000000000E+00  0.00000000000E+00  0.12525980253E-10  0.17130000000E+03  0.17130000000E+03 0.  1.
       11    1    1    2    0    0  0.28188877260E-02 -0.38589771311E-03  0.28827058877E+00  0.28828508220E+00  0.51109989000E-03 0.  1.
     -623    1    1    2    0    0  0.11635021502E-02 -0.53778023806E-03  0.23225725788E-03  0.17130000000E+03  0.17130000000E+03 0.  1.
      622    1    1    2    0    0 -0.39823898764E-02  0.92367795127E-03  0.37114971221E+01  0.37117149136E+01  0.40000000000E-01 0.  0.
</event>
<event>
 5   0  0.7212170E+07  0.9118800E+02  0.7818608E-02  0.1180000E+00
       11   -1    0    0    0    0  0.00000000000E+00  0.00000000000E+00  0.39999999673E+01  0.40000000000E+01  0.51109989000E-03 0.  1.
     -623   -1    0    0    0    0  0.00000000000E+00  0.00000000000E+00  0.12525980253E-10  0.17130000000E+03  0.17130000000E+03 0. -1.
       11    1    1    2    0    0 -0.14556201912E-02 -0.20104970018E-01  0.27843265384E+00  0.27916183944E+00  0.51109989000E-03 0.  1.
     -623    1    1    2    0    0  0.27682392797E-02 -0.53622280321E-02  0.10316663534E-02  0.17130000011E+03  0.17130000000E+03 0. -1.
      622    1    1    2    0    0 -0.13126190886E-02  0.25467198050E-01  0.37205356472E+01  0.37208380512E+01  0.40000000000E-01 0.  1.
</event>
<event>
 5   0  0.7212170E+07  0.9118800E+02  0.7818608E-02  0.1180000E+00
       11   -1    0    0    0    0  0.00000000000E+00  0.00000000000E+00  0.39999999673E+01  0.40000000000E+01  0.51109989000E-03 0.  1.
     -623   -1    0    0    0    0  0.00000000000E+00  0.00000000000E+00  0.12525980253E-10  0.17130000000E+03  0.17130000000E+03 0.  1.
       11    1    1    2    0    0  0.14567340886E-02 -0.23487931270E-02  0.27248645087E-01  0.27393225176E-01  0.51109989000E-03 0.  1.
     -623    1    1    2    0    0 -0.19991095678E-02  0.46116660443E-03  0.34642980800E-03  0.17130000001E+03  0.17130000000E+03 0.  1.
      622    1    1    2    0    0  0.54237547996E-03  0.18876265224E-02  0.39724048939E+01  0.39726067636E+01  0.40000000000E-01 0.  1.
</event>
<event>
 5   0  0.7212170E+07  0.9118800E+02  0.7818608E-02  0.1180000E+00
       11   -1    0    0    0    0  0.00000000000E+00  0.00000000000E+00  0.39999999673E+01  0.40000000000E+01  0.51109989000E-03 0. -1.
     -623   -1    0    0    0    0  0.00000000000E+00  0.00000000000E+00  0.12525980253E-10  0.17130000000E+03  0.17130000000E+03 0. -1.
       11    1    1    2    0    0  0.21594216487E-02  0.25575760726E-02  0.89908665906E-01  0.89972405355E-01  0.51109989000E-03 0. -1.
     -623    1    1    2    0    0  0.83088147552E-03 -0.68572865604E-03  0.26990949655E-03  0.17130000000E+03  0.17130000000E+03 0. -1.
      622    1    1    2    0    0 -0.29903031241E-02 -0.18718474167E-02  0.39098213912E+01  0.39100275903E+01  0.40000000000E-01 0. -1.
</event>
<event>
 5   0  0.7212170E+07  0.9118800E+02  0.7818608E-02  0.1180000E+00
       11   -1    0    0    0    0  0.00000000000E+00  0.00000000000E+00  0.39999999673E+01  0.40000000000E+01  0.51109989000E-03 0. -1.
     -623   -1    0    0    0    0  0.00000000000E+00  0.00000000000E+00  0.12525980253E-10  0.17130000000E+03  0.17130000000E+03 0.  1.
       11    1    1    2    0    0 -0.89710464051E-03 -0.66795168211E-03  0.12762436830E-01  0.12821543321E-01  0.51109989000E-03 0. -1.
     -623    1    1    2    0    0 -0.34785111748E-03  0.64485977804E-03  0.25991824114E-03  0.17130000000E+03  0.17130000000E+03 0.  1.
      622    1    1    2    0    0  0.12449557580E-02  0.23091904111E-04  0.39869776120E+01  0.39871784546E+01  0.40000000000E-01 0. -1.
</event>
<event>
 5   0  0.7212170E+07  0.9118800E+02  0.7818608E-02  0.1180000E+00
       11   -1    0    0    0    0  0.00000000000E+00  0.00000000000E+00  0.39999999673E+01  0.40000000000E+01  0.51109989000E-03 0. -1.
     -623   -1    0    0    0    0  0.00000000000E+00  0.00000000000E+00  0.12525980253E-10  0.17130000000E+03  0.17130000000E+03 0.  1.
       11    1    1    2    0    0  0.11574289366E-01  0.44162899838E-02  0.61621080346E+00  0.61633552820E+00  0.51109989000E-03 0. -1.
     -623    1    1    2    0    0  0.23558274327E-02  0.13790647426E-02  0.39479238586E-03  0.17130000002E+03  0.17130000000E+03 0.  1.
      622    1    1    2    0    0 -0.13930116798E-01 -0.57953547264E-02  0.33833943714E+01  0.33836644495E+01  0.40000000000E-01 0.  0.
</event>
<event>
 5   0  0.7212170E+07  0.9118800E+02  0.7818608E-02  0.1180000E+00
       11   -1    0    0    0    0  0.00000000000E+00  0.00000000000E+00  0.39999999673E+01  0.40000000000E+01  0.51109989000E-03 0.  1.
     -623   -1    0    0    0    0  0.00000000000E+00  0.00000000000E+00  0.12525980253E-10  0.17130000000E+03  0.17130000000E+03 0. -1.
       11    1    1    2    0    0 -0.12924421358E-01  0.31050721855E-02  0.21572745542E+00  0.21613717492E+00  0.51109989000E-03 0.  1.
     -623    1    1    2    0    0 -0.12380827256E-01  0.15912379153E-02  0.70911018956E-03  0.17130000046E+03  0.17130000000E+03 0. -1.
      622    1    1    2    0    0  0.25305248614E-01 -0.46963101008E-02  0.37835634019E+01  0.37838623689E+01  0.40000000000E-01 0.  1.
</event>
<event>
 5   0  0.7212170E+07  0.9118800E+02  0.7818608E-02  0.1180000E+00
       11   -1    0    0    0    0  0.00000000000E+00  0.00000000000E+00  0.39999999673E+01  0.40000000000E+01  0.51109989000E-03 0.  1.
     -623   -1    0    0    0    0  0.00000000000E+00  0.00000000000E+00  0.12525980253E-10  0.17130000000E+03  0.17130000000E+03 0.  1.
       11    1    1    2    0    0  0.11101222605E-01  0.10491328031E-01  0.89288174513E+00  0.89301252909E+00  0.51109989000E-03 0.  1.
     -623    1    1    2    0    0  0.43796612498E-02 -0.12612072640E-01  0.42806182426E-03  0.17130000052E+03  0.17130000000E+03 0.  1.
      622    1    1    2    0    0 -0.15480883855E-01  0.21207446108E-02  0.31066901611E+01  0.31069869508E+01  0.40000000000E-01 0.  1.
</event>
<event>
 5   0  0.7212170E+07  0.9118800E+02  0.7818608E-02  0.1180000E+00
       11   -1    0    0    0    0  0.00000000000E+00  0.00000000000E+00  0.39999999673E+01  0.40000000000E+01  0.51109989000E-03 0. -1.
     -623   -1    0    0    0    0  0.00000000000E+00  0.00000000000E+00  0.12525980253E-10  0.17130000000E+03  0.17130000000E+03 0. -1.
       11    1    1    2    0    0  0.74192743379E-02 -0.60153420409E-02  0.13143750124E+00  0.13178508233E+00  0.51109989000E-03 0. -1.
     -623    1    1    2    0    0  0.99211172114E-04  0.69101950827E-03  0.56534164258E-03  0.17130000000E+03  0.17130000000E+03 0. -1.
      622    1    1    2    0    0 -0.75184855100E-02  0.53243225325E-02  0.38679971248E+01  0.38682149157E+01  0.40000000000E-01 0. -1.
</event>
<event>
 5   0  0.7212170E+07  0.9118800E+02  0.7818608E-02  0.1180000E+00
       11   -1    0    0    0    0  0.00000000000E+00  0.00000000000E+00  0.39999999673E+01  0.40000000000E+01  0.51109989000E-03 0. -1.
     -623   -1    0    0    0    0  0.00000000000E+00  0.00000000000E+00  0.12525980253E-10  0.17130000000E+03  0.17130000000E+03 0.  1.
       11    1    1    2    0    0 -0.30911491180E-02 -0.16180103313E-02  0.26452674806E-01  0.26686670601E-01  0.51109989000E-03 0. -1.
     -623    1    1    2    0    0  0.44486264597E-02  0.23318385662E-02  0.43568177344E-03  0.17130000007E+03  0.17130000000E+03 0.  1.
      622    1    1    2    0    0 -0.13574773416E-02 -0.71382823482E-03  0.39731116106E+01  0.39733132551E+01  0.40000000000E-01 0. -1.
</event>
<event>
 5   0  0.7212170E+07  0.9118800E+02  0.7818608E-02  0.1180000E+00
       11   -1    0    0    0    0  0.00000000000E+00  0.00000000000E+00  0.39999999673E+01  0.40000000000E+01  0.51109989000E-03 0.  1.
     -623   -1    0    0    0    0  0.00000000000E+00  0.00000000000E+00  0.12525980253E-10  0.17130000000E+03  0.17130000000E+03 0.  1.
       11    1    1    2    0    0  0.13803243338E-02 -0.11225836424E-02  0.31191568167E-01  0.31246449992E-01  0.51109989000E-03 0.  1.
     -623    1    1    2    0    0 -0.12428244703E-01  0.18196824085E-02  0.27232890850E-03  0.17130000046E+03  0.17130000000E+03 0.  1.
      622    1    1    2    0    0  0.11047920372E-01 -0.69709876644E-03  0.39685360710E+01  0.39687530900E+01  0.40000000000E-01 0.  1.
</event>
<event>
 5   0  0.7212170E+07  0.9118800E+02  0.7818608E-02  0.1180000E+00
       11   -1    0    0    0    0  0.00000000000E+00  0.00000000000E+00  0.39999999673E+01  0.40000000000E+01  0.51109989000E-03 0.  1.
     -623   -1    0    0    0    0  0.00000000000E+00  0.00000000000E+00  0.12525980253E-10  0.17130000000E+03  0.17130000000E+03 0.  1.
       11    1    1    2    0    0 -0.83178132124E-04 -0.18534536240E-04  0.44786177645E-02  0.45084922434E-02  0.51109989000E-03 0.  1.
     -623    1    1    2    0    0  0.25426833150E-03 -0.92853019875E-04  0.23007811929E-03  0.17130000000E+03  0.17130000000E+03 0.  1.
      622    1    1    2    0    0 -0.17109019943E-03  0.11138755614E-03  0.39952912724E+01  0.39954915083E+01  0.40000000000E-01 0.  1.
</event>
<event>
 5   0  0.7212170E+07  0.9118800E+02  0.7818608E-02  0.1180000E+00
       11   -1    0    0    0    0  0.00000000000E+00  0.00000000000E+00  0.39999999673E+01  0.40000000000E+01  0.51109989000E-03 0. -1.
     -623   -1    0    0    0    0  0.00000000000E+00  0.00000000000E+00  0.12525980253E-10  0.17130000000E+03  0.17130000000E+03 0. -1.
       11    1    1    2    0    0  0.62415940522E-03 -0.28103925698E-04  0.90387248013E-03  0.12118470826E-02  0.51109989000E-03 0. -1.
     -623    1    1    2    0    0 -0.21042188384E-02  0.82695110197E-03  0.50837696936E-03  0.17130000002E+03  0.17130000000E+03 0. -1.
      622    1    1    2    0    0  0.14800594336E-02 -0.79884717642E-03  0.39985877187E+01  0.39987881380E+01  0.40000000000E-01 0. -1.
</event>
<event>
 5   0  0.7212170E+07  0.9118800E+02  0.7818608E-02  0.1180000E+00
       11   -1    0    0    0    0  0.00000000000E+00  0.00000000000E+00  0.39999999673E+01  0.40000000000E+01  0.51109989000E-03 0.  1.
     -623   -1    0    0    0    0  0.00000000000E+00  0.00000000000E+00  0.12525980253E-10  0.17130000000E+03  0.17130000000E+03 0. -1.
       11    1    1    2    0    0 -0.60858159117E-03  0.55614437919E-03  0.21750996108E-02  0.23815855093E-02  0.51109989000E-03 0.  1.
     -623    1    1    2    0    0  0.39181930834E-03  0.25204426722E-03  0.40666611007E-03  0.17130000000E+03  0.17130000000E+03 0. -1.
      622    1    1    2    0    0  0.21676228290E-03 -0.80818864636E-03  0.39974182009E+01  0.39976184127E+01  0.40000000000E-01 0.  1.
</event>
<event>
 5   0  0.7212170E+07  0.9118800E+02  0.7818608E-02  0.1180000E+00
       11   -1    0    0    0    0  0.00000000000E+00  0.00000000000E+00  0.39999999673E+01  0.40000000000E+01  0.51109989000E-03 0. -1.
     -623   -1    0    0    0    0  0.00000000000E+00  0.00000000000E+00  0.12525980253E-10  0.17130000000E+03  0.17130000000E+03 0.  1.
       11    1    1    2    0    0  0.26795317851E-02 -0.10527115308E-01  0.11730105495E+00  0.11780406938E+00  0.51109989000E-03 0. -1.
     -623    1    1    2    0    0 -0.10613686717E-02  0.77500698218E-03  0.72164937762E-03  0.17130000001E+03  0.17130000000E+03 0.  1.
      622    1    1    2    0    0 -0.16181631134E-02  0.97521083262E-02  0.38819772632E+01  0.38821959242E+01  0.40000000000E-01 0. -1.
</event>
<event>
 5   0  0.7212170E+07  0.9118800E+02  0.7818608E-02  0.1180000E+00
       11   -1    0    0    0    0  0.00000000000E+00  0.00000000000E+00  0.39999999673E+01  0.40000000000E+01  0.51109989000E-03 0. -1.
     -623   -1    0    0    0    0  0.00000000000E+00  0.00000000000E+00  0.12525980253E-10  0.17130000000E+03  0.17130000000E+03 0.  1.
       11    1    1    2    0    0  0.80488374390E-02 -0.45338272558E-03  0.27530389095E-01  0.28690989645E-01  0.51109989000E-03 0. -1.
     -623    1    1    2    0    0 -0.39730295417E-02  0.44925456095E-02  0.13662742014E-02  0.17130000011E+03  0.17130000000E+03 0.  1.
      622    1    1    2    0    0 -0.40758078970E-02 -0.40391628842E-02  0.39711033044E+01  0.39713089002E+01  0.40000000000E-01 0. -1.
</event>
<event>
 5   0  0.7212170E+07  0.9118800E+02  0.7818608E-02  0.1180000E+00
       11   -1    0    0    0    0  0.00000000000E+00  0.00000000000E+00  0.39999999673E+01  0.40000000000E+01  0.51109989000E-03 0.  1.
     -623   -1    0    0    0    0  0.00000000000E+00  0.00000000000E+00  0.12525980253E-10  0.17130000000E+03  0.17130000000E+03 0.  1.
       11    1    1    2    0    0  0.18480196725E-03  0.55779587590E-03 -0.48926726813E-04  0.78032360494E-03  0.51109989000E-03 0.  1.
     -623    1    1    2    0    0 -0.16431664404E-02 -0.91037871937E-03  0.10295565749E-02  0.17130000001E+03  0.17130000000E+03 0.  1.
      622    1    1    2    0    0  0.14583644732E-02  0.35258284350E-03  0.39990193376E+01  0.39992196631E+01  0.40000000000E-01 0.  1.
</event>
<event>
 5   0  0.7212170E+07  0.9118800E+02  0.7818608E-02  0.1180000E+00
       11   -1    0    0    0    0  0.00000000000E+00  0.00000000000E+00  0.39999999673E+01  0.40000000000E+01  0.51109989000E-03 0. -1.
     -623   -1    0    0    0    0  0.00000000000E+00  0.00000000000E+00  0.12525980253E-10  0.17130000000E+03  0.17130000000E+03 0.  1.
       11    1    1    2    0    0 -0.57045885032E-01 -0.10842096459E-01  0.27850599717E+01  0.27856652870E+01  0.51109989000E-03 0. -1.
     -623    1    1    2    0    0  0.94329462588E-02 -0.32527434851E-02  0.22807706224E-02  0.17130000031E+03  0.17130000000E+03 0.  1.
      622    1    1    2    0    0  0.47612938773E-01  0.14094839944E-01  0.12126592250E+01  0.12143344072E+01  0.40000000000E-01 0.  0.
</event>
<event>
 5   0  0.7212170E+07  0.9118800E+02  0.7818608E-02  0.1180000E+00
       11   -1    0    0    0    0  0.00000000000E+00  0.00000000000E+00  0.39999999673E+01  0.40000000000E+01  0.51109989000E-03 0.  1.
     -623   -1    0    0    0    0  0.00000000000E+00  0.00000000000E+00  0.12525980253E-10  0.17130000000E+03  0.17130000000E+03 0. -1.
       11    1    1    2    0    0  0.29054805269E-01  0.70145826536E-03  0.35593301279E+01  0.35594488189E+01  0.51109989000E-03 0.  1.
     -623    1    1    2    0    0 -0.18300512967E-02  0.27545343791E-02  0.27975249639E-02  0.17130000005E+03  0.17130000000E+03 0. -1.
      622    1    1    2    0    0 -0.27224753973E-01 -0.34559926444E-02  0.43787231443E+00  0.44055112627E+00  0.40000000000E-01 0.  0.
</event>
<event>
 5   0  0.7212170E+07  0.9118800E+02  0.7818608E-02  0.1180000E+00
       11   -1    0    0    0    0  0.00000000000E+00  0.00000000000E+00  0.39999999673E+01  0.40000000000E+01  0.51109989000E-03 0.  1.
     -623   -1    0    0    0    0  0.00000000000E+00  0.00000000000E+00  0.12525980253E-10  0.17130000000E+03  0.17130000000E+03 0. -1.
       11    1    1    2    0    0  0.39527901992E-01  0.11990861826E-01  0.71501176979E-01  0.82576723934E-01  0.51109989000E-03 0.  1.
     -623    1    1    2    0    0 -0.10054681048E-01  0.10655887263E-01  0.11457091939E-01  0.17130000101E+03  0.17130000000E+03 0. -1.
      622    1    1    2    0    0 -0.29473220944E-01 -0.22646749089E-01  0.39170416985E+01  0.39174222664E+01  0.40000000000E-01 0.  1.
</event>
<event>
 5   0  0.7212170E+07  0.9118800E+02  0.7818608E-02  0.1180000E+00
       11   -1    0    0    0    0  0.00000000000E+00  0.00000000000E+00  0.39999999673E+01  0.40000000000E+01  0.51109989000E-03 0.  1.
     -623   -1    0    0    0    0  0.00000000000E+00  0.00000000000E+00  0.12525980253E-10  0.17130000000E+03  0.17130000000E+03 0. -1.
       11    1    1    2    0    0 -0.30769061405E-03 -0.26590786909E-03  0.54224329271E-03  0.84890010888E-03  0.51109989000E-03 0. -1.
     -623    1    1    2    0    0 -0.44832107599E-03 -0.57249202433E-03  0.50683327685E-03  0.17130000000E+03  0.17130000000E+03 0. -1.
      622    1    1    2    0    0  0.75601169015E-03  0.83839989357E-03  0.39989508918E+01  0.39991510986E+01  0.40000000000E-01 0.  1.
</event>
<event>
 5   0  0.7212170E+07  0.9118800E+02  0.7818608E-02  0.1180000E+00
       11   -1    0    0    0    0  0.00000000000E+00  0.00000000000E+00  0.39999999673E+01  0.40000000000E+01  0.51109989000E-03 0.  1.
     -623   -1    0    0    0    0  0.00000000000E+00  0.00000000000E+00  0.12525980253E-10  0.17130000000E+03  0.17130000000E+03 0. -1.
       11    1    1    2    0    0 -0.38284401838E-02 -0.47766624004E-02  0.35522234708E-01  0.36049463792E-01  0.51109989000E-03 0.  1.
     -623    1    1    2    0    0  0.11616031579E-02  0.77784544260E-02  0.73123633834E-03  0.17130000018E+03  0.17130000000E+03 0. -1.
      622    1    1    2    0    0  0.26668370260E-02 -0.30017920254E-02  0.39637464962E+01  0.39639503540E+01  0.40000000000E-01 0.  1.
</event>
<event>
 5   0  0.7212170E+07  0.9118800E+02  0.7818608E-02  0.1180000E+00
       11   -1    0    0    0    0  0.00000000000E+00  0.00000000000E+00  0.39999999673E+01  0.40000000000E+01  0.51109989000E-03 0.  1.
     -623   -1    0    0    0    0  0.00000000000E+00  0.00000000000E+00  0.12525980253E-10  0.17130000000E+03  0.17130000000E+03 0. -1.
       11    1    1    2    0    0  0.68438686642E-03  0.33421238064E-02  0.28013848682E-01  0.28225433885E-01  0.51109989000E-03 0.  1.
     -623    1    1    2    0    0 -0.26797213958E-03  0.32606280804E-03  0.41469581185E-03  0.17130000000E+03  0.17130000000E+03 0. -1.
      622    1    1    2    0    0 -0.41641472686E-03 -0.36681866144E-02  0.39715714227E+01  0.39717745649E+01  0.40000000000E-01 0.  1.
</event>
<event>
 5   0  0.7212170E+07  0.9118800E+02  0.7818608E-02  0.1180000E+00
       11   -1    0    0    0    0  0.00000000000E+00  0.00000000000E+00  0.39999999673E+01  0.40000000000E+01  0.51109989000E-03 0.  1.
     -623   -1    0    0    0    0  0.00000000000E+00  0.00000000000E+00  0.12525980253E-10  0.17130000000E+03  0.17130000000E+03 0. -1.
       11    1    1    2    0    0  0.86350269189E-02  0.50843025886E-02  0.64612111425E+00  0.64619901681E+00  0.51109989000E-03 0.  1.
     -623    1    1    2    0    0 -0.11547109061E-02  0.48568207620E-03  0.32938692526E-03  0.17130000000E+03  0.17130000000E+03 0. -1.
      622    1    1    2    0    0 -0.74803160124E-02 -0.55699846650E-02  0.33535494677E+01  0.33538009798E+01  0.40000000000E-01 0.  1.
</event>
<event>
 5   0  0.7212170E+07  0.9118800E+02  0.7818608E-02  0.1180000E+00
       11   -1    0    0    0    0  0.00000000000E+00  0.00000000000E+00  0.39999999673E+01  0.40000000000E+01  0.51109989000E-03 0. -1.
     -623   -1    0    0    0    0  0.00000000000E+00  0.00000000000E+00  0.12525980253E-10  0.17130000000E+03  0.17130000000E+03 0. -1.
       11    1    1    2    0    0  0.25719005280E-01  0.54745109927E-01  0.26402070482E+01  0.26408998491E+01  0.51109989000E-03 0. -1.
     -623    1    1    2    0    0 -0.30564335062E-02 -0.22930884966E-02  0.24837249328E-02  0.17130000006E+03  0.17130000000E+03 0. -1.
      622    1    1    2    0    0 -0.22662571773E-01 -0.52452021431E-01  0.13573091944E+01  0.13591000905E+01  0.40000000000E-01 0.  0.
</event>
<event>
 5   0  0.7212170E+07  0.9118800E+02  0.7818608E-02  0.1180000E+00
       11   -1    0    0    0    0  0.00000000000E+00  0.00000000000E+00  0.39999999673E+01  0.40000000000E+01  0.51109989000E-03 0. -1.
     -623   -1    0    0    0    0  0.00000000000E+00  0.00000000000E+00  0.12525980253E-10  0.17130000000E+03  0.17130000000E+03 0. -1.
       11    1    1    2    0    0  0.76773725215E-02  0.13078248592E-02  0.17523594125E+00  0.17540965990E+00  0.51109989000E-03 0. -1.
     -623    1    1    2    0    0 -0.69919930424E-03  0.29604723128E-02  0.39164016707E-03  0.17130000003E+03  0.17130000000E+03 0. -1.
      622    1    1    2    0    0 -0.69781732171E-02 -0.42682971724E-02  0.38243723866E+01  0.38245903133E+01  0.40000000000E-01 0. -1.
</event>
<event>
 5   0  0.7212170E+07  0.9118800E+02  0.7818608E-02  0.1180000E+00
       11   -1    0    0    0    0  0.00000000000E+00  0.00000000000E+00  0.39999999673E+01  0.40000000000E+01  0.51109989000E-03 0.  1.
     -623   -1    0    0    0    0  0.00000000000E+00  0.00000000000E+00  0.12525980253E-10  0.17130000000E+03  0.17130000000E+03 0. -1.
       11    1    1    2    0    0  0.14088206633E-02 -0.15004189938E-02  0.36020882577E-02  0.41799875277E-02  0.51109989000E-03 0.  1.
     -623    1    1    2    0    0  0.85944624737E-02 -0.40005719889E-02  0.79465375102E-03  0.17130000026E+03  0.17130000000E+03 0. -1.
      622    1    1    2    0    0 -0.10003283138E-01  0.55009909831E-02  0.39956032258E+01  0.39958197487E+01  0.40000000000E-01 0.  1.
</event>
<event>
 5   0  0.7212170E+07  0.9118800E+02  0.7818608E-02  0.1180000E+00
       11   -1    0    0    0    0  0.00000000000E+00  0.00000000000E+00  0.39999999673E+01  0.40000000000E+01  0.51109989000E-03 0.  1.
     -623   -1    0    0    0    0  0.00000000000E+00  0.00000000000E+00  0.12525980253E-10  0.17130000000E+03  0.17130000000E+03 0.  1.
       11    1    1    2    0    0 -0.21652141409E-01 -0.91464935946E-02  0.60781269979E+00  0.60826722156E+00  0.51109989000E-03 0.  1.
     -623    1    1    2    0    0 -0.13375428140E-01 -0.42401601031E-02  0.89825113056E-03  0.17130000058E+03  0.17130000000E+03 0.  1.
      622    1    1    2    0    0  0.35027569551E-01  0.13386653698E-01  0.33912890168E+01  0.33917322018E+01  0.40000000000E-01 0.  0.
</event>
<event>
 5   0  0.7212170E+07  0.9118800E+02  0.7818608E-02  0.1180000E+00
       11   -1    0    0    0    0  0.00000000000E+00  0.00000000000E+00  0.39999999673E+01  0.40000000000E+01  0.51109989000E-03 0. -1.
     -623   -1    0    0    0    0  0.00000000000E+00  0.00000000000E+00  0.12525980253E-10  0.17130000000E+03  0.17130000000E+03 0. -1.
       11    1    1    2    0    0  0.30664075094E-02 -0.24520075426E-02  0.50696739589E-01  0.50851114285E-01  0.51109989000E-03 0. -1.
     -623    1    1    2    0    0  0.25809314311E-04 -0.30209795087E-03  0.35909426538E-03  0.17130000000E+03  0.17130000000E+03 0. -1.
      622    1    1    2    0    0 -0.30922168237E-02  0.27541054934E-02  0.39489441334E+01  0.39491488849E+01  0.40000000000E-01 0. -1.
</event>
<event>
 5   0  0.7212170E+07  0.9118800E+02  0.7818608E-02  0.1180000E+00
       11   -1    0    0    0    0  0.00000000000E+00  0.00000000000E+00  0.39999999673E+01  0.40000000000E+01  0.51109989000E-03 0.  1.
     -623   -1    0    0    0    0  0.00000000000E+00  0.00000000000E+00  0.12525980253E-10  0.17130000000E+03  0.17130000000E+03 0. -1.
       11    1    1    2    0    0 -0.84427184446E-02  0.20758375778E-01  0.47396163853E+00  0.47449139684E+00  0.51109989000E-03 0.  1.
     -623    1    1    2    0    0 -0.13678180570E-01  0.12411730985E-02  0.89525402358E-03  0.17130000055E+03  0.17130000000E+03 0. -1.
      622    1    1    2    0    0  0.22120899016E-01 -0.21999548876E-01  0.35251430751E+01  0.35255080505E+01  0.40000000000E-01 0.  1.
</event>
<event>
 5   0  0.7212170E+07  0.9118800E+02  0.7818608E-02  0.1180000E+00
       11   -1    0    0    0    0  0.00000000000E+00  0.00000000000E+00  0.39999999673E+01  0.40000000000E+01  0.51109989000E-03 0. -1.
     -623   -1    0    0    0    0  0.00000000000E+00  0.00000000000E+00  0.12525980253E-10  0.17130000000E+03  0.17130000000E+03 0.  1.
       11    1    1    2    0    0  0.29745725929E-02 -0.24771877324E-01  0.22537116952E+01  0.22538498531E+01  0.51109989000E-03 0. -1.
     -623    1    1    2    0    0 -0.17338893320E-01  0.19113040253E-01  0.66655296093E-03  0.17130000195E+03  0.17130000000E+03 0.  1.
      622    1    1    2    0    0  0.14364320732E-01  0.56588370654E-02  0.17456217203E+01  0.17461482029E+01  0.40000000000E-01 0. -1.
</event>
<event>
 5   0  0.7212170E+07  0.9118800E+02  0.7818608E-02  0.1180000E+00
       11   -1    0    0    0    0  0.00000000000E+00  0.00000000000E+00  0.39999999673E+01  0.40000000000E+01  0.51109989000E-03 0. -1.
     -623   -1    0    0    0    0  0.00000000000E+00  0.00000000000E+00  0.12525980253E-10  0.17130000000E+03  0.17130000000E+03 0. -1.
       11    1    1    2    0    0  0.17261839962E-01 -0.17756015046E-01  0.30707999376E+01  0.30708998299E+01  0.51109989000E-03 0. -1.
     -623    1    1    2    0    0 -0.57723960935E-02  0.18265804053E-01  0.10336315378E-02  0.17130000107E+03  0.17130000000E+03 0. -1.
      622    1    1    2    0    0 -0.11489443867E-01 -0.50978901060E-03  0.92816639890E+00  0.92909909658E+00  0.40000000000E-01 0.  1.
</event>
<event>
 5   0  0.7212170E+07  0.9118800E+02  0.7818608E-02  0.1180000E+00
       11   -1    0    0    0    0  0.00000000000E+00  0.00000000000E+00  0.39999999673E+01  0.40000000000E+01  0.51109989000E-03 0. -1.
     -623   -1    0    0    0    0  0.00000000000E+00  0.00000000000E+00  0.12525980253E-10  0.17130000000E+03  0.17130000000E+03 0.  1.
       11    1    1    2    0    0  0.38547963143E-02 -0.79132724856E-02  0.20127198833E+01  0.20127391955E+01  0.51109989000E-03 0. -1.
     -623    1    1    2    0    0  0.14752398917E-02 -0.57084078489E-03  0.44715595420E-03  0.17130000001E+03  0.17130000000E+03 0.  1.
      622    1    1    2    0    0 -0.53300362065E-02  0.84841132707E-02  0.19868329296E+01  0.19872607980E+01  0.40000000000E-01 0. -1.
</event>
<event>
 5   0  0.7212170E+07  0.9118800E+02  0.7818608E-02  0.1180000E+00
       11   -1    0    0    0    0  0.00000000000E+00  0.00000000000E+00  0.39999999673E+01  0.40000000000E+01  0.51109989000E-03 0. -1.
     -623   -1    0    0    0    0  0.00000000000E+00  0.00000000000E+00  0.12525980253E-10  0.17130000000E+03  0.17130000000E+03 0.  1.
       11    1    1    2    0    0  0.38586781021E-02 -0.43041887167E-02  0.86777899256E-01  0.86971722184E-01  0.51109989000E-03 0. -1.
     -623    1    1    2    0    0 -0.30701119987E-02  0.42416968436E-02  0.39840132319E-03  0.17130000008E+03  0.17130000000E+03 0.  1.
      622    1    1    2    0    0 -0.78856610388E-03  0.62491873653E-04  0.39128236663E+01  0.39130281968E+01  0.40000000000E-01 0. -1.
</event>
<event>
 5   0  0.7212170E+07  0.9118800E+02  0.7818608E-02  0.1180000E+00
       11   -1    0    0    0    0  0.00000000000E+00  0.00000000000E+00  0.39999999673E+01  0.40000000000E+01  0.51109989000E-03 0.  1.
     -623   -1    0    0    0    0  0.00000000000E+00  0.00000000000E+00  0.12525980253E-10  0.17130000000E+03  0.17130000000E+03 0. -1.
       11    1    1    2    0    0  0.40977573032E-03 -0.53568546714E-02  0.98986186410E-01  0.99133193892E-01  0.51109989000E-03 0.  1.
     -623    1    1    2    0    0  0.18411313018E-02  0.16696712497E-02  0.35447340273E-03  0.17130000002E+03  0.17130000000E+03 0. -1.
      622    1    1    2    0    0 -0.22509070322E-02  0.36871834217E-02  0.39006593077E+01  0.39008667879E+01  0.40000000000E-01 0.  1.
</event>
<event>
 5   0  0.7212170E+07  0.9118800E+02  0.7818608E-02  0.1180000E+00
       11   -1    0    0    0    0  0.00000000000E+00  0.00000000000E+00  0.39999999673E+01  0.40000000000E+01  0.51109989000E-03 0.  1.
     -623   -1    0    0    0    0  0.00000000000E+00  0.00000000000E+00  0.12525980253E-10  0.17130000000E+03  0.17130000000E+03 0.  1.
       11    1    1    2    0    0  0.71640331806E-03  0.93973975668E-05  0.17042105892E-02  0.19180403685E-02  0.51109989000E-03 0.  1.
     -623    1    1    2    0    0 -0.37989480990E-03 -0.13792885223E-03  0.41391529984E-03  0.17130000000E+03  0.17130000000E+03 0.  1.
      622    1    1    2    0    0 -0.33650850811E-03  0.12853145468E-03  0.39978818420E+01  0.39980819592E+01  0.40000000000E-01 0.  1.
</event>
<event>
 5   0  0.7212170E+07  0.9118800E+02  0.7818608E-02  0.1180000E+00
       11   -1    0    0    0    0  0.00000000000E+00  0.00000000000E+00  0.39999999673E+01  0.40000000000E+01  0.51109989000E-03 0.  1.
     -623   -1    0    0    0    0  0.00000000000E+00  0.00000000000E+00  0.12525980253E-10  0.17130000000E+03  0.17130000000E+03 0. -1.
       11    1    1    2    0    0 -0.14245474966E-01 -0.23653951324E-01  0.84892410350E-01  0.89271638993E-01  0.51109989000E-03 0.  1.
     -623    1    1    2    0    0  0.16948136607E-01  0.11653924791E-01  0.46044095377E-02  0.17130000130E+03  0.17130000000E+03 0. -1.
      622    1    1    2    0    0 -0.27026616415E-02  0.12000026533E-01  0.39105031475E+01  0.39107270643E+01  0.40000000000E-01 0.  1.
</event>
<event>
 5   0  0.7212170E+07  0.9118800E+02  0.7818608E-02  0.1180000E+00
       11   -1    0    0    0    0  0.00000000000E+00  0.00000000000E+00  0.39999999673E+01  0.40000000000E+01  0.51109989000E-03 0.  1.
     -623   -1    0    0    0    0  0.00000000000E+00  0.00000000000E+00  0.12525980253E-10  0.17130000000E+03  0.17130000000E+03 0. -1.
       11    1    1    2    0    0  0.38473991302E-02  0.15846237670E-02  0.94704023085E-01  0.94796765368E-01  0.51109989000E-03 0.  1.
     -623    1    1    2    0    0 -0.10613249780E-02 -0.15568826255E-02  0.29857451425E-03  0.17130000001E+03  0.17130000000E+03 0. -1.
      622    1    1    2    0    0 -0.27860741517E-02 -0.27741140840E-04  0.39049973715E+01  0.39052032257E+01  0.40000000000E-01 0.  1.
</event>
<event>
 5   0  0.7212170E+07  0.9118800E+02  0.7818608E-02  0.1180000E+00
       11   -1    0    0    0    0  0.00000000000E+00  0.00000000000E+00  0.39999999673E+01  0.40000000000E+01  0.51109989000E-03 0.  1.
     -623   -1    0    0    0    0  0.00000000000E+00  0.00000000000E+00  0.12525980253E-10  0.17130000000E+03  0.17130000000E+03 0. -1.
       11    1    1    2    0    0  0.35306100524E-01 -0.44420400799E-01  0.70575026809E+00  0.70802782069E+00  0.51109989000E-03 0.  1.
     -623    1    1    2    0    0  0.86673106354E-02  0.49483310459E-02  0.30512806071E-02  0.17130000032E+03  0.17130000000E+03 0. -1.
      622    1    1    2    0    0 -0.43973411160E-01  0.39472069753E-01  0.32911984188E+01  0.32919718615E+01  0.40000000000E-01 0.  1.
</event>
<event>
 5   0  0.7212170E+07  0.9118800E+02  0.7818608E-02  0.1180000E+00
       11   -1    0    0    0    0  0.00000000000E+00  0.00000000000E+00  0.39999999673E+01  0.40000000000E+01  0.51109989000E-03 0.  1.
     -623   -1    0    0    0    0  0.00000000000E+00  0.00000000000E+00  0.12525980253E-10  0.17130000000E+03  0.17130000000E+03 0. -1.
       11    1    1    2    0    0 -0.15657909133E-01 -0.49642663133E-02  0.14733812342E+01  0.14734728829E+01  0.51109989000E-03 0.  1.
     -623    1    1    2    0    0  0.85062316022E-03 -0.50172331165E-03  0.45758958175E-03  0.17130000000E+03  0.17130000000E+03 0. -1.
      622    1    1    2    0    0  0.14807285972E-01  0.54659896249E-02  0.25261611437E+01  0.25265271138E+01  0.40000000000E-01 0.  1.
</event>
<event>
 5   0  0.7212170E+07  0.9118800E+02  0.7818608E-02  0.1180000E+00
       11   -1    0    0    0    0  0.00000000000E+00  0.00000000000E+00  0.39999999673E+01  0.40000000000E+01  0.51109989000E-03 0. -1.
     -623   -1    0    0    0    0  0.00000000000E+00  0.00000000000E+00  0.12525980253E-10  0.17130000000E+03  0.17130000000E+03 0.  1.
       11    1    1    2    0    0  0.46883112123E-02 -0.35761397795E-01  0.80864561294E+00  0.80944971826E+00  0.51109989000E-03 0. -1.
     -623    1    1    2    0    0 -0.16403479934E-02  0.20147308689E-01  0.10956850253E-02  0.17130000120E+03  0.17130000000E+03 0.  1.
      622    1    1    2    0    0 -0.30479632187E-02  0.15614089105E-01  0.31902586697E+01  0.31905490859E+01  0.40000000000E-01 0.  0.
</event>
<event>
 5   0  0.7212170E+07  0.9118800E+02  0.7818608E-02  0.1180000E+00
       11   -1    0    0    0    0  0.00000000000E+00  0.00000000000E+00  0.39999999673E+01  0.40000000000E+01  0.51109989000E-03 0.  1.
     -623   -1    0    0    0    0  0.00000000000E+00  0.00000000000E+00  0.12525980253E-10  0.17130000000E+03  0.17130000000E+03 0. -1.
       11    1    1    2    0    0  0.16311654685E-02 -0.62738379593E-02  0.18478383287E+00  0.18489820944E+00  0.51109989000E-03 0.  1.
     -623    1    1    2    0    0 -0.40135325512E-02 -0.32980729614E-02  0.33687406902E-03  0.17130000008E+03  0.17130000000E+03 0. -1.
      622    1    1    2    0    0  0.23823670829E-02  0.95719109209E-02  0.38148792607E+01  0.38151017117E+01  0.40000000000E-01 0.  1.
</event>
<event>
 5   0  0.7212170E+07  0.9118800E+02  0.7818608E-02  0.1180000E+00
       11   -1    0    0    0    0  0.00000000000E+00  0.00000000000E+00  0.39999999673E+01  0.40000000000E+01  0.51109989000E-03 0.  1.
     -623   -1    0    0    0    0  0.00000000000E+00  0.00000000000E+00  0.12525980253E-10  0.17130000000E+03  0.17130000000E+03 0.  1.
       11    1    1    2    0    0  0.10797115976E-01 -0.23848820598E-02  0.11016465646E+00  0.11071936656E+00  0.51109989000E-03 0.  1.
     -623    1    1    2    0    0 -0.16773061404E-01 -0.46168393836E-03  0.76683310199E-03  0.17130000082E+03  0.17130000000E+03 0.  1.
      622    1    1    2    0    0  0.59759454278E-02  0.28465659982E-02  0.38890684778E+01  0.38892798099E+01  0.40000000000E-01 0.  1.
</event>
<event>
 5   0  0.7212170E+07  0.9118800E+02  0.7818608E-02  0.1180000E+00
       11   -1    0    0    0    0  0.00000000000E+00  0.00000000000E+00  0.39999999673E+01  0.40000000000E+01  0.51109989000E-03 0.  1.
     -623   -1    0    0    0    0  0.00000000000E+00  0.00000000000E+00  0.12525980253E-10  0.17130000000E+03  0.17130000000E+03 0.  1.
       11    1    1    2    0    0 -0.37499017363E-01  0.34905340048E-01  0.14641301916E+01  0.14650262927E+01  0.51109989000E-03 0.  1.
     -623    1    1    2    0    0 -0.26431238809E-01 -0.47548943152E-03  0.22540220080E-02  0.17130000205E+03  0.17130000000E+03 0.  1.
      622    1    1    2    0    0  0.63930256172E-01 -0.34429850616E-01  0.25336157537E+01  0.25349716526E+01  0.40000000000E-01 0.  0.
</event>
<event>
 5   0  0.7212170E+07  0.9118800E+02  0.7818608E-02  0.1180000E+00
       11   -1    0    0    0    0  0.00000000000E+00  0.00000000000E+00  0.39999999673E+01  0.40000000000E+01  0.51109989000E-03 0.  1.
     -623   -1    0    0    0    0  0.00000000000E+00  0.00000000000E+00  0.12525980253E-10  0.17130000000E+03  0.17130000000E+03 0. -1.
       11    1    1    2    0    0 -0.23869743482E-02 -0.13433678571E-01  0.14562398500E+01  0.14563038568E+01  0.51109989000E-03 0.  1.
     -623    1    1    2    0    0  0.33706788797E-02  0.24540463757E-02  0.40243736050E-03  0.17130000005E+03  0.17130000000E+03 0. -1.
      622    1    1    2    0    0 -0.98370453150E-03  0.10979632196E-01  0.25433576801E+01  0.25436960921E+01  0.40000000000E-01 0.  1.
</event>
<event>
 5   0  0.7212170E+07  0.9118800E+02  0.7818608E-02  0.1180000E+00
       11   -1    0    0    0    0  0.00000000000E+00  0.00000000000E+00  0.39999999673E+01  0.40000000000E+01  0.51109989000E-03 0.  1.
     -623   -1    0    0    0    0  0.00000000000E+00  0.00000000000E+00  0.12525980253E-10  0.17130000000E+03  0.17130000000E+03 0. -1.
       11    1    1    2    0    0  0.29685044773E-03 -0.42719341222E-02  0.33862116351E-01  0.34135636631E-01  0.51109989000E-03 0.  1.
     -623    1    1    2    0    0 -0.11849711369E-02  0.13017123985E-02  0.47643572475E-03  0.17130000001E+03  0.17130000000E+03 0. -1.
      622    1    1    2    0    0  0.88812068934E-03  0.29702217235E-02  0.39656614160E+01  0.39658643544E+01  0.40000000000E-01 0.  1.
</event>
<event>
 5   0  0.7212170E+07  0.9118800E+02  0.7818608E-02  0.1180000E+00
       11   -1    0    0    0    0  0.00000000000E+00  0.00000000000E+00  0.39999999673E+01  0.40000000000E+01  0.51109989000E-03 0.  1.
     -623   -1    0    0    0    0  0.00000000000E+00  0.00000000000E+00  0.12525980253E-10  0.17130000000E+03  0.17130000000E+03 0. -1.
       11    1    1    2    0    0 -0.26453503261E-02  0.30070968826E-02  0.12800910477E-01  0.13422557213E-01  0.51109989000E-03 0.  1.
     -623    1    1    2    0    0  0.16472341317E-02  0.33661419078E-03  0.82383004878E-03  0.17130000001E+03  0.17130000000E+03 0. -1.
      622    1    1    2    0    0  0.99811619433E-03 -0.33437110734E-02  0.39863752270E+01  0.39865774328E+01  0.40000000000E-01 0.  1.
</event>
<event>
 5   0  0.7212170E+07  0.9118800E+02  0.7818608E-02  0.1180000E+00
       11   -1    0    0    0    0  0.00000000000E+00  0.00000000000E+00  0.39999999673E+01  0.40000000000E+01  0.51109989000E-03 0. -1.
     -623   -1    0    0    0    0  0.00000000000E+00  0.00000000000E+00  0.12525980253E-10  0.17130000000E+03  0.17130000000E+03 0.  1.
       11    1    1    2    0    0 -0.46647909833E-02  0.57363267276E-02  0.71585954378E+00  0.71589790708E+00  0.51109989000E-03 0. -1.
     -623    1    1    2    0    0  0.31383071916E-03  0.26665038865E-02  0.29559192019E-03  0.17130000002E+03  0.17130000000E+03 0.  1.
      622    1    1    2    0    0  0.43509602641E-02 -0.84028306143E-02  0.32838448320E+01  0.32841020720E+01  0.40000000000E-01 0.  0.
</event>
<event>
 5   0  0.7212170E+07  0.9118800E+02  0.7818608E-02  0.1180000E+00
       11   -1    0    0    0    0  0.00000000000E+00  0.00000000000E+00  0.39999999673E+01  0.40000000000E+01  0.51109989000E-03 0.  1.
     -623   -1    0    0    0    0  0.00000000000E+00  0.00000000000E+00  0.12525980253E-10  0.17130000000E+03  0.17130000000E+03 0. -1.
       11    1    1    2    0    0 -0.30356999670E-01  0.27265230589E-01  0.15045758835E+01  0.15051291608E+01  0.51109989000E-03 0.  1.
     -623    1    1    2    0    0 -0.85176644902E-02  0.17926125904E-02  0.13463431465E-02  0.17130000023E+03  0.17130000000E+03 0. -1.
      622    1    1    2    0    0  0.38874664160E-01 -0.29057843180E-01  0.24940777406E+01  0.24948706127E+01  0.40000000000E-01 0.  0.
</event>
<event>
 5   0  0.7212170E+07  0.9118800E+02  0.7818608E-02  0.1180000E+00
       11   -1    0    0    0    0  0.00000000000E+00  0.00000000000E+00  0.39999999673E+01  0.40000000000E+01  0.51109989000E-03 0. -1.
     -623   -1    0    0    0    0  0.00000000000E+00  0.00000000000E+00  0.12525980253E-10  0.17130000000E+03  0.17130000000E+03 0.  1.
       11    1    1    2    0    0  0.25520517258E-03 -0.10672291308E-02  0.32558986387E-02  0.34736445905E-02  0.51109989000E-03 0. -1.
     -623    1    1    2    0    0  0.97772528741E-03 -0.80559646612E-03  0.41852638120E-03  0.17130000001E+03  0.17130000000E+03 0.  1.
      622    1    1    2    0    0 -0.12329304599E-02  0.18728255969E-02  0.39963255421E+01  0.39965263500E+01  0.40000000000E-01 0. -1.
</event>
<event>
 5   0  0.7212170E+07  0.9118800E+02  0.7818608E-02  0.1180000E+00
       11   -1    0    0    0    0  0.00000000000E+00  0.00000000000E+00  0.39999999673E+01  0.40000000000E+01  0.51109989000E-03 0.  1.
     -623   -1    0    0    0    0  0.00000000000E+00  0.00000000000E+00  0.12525980253E-10  0.17130000000E+03  0.17130000000E+03 0.  1.
       11    1    1    2    0    0 -0.27286067986E-02 -0.70257226526E-02  0.21254833474E+01  0.21254967719E+01  0.51109989000E-03 0.  1.
     -623    1    1    2    0    0  0.39626202497E-02  0.59033088512E-02  0.44111074527E-03  0.17130000015E+03  0.17130000000E+03 0.  1.
      622    1    1    2    0    0 -0.12340134503E-02  0.11224138026E-02  0.18740755084E+01  0.18745030791E+01  0.40000000000E-01 0. -1.
</event>
<event>
 5   0  0.7212170E+07  0.9118800E+02  0.7818608E-02  0.1180000E+00
       11   -1    0    0    0    0  0.00000000000E+00  0.00000000000E+00  0.39999999673E+01  0.40000000000E+01  0.51109989000E-03 0.  1.
     -623   -1    0    0    0    0  0.00000000000E+00  0.00000000000E+00  0.12525980253E-10  0.17130000000E+03  0.17130000000E+03 0.  1.
       11    1    1    2    0    0 -0.65390266641E-02  0.35227448524E-02  0.99031424939E-01  0.99310890388E-01  0.51109989000E-03 0.  1.
     -623    1    1    2    0    0  0.25712186659E-03 -0.19721097373E-02  0.48990928869E-03  0.17130000001E+03  0.17130000000E+03 0.  1.
      622    1    1    2    0    0  0.62819047975E-02 -0.15506351149E-02  0.39004786337E+01  0.39006890979E+01  0.40000000000E-01 0.  1.
</event>
<event>
 5   0  0.7212170E+07  0.9118800E+02  0.7818608E-02  0.1180000E+00
       11   -1    0    0    0    0  0.00000000000E+00  0.00000000000E+00  0.39999999673E+01  0.40000000000E+01  0.51109989000E-03 0. -1.
     -623   -1    0    0    0    0  0.00000000000E+00  0.00000000000E+00  0.12525980253E-10  0.17130000000E+03  0.17130000000E+03 0.  1.
       11    1    1    2    0    0 -0.20451985631E-02  0.74041193878E-02  0.72784286045E-01  0.73190281727E-01  0.51109989000E-03 0. -1.
     -623    1    1    2    0    0 -0.22541951795E-02  0.78709341045E-02  0.64195790209E-03  0.17130000020E+03  0.17130000000E+03 0.  1.
      622    1    1    2    0    0  0.42993937428E-02 -0.15275053493E-01  0.39265737236E+01  0.39268095216E+01  0.40000000000E-01 0. -1.
</event>
<event>
 5   0  0.7212170E+07  0.9118800E+02  0.7818608E-02  0.1180000E+00
       11   -1    0    0    0    0  0.00000000000E+00  0.00000000000E+00  0.39999999673E+01  0.40000000000E+01  0.51109989000E-03 0. -1.
     -623   -1    0    0    0    0  0.00000000000E+00  0.00000000000E+00  0.12525980253E-10  0.17130000000E+03  0.17130000000E+03 0.  1.
       11    1    1    2    0    0 -0.17860963097E-03 -0.19478097717E-02  0.47942749792E-01  0.47985355527E-01  0.51109989000E-03 0. -1.
     -623    1    1    2    0    0 -0.25067166790E-03  0.95823088390E-03  0.24515693509E-03  0.17130000000E+03  0.17130000000E+03 0.  1.
      622    1    1    2    0    0  0.42928129887E-03  0.98957888778E-03  0.39518120607E+01  0.39520146415E+01  0.40000000000E-01 0. -1.
</event>
<event>
 5   0  0.7212170E+07  0.9118800E+02  0.7818608E-02  0.1180000E+00
       11   -1    0    0    0    0  0.00000000000E+00  0.00000000000E+00  0.39999999673E+01  0.40000000000E+01  0.51109989000E-03 0.  1.
     -623   -1    0    0    0    0  0.00000000000E+00  0.00000000000E+00  0.12525980253E-10  0.17130000000E+03  0.17130000000E+03 0. -1.
       11    1    1    2    0    0  0.33124496920E-02 -0.11675929790E-02  0.91493175781E-02  0.98136044127E-02  0.51109989000E-03 0.  1.
     -623    1    1    2    0    0 -0.69544662676E-03  0.35049061208E-02  0.86633340938E-03  0.17130000004E+03  0.17130000000E+03 0. -1.
      622    1    1    2    0    0 -0.26170030652E-02 -0.23373131421E-02  0.39899843167E+01  0.39901863564E+01  0.40000000000E-01 0.  1.
</event>
<event>
 5   0  0.7212170E+07  0.9118800E+02  0.7818608E-02  0.1180000E+00
       11   -1    0    0    0    0  0.00000000000E+00  0.00000000000E+00  0.39999999673E+01  0.40000000000E+01  0.51109989000E-03 0. -1.
     -623   -1    0    0    0    0  0.00000000000E+00  0.00000000000E+00  0.12525980253E-10  0.17130000000E+03  0.17130000000E+03 0.  1.
       11    1    1    2    0    0  0.34204854718E-02 -0.80746965817E-04  0.14607872376E-01  0.15011908586E-01  0.51109989000E-03 0. -1.
     -623    1    1    2    0    0 -0.14639262751E-02  0.19059056115E-02  0.60567831183E-03  0.17130000002E+03  0.17130000000E+03 0.  1.
      622    1    1    2    0    0 -0.19565591965E-02 -0.18251586458E-02  0.39847864170E+01  0.39849880738E+01  0.40000000000E-01 0. -1.
</event>
<event>
 5   0  0.7212170E+07  0.9118800E+02  0.7818608E-02  0.1180000E+00
       11   -1    0    0    0    0  0.00000000000E+00  0.00000000000E+00  0.39999999673E+01  0.40000000000E+01  0.51109989000E-03 0. -1.
     -623   -1    0    0    0    0  0.00000000000E+00  0.00000000000E+00  0.12525980253E-10  0.17130000000E+03  0.17130000000E+03 0. -1.
       11    1    1    2    0    0 -0.94296375891E-02 -0.54121827819E-02  0.92366811099E+00  0.92373223948E+00  0.51109989000E-03 0. -1.
     -623    1    1    2    0    0  0.24844565922E-02 -0.44818603062E-02  0.34799214358E-03  0.17130000008E+03  0.17130000000E+03 0. -1.
      622    1    1    2    0    0  0.69451809969E-02  0.98940430881E-02  0.30759838643E+01  0.30762676835E+01  0.40000000000E-01 0. -1.
</event>
<event>
 5   0  0.7212170E+07  0.9118800E+02  0.7818608E-02  0.1180000E+00
       11   -1    0    0    0    0  0.00000000000E+00  0.00000000000E+00  0.39999999673E+01  0.40000000000E+01  0.51109989000E-03 0. -1.
     -623   -1    0    0    0    0  0.00000000000E+00  0.00000000000E+00  0.12525980253E-10  0.17130000000E+03  0.17130000000E+03 0. -1.
       11    1    1    2    0    0 -0.41922111595E-01  0.43796215790E-02  0.33246365951E+01  0.33249038174E+01  0.51109989000E-03 0. -1.
     -623    1    1    2    0    0 -0.81755751002E-03  0.40335448529E-02  0.28625945835E-02  0.17130000007E+03  0.17130000000E+03 0. -1.
      622    1    1    2    0    0  0.42739669105E-01 -0.84131664319E-02  0.67250077764E+00  0.67509610916E+00  0.40000000000E-01 0.  1.
</event>
<event>
 5   0  0.7212170E+07  0.9118800E+02  0.7818608E-02  0.1180000E+00
       11   -1    0    0    0    0  0.00000000000E+00  0.00000000000E+00  0.39999999673E+01  0.40000000000E+01  0.51109989000E-03 0. -1.
     -623   -1    0    0    0    0  0.00000000000E+00  0.00000000000E+00  0.12525980253E-10  0.17130000000E+03  0.17130000000E+03 0.  1.
       11    1    1    2    0    0 -0.44274803313E-03  0.13629228617E-03  0.64815391055E-03  0.94653473123E-03  0.51109989000E-03 0. -1.
     -623    1    1    2    0    0  0.30785320529E-03  0.17784690411E-03  0.49841623053E-03  0.17130000000E+03  0.17130000000E+03 0.  1.
      622    1    1    2    0    0  0.13489482781E-03 -0.31413919029E-03  0.39988533976E+01  0.39990534646E+01  0.40000000000E-01 0. -1.
</event>
<event>
 5   0  0.7212170E+07  0.9118800E+02  0.7818608E-02  0.1180000E+00
       11   -1    0    0    0    0  0.00000000000E+00  0.00000000000E+00  0.39999999673E+01  0.40000000000E+01  0.51109989000E-03 0. -1.
     -623   -1    0    0    0    0  0.00000000000E+00  0.00000000000E+00  0.12525980253E-10  0.17130000000E+03  0.17130000000E+03 0.  1.
       11    1    1    2    0    0 -0.11082460936E-01 -0.94590903485E-02  0.19956226980E+00  0.20009411805E+00  0.51109989000E-03 0. -1.
     -623    1    1    2    0    0  0.68065481340E-02 -0.20680107553E-02  0.76239318723E-03  0.17130000015E+03  0.17130000000E+03 0.  1.
      622    1    1    2    0    0  0.42759128002E-02  0.11527101104E-01  0.37996753052E+01  0.37999057334E+01  0.40000000000E-01 0. -1.
</event>
<event>
 5   0  0.7212170E+07  0.9118800E+02  0.7818608E-02  0.1180000E+00
       11   -1    0    0    0    0  0.00000000000E+00  0.00000000000E+00  0.39999999673E+01  0.40000000000E+01  0.51109989000E-03 0. -1.
     -623   -1    0    0    0    0  0.00000000000E+00  0.00000000000E+00  0.12525980253E-10  0.17130000000E+03  0.17130000000E+03 0.  1.
       11    1    1    2    0    0 -0.97840182495E-02 -0.76818482334E-02  0.16725595152E+00  0.16771867024E+00  0.51109989000E-03 0. -1.
     -623    1    1    2    0    0  0.92102399318E-02 -0.11374891292E-01  0.71949896954E-03  0.17130000063E+03  0.17130000000E+03 0.  1.
      622    1    1    2    0    0  0.57377831639E-03  0.19056739527E-01  0.38320245174E+01  0.38322807035E+01  0.40000000000E-01 0. -1.
</event>
<event>
 5   0  0.7212170E+07  0.9118800E+02  0.7818608E-02  0.1180000E+00
       11   -1    0    0    0    0  0.00000000000E+00  0.00000000000E+00  0.39999999673E+01  0.40000000000E+01  0.51109989000E-03 0.  1.
     -623   -1    0    0    0    0  0.00000000000E+00  0.00000000000E+00  0.12525980253E-10  0.17130000000E+03  0.17130000000E+03 0.  1.
       11    1    1    2    0    0 -0.13297645361E-02 -0.10347276249E-02  0.62926193240E-01  0.62950821708E-01  0.51109989000E-03 0.  1.
     -623    1    1    2    0    0  0.81380729501E-03  0.38844051243E-03  0.22788832442E-03  0.17130000000E+03  0.17130000000E+03 0.  1.
      622    1    1    2    0    0  0.51595724125E-03  0.64628711258E-03  0.39368458851E+01  0.39370491751E+01  0.40000000000E-01 0.  1.
</event>
<event>
 5   0  0.7212170E+07  0.9118800E+02  0.7818608E-02  0.1180000E+00
       11   -1    0    0    0    0  0.00000000000E+00  0.00000000000E+00  0.39999999673E+01  0.40000000000E+01  0.51109989000E-03 0.  1.
     -623   -1    0    0    0    0  0.00000000000E+00  0.00000000000E+00  0.12525980253E-10  0.17130000000E+03  0.17130000000E+03 0.  1.
       11    1    1    2    0    0  0.53320027140E-01 -0.17107595465E-01  0.14397986465E+01  0.14408872610E+01  0.51109989000E-03 0.  1.
     -623    1    1    2    0    0 -0.10870490639E-01 -0.25790783020E-01  0.21153160984E-02  0.17130000230E+03  0.17130000000E+03 0.  1.
      622    1    1    2    0    0 -0.42449536500E-01  0.42898378484E-01  0.25580860046E+01  0.25591104394E+01  0.40000000000E-01 0.  1.
</event>
<event>
 5   0  0.7212170E+07  0.9118800E+02  0.7818608E-02  0.1180000E+00
       11   -1    0    0    0    0  0.00000000000E+00  0.00000000000E+00  0.39999999673E+01  0.40000000000E+01  0.51109989000E-03 0. -1.
     -623   -1    0    0    0    0  0.00000000000E+00  0.00000000000E+00  0.12525980253E-10  0.17130000000E+03  0.17130000000E+03 0.  1.
       11    1    1    2    0    0  0.13164623108E-02  0.54515121638E-02  0.10549623481E+00  0.10564643316E+00  0.51109989000E-03 0. -1.
     -623    1    1    2    0    0 -0.80449370158E-03 -0.13689062494E-02  0.35777823251E-03  0.17130000001E+03  0.17130000000E+03 0.  1.
      622    1    1    2    0    0 -0.51196860942E-03 -0.40826059147E-02  0.38941459533E+01  0.38943535581E+01  0.40000000000E-01 0. -1.
</event>
<event>
 5   0  0.7212170E+07  0.9118800E+02  0.7818608E-02  0.1180000E+00
       11   -1    0    0    0    0  0.00000000000E+00  0.00000000000E+00  0.39999999673E+01  0.40000000000E+01  0.51109989000E-03 0. -1.
     -623   -1    0    0    0    0  0.00000000000E+00  0.00000000000E+00  0.12525980253E-10  0.17130000000E+03  0.17130000000E+03 0.  1.
       11    1    1    2    0    0 -0.45623864894E-02  0.92178410771E-02  0.17519710909E+00  0.17549949351E+00  0.51109989000E-03 0. -1.
     -623    1    1    2    0    0 -0.80875637556E-03 -0.83784608141E-04  0.52621777165E-03  0.17130000000E+03  0.17130000000E+03 0.  1.
      622    1    1    2    0    0  0.53711428650E-02 -0.91340564689E-02  0.38242766408E+01  0.38245005040E+01  0.40000000000E-01 0. -1.
</event>
<event>
 5   0  0.7212170E+07  0.9118800E+02  0.7818608E-02  0.1180000E+00
       11   -1    0    0    0    0  0.00000000000E+00  0.00000000000E+00  0.39999999673E+01  0.40000000000E+01  0.51109989000E-03 0.  1.
     -623   -1    0    0    0    0  0.00000000000E+00  0.00000000000E+00  0.12525980253E-10  0.17130000000E+03  0.17130000000E+03 0. -1.
       11    1    1    2    0    0 -0.17153051233E-01  0.20431448236E-01  0.36164066712E+00  0.36262364041E+00  0.51109989000E-03 0.  1.
     -623    1    1    2    0    0  0.11343787286E-01 -0.29930257974E-01  0.12229238549E-02  0.17130000299E+03  0.17130000000E+03 0. -1.
      622    1    1    2    0    0  0.58092639461E-02  0.94988097398E-02  0.36371363766E+01  0.36373733651E+01  0.40000000000E-01 0.  0.
</event>
<event>
 5   0  0.7212170E+07  0.9118800E+02  0.7818608E-02  0.1180000E+00
       11   -1    0    0    0    0  0.00000000000E+00  0.00000000000E+00  0.39999999673E+01  0.40000000000E+01  0.51109989000E-03 0. -1.
     -623   -1    0    0    0    0  0.00000000000E+00  0.00000000000E+00  0.12525980253E-10  0.17130000000E+03  0.17130000000E+03 0. -1.
       11    1    1    2    0    0 -0.39866132966E-02 -0.13837066272E-02  0.77503085235E-02  0.88394702847E-02  0.51109989000E-03 0. -1.
     -623    1    1    2    0    0 -0.42264983923E-02 -0.32471839898E-02  0.13008026986E-02  0.17130000009E+03  0.17130000000E+03 0. -1.
      622    1    1    2    0    0  0.82131116886E-02  0.46308906167E-02  0.39909488558E+01  0.39911604416E+01  0.40000000000E-01 0. -1.
</event>
<event>
 5   0  0.7212170E+07  0.9118800E+02  0.7818608E-02  0.1180000E+00
       11   -1    0    0    0    0  0.00000000000E+00  0.00000000000E+00  0.39999999673E+01  0.40000000000E+01  0.51109989000E-03 0.  1.
     -623   -1    0    0    0    0  0.00000000000E+00  0.00000000000E+00  0.12525980253E-10  0.17130000000E+03  0.17130000000E+03 0.  1.
       11    1    1    2    0    0  0.37799445788E-02 -0.19318126706E-01  0.45303589566E+00  0.45346362807E+00  0.51109989000E-03 0.  1.
     -623    1    1    2    0    0 -0.29030559318E-02  0.10922025595E-02  0.70025257108E-03  0.17130000003E+03  0.17130000000E+03 0.  1.
      622    1    1    2    0    0 -0.87688864701E-03  0.18225924146E-01  0.35462638191E+01  0.35465363424E+01  0.40000000000E-01 0.  1.
</event>
<event>
 5   0  0.7212170E+07  0.9118800E+02  0.7818608E-02  0.1180000E+00
       11   -1    0    0    0    0  0.00000000000E+00  0.00000000000E+00  0.39999999673E+01  0.40000000000E+01  0.51109989000E-03 0.  1.
     -623   -1    0    0    0    0  0.00000000000E+00  0.00000000000E+00  0.12525980253E-10  0.17130000000E+03  0.17130000000E+03 0.  1.
       11    1    1    2    0    0 -0.91517272496E-02 -0.19599131096E-01  0.41286424125E+00  0.41343079587E+00  0.51109989000E-03 0.  1.
     -623    1    1    2    0    0  0.38822230992E-02  0.29017523172E-02  0.83239545218E-03  0.17130000007E+03  0.17130000000E+03 0.  1.
      622    1    1    2    0    0  0.52695041501E-02  0.16697378778E-01  0.35863033310E+01  0.35865691339E+01  0.40000000000E-01 0.  1.
</event>
<event>
 5   0  0.7212170E+07  0.9118800E+02  0.7818608E-02  0.1180000E+00
       11   -1    0    0    0    0  0.00000000000E+00  0.00000000000E+00  0.39999999673E+01  0.40000000000E+01  0.51109989000E-03 0. -1.
     -623   -1    0    0    0    0  0.00000000000E+00  0.00000000000E+00  0.12525980253E-10  0.17130000000E+03  0.17130000000E+03 0.  1.
       11    1    1    2    0    0  0.50757688732E-02 -0.77788300066E-02  0.15449782419E+00  0.15477762283E+00  0.51109989000E-03 0. -1.
     -623    1    1    2    0    0 -0.46754457499E-02 -0.12106142765E-02  0.49842010734E-03  0.17130000007E+03  0.17130000000E+03 0.  1.
      622    1    1    2    0    0 -0.40032312288E-03  0.89894442832E-02  0.38450037234E+01  0.38452223087E+01  0.40000000000E-01 0. -1.
</event>
<event>
 5   0  0.7212170E+07  0.9118800E+02  0.7818608E-02  0.1180000E+00
       11   -1    0    0    0    0  0.00000000000E+00  0.00000000000E+00  0.39999999673E+01  0.40000000000E+01  0.51109989000E-03 0.  1.
     -623   -1    0    0    0    0  0.00000000000E+00  0.00000000000E+00  0.12525980253E-10  0.17130000000E+03  0.17130000000E+03 0.  1.
       11    1    1    2    0    0  0.62360368644E-02 -0.21142649603E-02  0.61591970324E+00  0.61595511227E+00  0.51109989000E-03 0.  1.
     -623    1    1    2    0    0 -0.46358224528E-03 -0.16749665665E-02  0.27884242820E-03  0.17130000001E+03  0.17130000000E+03 0.  1.
      622    1    1    2    0    0 -0.57724546192E-02  0.37892315266E-02  0.33838014213E+01  0.33840448783E+01  0.40000000000E-01 0.  1.
</event>
<event>
 5   0  0.7212170E+07  0.9118800E+02  0.7818608E-02  0.1180000E+00
       11   -1    0    0    0    0  0.00000000000E+00  0.00000000000E+00  0.39999999673E+01  0.40000000000E+01  0.51109989000E-03 0.  1.
     -623   -1    0    0    0    0  0.00000000000E+00  0.00000000000E+00  0.12525980253E-10  0.17130000000E+03  0.17130000000E+03 0.  1.
       11    1    1    2    0    0  0.66889785747E-01  0.51265126130E-01  0.34017975444E+00  0.35046381146E+00  0.51109989000E-03 0.  1.
     -623    1    1    2    0    0  0.37435281907E-01  0.11199824238E-01  0.12534520079E-01  0.17130000492E+03  0.17130000000E+03 0.  1.
      622    1    1    2    0    0 -0.10432506765E+00 -0.62464950368E-01  0.36472856929E+01  0.36495312733E+01  0.40000000000E-01 0.  1.
</event>
<event>
 5   0  0.7212170E+07  0.9118800E+02  0.7818608E-02  0.1180000E+00
       11   -1    0    0    0    0  0.00000000000E+00  0.00000000000E+00  0.39999999673E+01  0.40000000000E+01  0.51109989000E-03 0.  1.
     -623   -1    0    0    0    0  0.00000000000E+00  0.00000000000E+00  0.12525980253E-10  0.17130000000E+03  0.17130000000E+03 0. -1.
       11    1    1    2    0    0 -0.18006523563E-03  0.15833758370E-02  0.26363061001E-01  0.26416125964E-01  0.51109989000E-03 0.  1.
     -623    1    1    2    0    0  0.93987179449E-03 -0.31973651375E-02  0.25480006849E-03  0.17130000003E+03  0.17130000000E+03 0. -1.
      622    1    1    2    0    0 -0.75980655896E-03  0.16139893009E-02  0.39733821067E+01  0.39735838419E+01  0.40000000000E-01 0.  1.
</event>
<event>
 5   0  0.7212170E+07  0.9118800E+02  0.7818608E-02  0.1180000E+00
       11   -1    0    0    0    0  0.00000000000E+00  0.00000000000E+00  0.39999999673E+01  0.40000000000E+01  0.51109989000E-03 0. -1.
     -623   -1    0    0    0    0  0.00000000000E+00  0.00000000000E+00  0.12525980253E-10  0.17130000000E+03  0.17130000000E+03 0.  1.
       11    1    1    2    0    0 -0.12451292137E-02 -0.18950159047E-02  0.71282540696E-01  0.71320426690E-01  0.51109989000E-03 0. -1.
     -623    1    1    2    0    0  0.18839100038E-02 -0.15629388169E-05  0.24200966663E-03  0.17130000001E+03  0.17130000000E+03 0.  1.
      622    1    1    2    0    0 -0.63878078981E-03  0.18965788435E-02  0.39284754165E+01  0.39286795623E+01  0.40000000000E-01 0. -1.
</event>
<event>
 5   0  0.7212170E+07  0.9118800E+02  0.7818608E-02  0.1180000E+00
       11   -1    0    0    0    0  0.00000000000E+00  0.00000000000E+00  0.39999999673E+01  0.40000000000E+01  0.51109989000E-03 0.  1.
     -623   -1    0    0    0    0  0.00000000000E+00  0.00000000000E+00  0.12525980253E-10  0.17130000000E+03  0.17130000000E+03 0.  1.
       11    1    1    2    0    0  0.64384222325E-03  0.34665644895E-03  0.72670948901E-03  0.11506664508E-02  0.51109989000E-03 0.  1.
     -623    1    1    2    0    0 -0.28755303678E-04 -0.93640029270E-03  0.62408137187E-03  0.17130000000E+03  0.17130000000E+03 0.  1.
      622    1    1    2    0    0 -0.61508691958E-03  0.58974384370E-03  0.39986491763E+01  0.39988493296E+01  0.40000000000E-01 0.  1.
</event>
<event>
 5   0  0.7212170E+07  0.9118800E+02  0.7818608E-02  0.1180000E+00
       11   -1    0    0    0    0  0.00000000000E+00  0.00000000000E+00  0.39999999673E+01  0.40000000000E+01  0.51109989000E-03 0.  1.
     -623   -1    0    0    0    0  0.00000000000E+00  0.00000000000E+00  0.12525980253E-10  0.17130000000E+03  0.17130000000E+03 0.  1.
       11    1    1    2    0    0  0.56668250001E-02 -0.35006275460E-02  0.94630421548E-01  0.94865932790E-01  0.51109989000E-03 0.  1.
     -623    1    1    2    0    0 -0.73456425376E-02  0.45215178425E-02  0.44105457931E-03  0.17130000022E+03  0.17130000000E+03 0.  1.
      622    1    1    2    0    0  0.16788175380E-02 -0.10208902969E-02  0.39049284916E+01  0.39051338498E+01  0.40000000000E-01 0.  1.
</event>
<event>
 5   0  0.7212170E+07  0.9118800E+02  0.7818608E-02  0.1180000E+00
       11   -1    0    0    0    0  0.00000000000E+00  0.00000000000E+00  0.39999999673E+01  0.40000000000E+01  0.51109989000E-03 0. -1.
     -623   -1    0    0    0    0  0.00000000000E+00  0.00000000000E+00  0.12525980253E-10  0.17130000000E+03  0.17130000000E+03 0.  1.
       11    1    1    2    0    0 -0.78540954125E-03  0.12210471469E-02  0.72144876563E-02  0.73768475329E-02  0.51109989000E-03 0. -1.
     -623    1    1    2    0    0 -0.15043065811E-03 -0.20818116879E-02  0.36291736235E-03  0.17130000001E+03  0.17130000000E+03 0.  1.
      622    1    1    2    0    0  0.93584019933E-03  0.86076454045E-03  0.39924225614E+01  0.39926231385E+01  0.40000000000E-01 0. -1.
</event>
<event>
 5   0  0.7212170E+07  0.9118800E+02  0.7818608E-02  0.1180000E+00
       11   -1    0    0    0    0  0.00000000000E+00  0.00000000000E+00  0.39999999673E+01  0.40000000000E+01  0.51109989000E-03 0.  1.
     -623   -1    0    0    0    0  0.00000000000E+00  0.00000000000E+00  0.12525980253E-10  0.17130000000E+03  0.17130000000E+03 0. -1.
       11    1    1    2    0    0  0.23126162784E-01 -0.31796308578E-01  0.73173419920E+00  0.73278989086E+00  0.51109989000E-03 0.  1.
     -623    1    1    2    0    0 -0.14037779873E-01  0.30637086509E-01  0.13166928518E-02  0.17130000332E+03  0.17130000000E+03 0. -1.
      622    1    1    2    0    0 -0.90883829118E-02  0.11592220698E-02  0.32669490751E+01  0.32672067890E+01  0.40000000000E-01 0.  1.
</event>
<event>
 5   0  0.7212170E+07  0.9118800E+02  0.7818608E-02  0.1180000E+00
       11   -1    0    0    0    0  0.00000000000E+00  0.00000000000E+00  0.39999999673E+01  0.40000000000E+01  0.51109989000E-03 0. -1.
     -623   -1    0    0    0    0  0.00000000000E+00  0.00000000000E+00  0.12525980253E-10  0.17130000000E+03  0.17130000000E+03 0.  1.
       11    1    1    2    0    0 -0.41845081566E-01 -0.28496212208E-01  0.10531232502E+01  0.10543395498E+01  0.51109989000E-03 0. -1.
     -623    1    1    2    0    0 -0.18390003335E-01 -0.12245049691E-01  0.23871382951E-02  0.17130000144E+03  0.17130000000E+03 0.  1.
      622    1    1    2    0    0  0.60235084902E-01  0.40741261900E-01  0.29444895791E+01  0.29456590090E+01  0.40000000000E-01 0. -1.
</event>
<event>
 5   0  0.7212170E+07  0.9118800E+02  0.7818608E-02  0.1180000E+00
       11   -1    0    0    0    0  0.00000000000E+00  0.00000000000E+00  0.39999999673E+01  0.40000000000E+01  0.51109989000E-03 0. -1.
     -623   -1    0    0    0    0  0.00000000000E+00  0.00000000000E+00  0.12525980253E-10  0.17130000000E+03  0.17130000000E+03 0. -1.
       11    1    1    2    0    0 -0.62095793743E-02  0.84482005120E-02  0.32940915827E+00  0.32957637316E+00  0.51109989000E-03 0. -1.
     -623    1    1    2    0    0  0.12100794802E-01  0.29180964190E-03  0.40070999328E-03  0.17130000043E+03  0.17130000000E+03 0. -1.
      622    1    1    2    0    0 -0.58912154274E-02 -0.87400101539E-02  0.36701900990E+01  0.36704231986E+01  0.40000000000E-01 0. -1.
</event>
<event>
 5   0  0.7212170E+07  0.9118800E+02  0.7818608E-02  0.1180000E+00
       11   -1    0    0    0    0  0.00000000000E+00  0.00000000000E+00  0.39999999673E+01  0.40000000000E+01  0.51109989000E-03 0.  1.
     -623   -1    0    0    0    0  0.00000000000E+00  0.00000000000E+00  0.12525980253E-10  0.17130000000E+03  0.17130000000E+03 0.  1.
       11    1    1    2    0    0  0.35353602612E-02  0.46458143490E-02  0.50608750583E-01  0.50946925539E-01  0.51109989000E-03 0.  1.
     -623    1    1    2    0    0 -0.14314224450E-01  0.14758229371E-02  0.56078923022E-03  0.17130000061E+03  0.17130000000E+03 0.  1.
      622    1    1    2    0    0  0.10778864191E-01 -0.61216372863E-02  0.39488304280E+01  0.39490524696E+01  0.40000000000E-01 0.  1.
</event>
<event>
 5   0  0.7212170E+07  0.9118800E+02  0.7818608E-02  0.1180000E+00
       11   -1    0    0    0    0  0.00000000000E+00  0.00000000000E+00  0.39999999673E+01  0.40000000000E+01  0.51109989000E-03 0. -1.
     -623   -1    0    0    0    0  0.00000000000E+00  0.00000000000E+00  0.12525980253E-10  0.17130000000E+03  0.17130000000E+03 0. -1.
       11    1    1    2    0    0 -0.89091405622E-03 -0.56152957427E-03  0.39148510092E-02  0.40861136597E-02  0.51109989000E-03 0. -1.
     -623    1    1    2    0    0  0.14422123724E-02  0.44054983054E-02  0.37338969787E-03  0.17130000006E+03  0.17130000000E+03 0. -1.
      622    1    1    2    0    0 -0.55129831654E-03 -0.38439687321E-02  0.39957117275E+01  0.39959138241E+01  0.40000000000E-01 0. -1.
</event>
<event>
 5   0  0.7212170E+07  0.9118800E+02  0.7818608E-02  0.1180000E+00
       11   -1    0    0    0    0  0.00000000000E+00  0.00000000000E+00  0.39999999673E+01  0.40000000000E+01  0.51109989000E-03 0. -1.
     -623   -1    0    0    0    0  0.00000000000E+00  0.00000000000E+00  0.12525980253E-10  0.17130000000E+03  0.17130000000E+03 0.  1.
       11    1    1    2    0    0  0.91894120362E-03 -0.20240003919E-03  0.18982522639E-02  0.21794502670E-02  0.51109989000E-03 0. -1.
     -623    1    1    2    0    0  0.19218373727E-03  0.53834109041E-05  0.48143945920E-03  0.17130000000E+03  0.17130000000E+03 0.  1.
      622    1    1    2    0    0 -0.11111249409E-02  0.19701662829E-03  0.39976202767E+01  0.39978205500E+01  0.40000000000E-01 0. -1.
</event>
<event>
 5   0  0.7212170E+07  0.9118800E+02  0.7818608E-02  0.1180000E+00
       11   -1    0    0    0    0  0.00000000000E+00  0.00000000000E+00  0.39999999673E+01  0.40000000000E+01  0.51109989000E-03 0. -1.
     -623   -1    0    0    0    0  0.00000000000E+00  0.00000000000E+00  0.12525980253E-10  0.17130000000E+03  0.17130000000E+03 0.  1.
       11    1    1    2    0    0 -0.33053938058E-02 -0.40237980497E-02  0.63113440012E-01  0.63329962200E-01  0.51109989000E-03 0. -1.
     -623    1    1    2    0    0  0.11232238817E-02 -0.16914645236E-02  0.42447856106E-03  0.17130000001E+03  0.17130000000E+03 0.  1.
      622    1    1    2    0    0  0.21821699240E-02  0.57152625733E-02  0.39364620489E+01  0.39366700254E+01  0.40000000000E-01 0. -1.
</event>
<event>
 5   0  0.7212170E+07  0.9118800E+02  0.7818608E-02  0.1180000E+00
       11   -1    0    0    0    0  0.00000000000E+00  0.00000000000E+00  0.39999999673E+01  0.40000000000E+01  0.51109989000E-03 0. -1.
     -623   -1    0    0    0    0  0.00000000000E+00  0.00000000000E+00  0.12525980253E-10  0.17130000000E+03  0.17130000000E+03 0. -1.
       11    1    1    2    0    0 -0.25655957787E-01  0.31895729159E-01  0.10661745681E+01  0.10669601851E+01  0.51109989000E-03 0. -1.
     -623    1    1    2    0    0  0.14008541164E-01 -0.11243128806E-01  0.11551456741E-02  0.17130000095E+03  0.17130000000E+03 0. -1.
      622    1    1    2    0    0  0.11647416624E-01 -0.20652600354E-01  0.29326702534E+01  0.29330388691E+01  0.40000000000E-01 0.  0.
</event>
<event>
 5   0  0.7212170E+07  0.9118800E+02  0.7818608E-02  0.1180000E+00
       11   -1    0    0    0    0  0.00000000000E+00  0.00000000000E+00  0.39999999673E+01  0.40000000000E+01  0.51109989000E-03 0. -1.
     -623   -1    0    0    0    0  0.00000000000E+00  0.00000000000E+00  0.12525980253E-10  0.17130000000E+03  0.17130000000E+03 0. -1.
       11    1    1    2    0    0  0.11218846634E-01 -0.15359502878E-01  0.82293433239E+00  0.82315427077E+00  0.51109989000E-03 0. -1.
     -623    1    1    2    0    0 -0.25087248019E-01 -0.12375215664E-01  0.62537569995E-03  0.17130000229E+03  0.17130000000E+03 0. -1.
      622    1    1    2    0    0  0.13868401386E-01  0.27734718542E-01  0.31764402595E+01  0.31768434443E+01  0.40000000000E-01 0. -1.
</event>
<event>
 5   0  0.7212170E+07  0.9118800E+02  0.7818608E-02  0.1180000E+00
       11   -1    0    0    0    0  0.00000000000E+00  0.00000000000E+00  0.39999999673E+01  0.40000000000E+01  0.51109989000E-03 0. -1.
     -623   -1    0    0    0    0  0.00000000000E+00  0.00000000000E+00  0.12525980253E-10  0.17130000000E+03  0.17130000000E+03 0.  1.
       11    1    1    2    0    0  0.28010422276E-02  0.15307758370E-02  0.31822701418E-01  0.31986476219E-01  0.51109989000E-03 0. -1.
     -623    1    1    2    0    0 -0.20725432657E-02  0.13617041726E-02  0.36649900737E-03  0.17130000002E+03  0.17130000000E+03 0.  1.
      622    1    1    2    0    0 -0.72849896139E-03 -0.28924800099E-02  0.39678107679E+01  0.39680135064E+01  0.40000000000E-01 0. -1.
</event>
<event>
 5   0  0.7212170E+07  0.9118800E+02  0.7818608E-02  0.1180000E+00
       11   -1    0    0    0    0  0.00000000000E+00  0.00000000000E+00  0.39999999673E+01  0.40000000000E+01  0.51109989000E-03 0. -1.
     -623   -1    0    0    0    0  0.00000000000E+00  0.00000000000E+00  0.12525980253E-10  0.17130000000E+03  0.17130000000E+03 0. -1.
       11    1    1    2    0    0  0.70057775246E-03 -0.40274673042E-03  0.16039152554E-02  0.18672925213E-02  0.51109989000E-03 0. -1.
     -623    1    1    2    0    0  0.60912073114E-05  0.38516668800E-03  0.46350659510E-03  0.17130000000E+03  0.17130000000E+03 0. -1.
      622    1    1    2    0    0 -0.70666895978E-03  0.17580042409E-04  0.39979325456E+01  0.39981327065E+01  0.40000000000E-01 0. -1.
</event>
<event>
 5   0  0.7212170E+07  0.9118800E+02  0.7818608E-02  0.1180000E+00
       11   -1    0    0    0    0  0.00000000000E+00  0.00000000000E+00  0.39999999673E+01  0.40000000000E+01  0.51109989000E-03 0.  1.
     -623   -1    0    0    0    0  0.00000000000E+00  0.00000000000E+00  0.12525980253E-10  0.17130000000E+03  0.17130000000E+03 0. -1.
       11    1    1    2    0    0  0.73958431045E-03 -0.12124682511E-03  0.41560703349E-03  0.99781664082E-03  0.51109989000E-03 0.  1.
     -623    1    1    2    0    0 -0.62545057923E-03  0.74454745703E-03  0.78228662715E-03  0.17130000000E+03  0.17130000000E+03 0. -1.
      622    1    1    2    0    0 -0.11413373121E-03 -0.62330063194E-03  0.39988020738E+01  0.39990021789E+01  0.40000000000E-01 0.  1.
</event>
<event>
 5   0  0.7212170E+07  0.9118800E+02  0.7818608E-02  0.1180000E+00
       11   -1    0    0    0    0  0.00000000000E+00  0.00000000000E+00  0.39999999673E+01  0.40000000000E+01  0.51109989000E-03 0. -1.
     -623   -1    0    0    0    0  0.00000000000E+00  0.00000000000E+00  0.12525980253E-10  0.17130000000E+03  0.17130000000E+03 0. -1.
       11    1    1    2    0    0 -0.26392414514E-02  0.40483042785E-02  0.14894910546E-01  0.15667608185E-01  0.51109989000E-03 0. -1.
     -623    1    1    2    0    0  0.68476237223E-02 -0.74302170926E-02  0.97741532310E-03  0.17130000030E+03  0.17130000000E+03 0. -1.
      622    1    1    2    0    0 -0.42083822707E-02  0.33819128140E-02  0.39841276414E+01  0.39843320909E+01  0.40000000000E-01 0. -1.
</event>
<event>
 5   0  0.7212170E+07  0.9118800E+02  0.7818608E-02  0.1180000E+00
       11   -1    0    0    0    0  0.00000000000E+00  0.00000000000E+00  0.39999999673E+01  0.40000000000E+01  0.51109989000E-03 0. -1.
     -623   -1    0    0    0    0  0.00000000000E+00  0.00000000000E+00  0.12525980253E-10  0.17130000000E+03  0.17130000000E+03 0.  1.
       11    1    1    2    0    0 -0.67593117691E-02 -0.18778148950E-01  0.12758020138E+01  0.12759582073E+01  0.51109989000E-03 0. -1.
     -623    1    1    2    0    0  0.11259632761E-02  0.15414235539E-02  0.51023524541E-03  0.17130000001E+03  0.17130000000E+03 0.  1.
      622    1    1    2    0    0  0.56333484929E-02  0.17236725396E-01  0.27236877188E+01  0.27240417817E+01  0.40000000000E-01 0.  0.
</event>
<event>
 5   0  0.7212170E+07  0.9118800E+02  0.7818608E-02  0.1180000E+00
       11   -1    0    0    0    0  0.00000000000E+00  0.00000000000E+00  0.39999999673E+01  0.40000000000E+01  0.51109989000E-03 0. -1.
     -623   -1    0    0    0    0  0.00000000000E+00  0.00000000000E+00  0.12525980253E-10  0.17130000000E+03  0.17130000000E+03 0.  1.
       11    1    1    2    0    0  0.11838980293E-02 -0.36091148944E-02  0.31623302513E-01  0.31854698394E-01  0.51109989000E-03 0. -1.
     -623    1    1    2    0    0 -0.22293944711E-02  0.20355914610E-02  0.43345076938E-03  0.17130000003E+03  0.17130000000E+03 0.  1.
      622    1    1    2    0    0  0.10454964418E-02  0.15735234333E-02  0.39679432141E+01  0.39681452745E+01  0.40000000000E-01 0. -1.
</event>
<event>
 5   0  0.7212170E+07  0.9118800E+02  0.7818608E-02  0.1180000E+00
       11   -1    0    0    0    0  0.00000000000E+00  0.00000000000E+00  0.39999999673E+01  0.40000000000E+01  0.51109989000E-03 0.  1.
     -623   -1    0    0    0    0  0.00000000000E+00  0.00000000000E+00  0.12525980253E-10  0.17130000000E+03  0.17130000000E+03 0. -1.
       11    1    1    2    0    0  0.15430602957E-01 -0.41047755873E-01  0.12935806473E+01  0.12943238289E+01  0.51109989000E-03 0.  1.
     -623    1    1    2    0    0 -0.45253869455E-01 -0.52153208386E-02  0.16049038005E-02  0.17130000606E+03  0.17130000000E+03 0. -1.
      622    1    1    2    0    0  0.29823266501E-01  0.46263076712E-01  0.27048144165E+01  0.27056701069E+01  0.40000000000E-01 0.  1.
</event>
<event>
 5   0  0.7212170E+07  0.9118800E+02  0.7818608E-02  0.1180000E+00
       11   -1    0    0    0    0  0.00000000000E+00  0.00000000000E+00  0.39999999673E+01  0.40000000000E+01  0.51109989000E-03 0.  1.
     -623   -1    0    0    0    0  0.00000000000E+00  0.00000000000E+00  0.12525980253E-10  0.17130000000E+03  0.17130000000E+03 0.  1.
       11    1    1    2    0    0  0.14528124576E-01  0.17470929307E-01  0.13028289963E+01  0.13030272271E+01  0.51109989000E-03 0.  1.
     -623    1    1    2    0    0 -0.14912606338E-01  0.91154398091E-02  0.62682360314E-03  0.17130000089E+03  0.17130000000E+03 0.  1.
      622    1    1    2    0    0  0.38448176301E-03 -0.26586369116E-01  0.26965441475E+01  0.26969718801E+01  0.40000000000E-01 0.  1.
</event>
<event>
 5   0  0.7212170E+07  0.9118800E+02  0.7818608E-02  0.1180000E+00
       11   -1    0    0    0    0  0.00000000000E+00  0.00000000000E+00  0.39999999673E+01  0.40000000000E+01  0.51109989000E-03 0. -1.
     -623   -1    0    0    0    0  0.00000000000E+00  0.00000000000E+00  0.12525980253E-10  0.17130000000E+03  0.17130000000E+03 0. -1.
       11    1    1    2    0    0  0.14398593817E-03 -0.77713369022E-03  0.12162121762E-02  0.15378764183E-02  0.51109989000E-03 0. -1.
     -623    1    1    2    0    0  0.13420458026E-02  0.18277060976E-02  0.52214351472E-03  0.17130000002E+03  0.17130000000E+03 0. -1.
      622    1    1    2    0    0 -0.14860317406E-02 -0.10505724072E-02  0.39982616111E+01  0.39984621072E+01  0.40000000000E-01 0. -1.
</event>
<event>
 5   0  0.7212170E+07  0.9118800E+02  0.7818608E-02  0.1180000E+00
       11   -1    0    0    0    0  0.00000000000E+00  0.00000000000E+00  0.39999999673E+01  0.40000000000E+01  0.51109989000E-03 0.  1.
     -623   -1    0    0    0    0  0.00000000000E+00  0.00000000000E+00  0.12525980253E-10  0.17130000000E+03  0.17130000000E+03 0.  1.
       11    1    1    2    0    0 -0.28834962177E-01  0.69129007929E-03  0.12863608228E+01  0.12866842506E+01  0.51109989000E-03 0.  1.
     -623    1    1    2    0    0 -0.11555730069E-02  0.84479172259E-02  0.79962898576E-03  0.17130000021E+03  0.17130000000E+03 0.  1.
      622    1    1    2    0    0  0.29990535184E-01 -0.91392073056E-02  0.27128395157E+01  0.27133155355E+01  0.40000000000E-01 0.  1.
</event>
<event>
 5   0  0.7212170E+07  0.9118800E+02  0.7818608E-02  0.1180000E+00
       11   -1    0    0    0    0  0.00000000000E+00  0.00000000000E+00  0.39999999673E+01  0.40000000000E+01  0.51109989000E-03 0. -1.
     -623   -1    0    0    0    0  0.00000000000E+00  0.00000000000E+00  0.12525980253E-10  0.17130000000E+03  0.17130000000E+03 0.  1.
       11    1    1    2    0    0  0.16873606651E-03 -0.43610208451E-03  0.84459788906E-02  0.84743400572E-02  0.51109989000E-03 0. -1.
     -623    1    1    2    0    0 -0.14413101819E-03  0.33221710001E-05  0.22878192762E-03  0.17130000000E+03  0.17130000000E+03 0.  1.
      622    1    1    2    0    0 -0.24605048257E-04  0.43277991351E-03  0.39913252083E+01  0.39915256614E+01  0.40000000000E-01 0. -1.
</event>
<event>
 5   0  0.7212170E+07  0.9118800E+02  0.7818608E-02  0.1180000E+00
       11   -1    0    0    0    0  0.00000000000E+00  0.00000000000E+00  0.39999999673E+01  0.40000000000E+01  0.51109989000E-03 0. -1.
     -623   -1    0    0    0    0  0.00000000000E+00  0.00000000000E+00  0.12525980253E-10  0.17130000000E+03  0.17130000000E+03 0.  1.
       11    1    1    2    0    0 -0.16901747097E-02  0.97715289447E-03  0.34452702193E-01  0.34511757849E-01  0.51109989000E-03 0. -1.
     -623    1    1    2    0    0 -0.65569336415E-03 -0.13339146708E-02  0.26148536015E-03  0.17130000001E+03  0.17130000000E+03 0.  1.
      622    1    1    2    0    0  0.23458680741E-02  0.35676177682E-03  0.39652857813E+01  0.39654882370E+01  0.40000000000E-01 0. -1.
</event>
<event>
 5   0  0.7212170E+07  0.9118800E+02  0.7818608E-02  0.1180000E+00
       11   -1    0    0    0    0  0.00000000000E+00  0.00000000000E+00  0.39999999673E+01  0.40000000000E+01  0.51109989000E-03 0. -1.
     -623   -1    0    0    0    0  0.00000000000E+00  0.00000000000E+00  0.12525980253E-10  0.17130000000E+03  0.17130000000E+03 0.  1.
       11    1    1    2    0    0 -0.42464053373E-03  0.12446668084E-02  0.21250111799E-02  0.25507666807E-02  0.51109989000E-03 0. -1.
     -623    1    1    2    0    0 -0.62478114785E-03  0.94271703656E-04  0.62621980436E-03  0.17130000000E+03  0.17130000000E+03 0.  1.
      622    1    1    2    0    0  0.10494216817E-02 -0.13389385121E-02  0.39972487370E+01  0.39974492317E+01  0.40000000000E-01 0. -1.
</event>
<event>
 5   0  0.7212170E+07  0.9118800E+02  0.7818608E-02  0.1180000E+00
       11   -1    0    0    0    0  0.00000000000E+00  0.00000000000E+00  0.39999999673E+01  0.40000000000E+01  0.51109989000E-03 0.  1.
     -623   -1    0    0    0    0  0.00000000000E+00  0.00000000000E+00  0.12525980253E-10  0.17130000000E+03  0.17130000000E+03 0. -1.
       11    1    1    2    0    0  0.61199513820E-03 -0.34401236861E-03  0.93905779399E+00  0.93905819551E+00  0.51109989000E-03 0.  1.
     -623    1    1    2    0    0 -0.76901422388E-03 -0.12307310756E-03  0.26177914820E-03  0.17130000000E+03  0.17130000000E+03 0. -1.
      622    1    1    2    0    0  0.15701908559E-03  0.46708547616E-03  0.30606803938E+01  0.30609418021E+01  0.40000000000E-01 0.  1.
</event>
<event>
 5   0  0.7212170E+07  0.9118800E+02  0.7818608E-02  0.1180000E+00
       11   -1    0    0    0    0  0.00000000000E+00  0.00000000000E+00  0.39999999673E+01  0.40000000000E+01  0.51109989000E-03 0.  1.
     -623   -1    0    0    0    0  0.00000000000E+00  0.00000000000E+00  0.12525980253E-10  0.17130000000E+03  0.17130000000E+03 0. -1.
       11    1    1    2    0    0 -0.52798635089E-02 -0.18948393608E-02  0.83453218939E+00  0.83455119899E+00  0.51109989000E-03 0.  1.
     -623    1    1    2    0    0  0.79077910659E-03  0.79398979780E-03  0.27509449870E-03  0.17130000000E+03  0.17130000000E+03 0. -1.
      622    1    1    2    0    0  0.44890844025E-02  0.11008495631E-02  0.31651926828E+01  0.31654487965E+01  0.40000000000E-01 0.  1.
</event>
<event>
 5   0  0.7212170E+07  0.9118800E+02  0.7818608E-02  0.1180000E+00
       11   -1    0    0    0    0  0.00000000000E+00  0.00000000000E+00  0.39999999673E+01  0.40000000000E+01  0.51109989000E-03 0.  1.
     -623   -1    0    0    0    0  0.00000000000E+00  0.00000000000E+00  0.12525980253E-10  0.17130000000E+03  0.17130000000E+03 0.  1.
       11    1    1    2    0    0 -0.19842710209E-03 -0.36108076842E-03  0.57927551381E-03  0.87552033364E-03  0.51109989000E-03 0.  1.
     -623    1    1    2    0    0  0.53151062758E-03  0.17286698546E-02  0.49651895818E-03  0.17130000001E+03  0.17130000000E+03 0.  1.
      622    1    1    2    0    0 -0.33308352547E-03 -0.13675890860E-02  0.39989241726E+01  0.39991244692E+01  0.40000000000E-01 0.  1.
</event>
<event>
 5   0  0.7212170E+07  0.9118800E+02  0.7818608E-02  0.1180000E+00
       11   -1    0    0    0    0  0.00000000000E+00  0.00000000000E+00  0.39999999673E+01  0.40000000000E+01  0.51109989000E-03 0. -1.
     -623   -1    0    0    0    0  0.00000000000E+00  0.00000000000E+00  0.12525980253E-10  0.17130000000E+03  0.17130000000E+03 0.  1.
       11    1    1    2    0    0 -0.10988978656E-02  0.12288386274E-01  0.62216988329E+00  0.62229240467E+00  0.51109989000E-03 0. -1.
     -623    1    1    2    0    0 -0.73060445771E-02 -0.15453642962E-01  0.37213859953E-03  0.17130000085E+03  0.17130000000E+03 0.  1.
      622    1    1    2    0    0  0.84049424444E-02  0.31652566912E-02  0.33774579465E+01  0.33777067430E+01  0.40000000000E-01 0. -1.
</event>
<event>
 5   0  0.7212170E+07  0.9118800E+02  0.7818608E-02  0.1180000E+00
       11   -1    0    0    0    0  0.00000000000E+00  0.00000000000E+00  0.39999999673E+01  0.40000000000E+01  0.51109989000E-03 0.  1.
     -623   -1    0    0    0    0  0.00000000000E+00  0.00000000000E+00  0.12525980253E-10  0.17130000000E+03  0.17130000000E+03 0. -1.
       11    1    1    2    0    0 -0.17350039402E-01  0.84902491236E-02  0.23235099370E+00  0.23315306924E+00  0.51109989000E-03 0.  1.
     -623    1    1    2    0    0  0.49436791641E-02 -0.43512368593E-02  0.10372637557E-02  0.17130000013E+03  0.17130000000E+03 0. -1.
      622    1    1    2    0    0  0.12406360238E-01 -0.41390122641E-02  0.37666117101E+01  0.37668468012E+01  0.40000000000E-01 0.  0.
</event>
<event>
 5   0  0.7212170E+07  0.9118800E+02  0.7818608E-02  0.1180000E+00
       11   -1    0    0    0    0  0.00000000000E+00  0.00000000000E+00  0.39999999673E+01  0.40000000000E+01  0.51109989000E-03 0. -1.
     -623   -1    0    0    0    0  0.00000000000E+00  0.00000000000E+00  0.12525980253E-10  0.17130000000E+03  0.17130000000E+03 0.  1.
       11    1    1    2    0    0  0.93204549508E-02 -0.37346212922E-02  0.54401573089E+00  0.54410862423E+00  0.51109989000E-03 0. -1.
     -623    1    1    2    0    0 -0.10028452356E-01 -0.71037015568E-03  0.32758386992E-03  0.17130000030E+03  0.17130000000E+03 0.  1.
      622    1    1    2    0    0  0.70799740640E-03  0.44449914479E-02  0.34556566530E+01  0.34558910808E+01  0.40000000000E-01 0. -1.
</event>
<event>
 5   0  0.7212170E+07  0.9118800E+02  0.7818608E-02  0.1180000E+00
       11   -1    0    0    0    0  0.00000000000E+00  0.00000000000E+00  0.39999999673E+01  0.40000000000E+01  0.51109989000E-03 0.  1.
     -623   -1    0    0    0    0  0.00000000000E+00  0.00000000000E+00  0.12525980253E-10  0.17130000000E+03  0.17130000000E+03 0. -1.
       11    1    1    2    0    0 -0.34713841589E-02  0.55562820749E-02  0.21676786926E+00  0.21686745525E+00  0.51109989000E-03 0.  1.
     -623    1    1    2    0    0 -0.87192234180E-03 -0.30384411091E-03  0.31716676617E-03  0.17130000000E+03  0.17130000000E+03 0. -1.
      622    1    1    2    0    0  0.43433065008E-02 -0.52524379639E-02  0.37829149322E+01  0.37831325428E+01  0.40000000000E-01 0.  1.
</event>
<event>
 5   0  0.7212170E+07  0.9118800E+02  0.7818608E-02  0.1180000E+00
       11   -1    0    0    0    0  0.00000000000E+00  0.00000000000E+00  0.39999999673E+01  0.40000000000E+01  0.51109989000E-03 0. -1.
     -623   -1    0    0    0    0  0.00000000000E+00  0.00000000000E+00  0.12525980253E-10  0.17130000000E+03  0.17130000000E+03 0. -1.
       11    1    1    2    0    0 -0.35912588184E-02 -0.52546065281E-02  0.40987097423E+00  0.40992070546E+00  0.51109989000E-03 0. -1.
     -623    1    1    2    0    0  0.15814880431E-02 -0.98403000923E-03  0.27853566678E-03  0.17130000001E+03  0.17130000000E+03 0. -1.
      622    1    1    2    0    0  0.20097707746E-02  0.62386365378E-02  0.35898504594E+01  0.35900792861E+01  0.40000000000E-01 0. -1.
</event>
<event>
 5   0  0.7212170E+07  0.9118800E+02  0.7818608E-02  0.1180000E+00
       11   -1    0    0    0    0  0.00000000000E+00  0.00000000000E+00  0.39999999673E+01  0.40000000000E+01  0.51109989000E-03 0. -1.
     -623   -1    0    0    0    0  0.00000000000E+00  0.00000000000E+00  0.12525980253E-10  0.17130000000E+03  0.17130000000E+03 0.  1.
       11    1    1    2    0    0 -0.34615261383E-02 -0.33344428479E-03  0.55568831485E-01  0.55679885093E-01  0.51109989000E-03 0. -1.
     -623    1    1    2    0    0 -0.16998460771E-01  0.28173287332E-01  0.46833606613E-03  0.17130000316E+03  0.17130000000E+03 0.  1.
      622    1    1    2    0    0  0.20459986913E-01 -0.27839843055E-01  0.39439628008E+01  0.39443169551E+01  0.40000000000E-01 0. -1.
</event>
<event>
 5   0  0.7212170E+07  0.9118800E+02  0.7818608E-02  0.1180000E+00
       11   -1    0    0    0    0  0.00000000000E+00  0.00000000000E+00  0.39999999673E+01  0.40000000000E+01  0.51109989000E-03 0.  1.
     -623   -1    0    0    0    0  0.00000000000E+00  0.00000000000E+00  0.12525980253E-10  0.17130000000E+03  0.17130000000E+03 0. -1.
       11    1    1    2    0    0 -0.74126923332E-01 -0.65253205310E-01  0.11747983967E+01  0.11789420324E+01  0.51109989000E-03 0.  1.
     -623    1    1    2    0    0  0.13328071521E-02  0.51794691246E-01  0.54066754130E-02  0.17130000792E+03  0.17130000000E+03 0. -1.
      622    1    1    2    0    0  0.72794116180E-01  0.13458514064E-01  0.28197948952E+01  0.28210500467E+01  0.40000000000E-01 0.  1.
</event>
<event>
 5   0  0.7212170E+07  0.9118800E+02  0.7818608E-02  0.1180000E+00
       11   -1    0    0    0    0  0.00000000000E+00  0.00000000000E+00  0.39999999673E+01  0.40000000000E+01  0.51109989000E-03 0. -1.
     -623   -1    0    0    0    0  0.00000000000E+00  0.00000000000E+00  0.12525980253E-10  0.17130000000E+03  0.17130000000E+03 0.  1.
       11    1    1    2    0    0 -0.83481945623E-02 -0.12054113260E-01  0.25166146580E+00  0.25208877125E+00  0.51109989000E-03 0. -1.
     -623    1    1    2    0    0  0.20908955864E-02  0.41873059204E-02  0.65427666849E-03  0.17130000007E+03  0.17130000000E+03 0.  1.
      622    1    1    2    0    0  0.62572989757E-02  0.78668073389E-02  0.37476842253E+01  0.37479111640E+01  0.40000000000E-01 0.  0.
</event>
<event>
 5   0  0.7212170E+07  0.9118800E+02  0.7818608E-02  0.1180000E+00
       11   -1    0    0    0    0  0.00000000000E+00  0.00000000000E+00  0.39999999673E+01  0.40000000000E+01  0.51109989000E-03 0.  1.
     -623   -1    0    0    0    0  0.00000000000E+00  0.00000000000E+00  0.12525980253E-10  0.17130000000E+03  0.17130000000E+03 0. -1.
       11    1    1    2    0    0  0.28716076979E-02  0.64073456350E-02  0.51996206253E+00  0.52000971904E+00  0.51109989000E-03 0.  1.
     -623    1    1    2    0    0 -0.24455201842E-01 -0.11669792273E-01  0.35057808284E-03  0.17130000214E+03  0.17130000000E+03 0. -1.
      622    1    1    2    0    0  0.21583594145E-01  0.52624466388E-02  0.34796873269E+01  0.34799881376E+01  0.40000000000E-01 0.  0.
</event>
<event>
 5   0  0.7212170E+07  0.9118800E+02  0.7818608E-02  0.1180000E+00
       11   -1    0    0    0    0  0.00000000000E+00  0.00000000000E+00  0.39999999673E+01  0.40000000000E+01  0.51109989000E-03 0.  1.
     -623   -1    0    0    0    0  0.00000000000E+00  0.00000000000E+00  0.12525980253E-10  0.17130000000E+03  0.17130000000E+03 0.  1.
       11    1    1    2    0    0  0.39770624986E-02 -0.65202914162E-02  0.39567926387E+00  0.39575329727E+00  0.51109989000E-03 0.  1.
     -623    1    1    2    0    0 -0.32322655848E-02  0.44749218943E-02  0.29671455516E-03  0.17130000009E+03  0.17130000000E+03 0.  1.
      622    1    1    2    0    0 -0.74479691355E-03  0.20453695216E-02  0.36040239893E+01  0.36042466139E+01  0.40000000000E-01 0.  1.
</event>
<event>
 5   0  0.7212170E+07  0.9118800E+02  0.7818608E-02  0.1180000E+00
       11   -1    0    0    0    0  0.00000000000E+00  0.00000000000E+00  0.39999999673E+01  0.40000000000E+01  0.51109989000E-03 0. -1.
     -623   -1    0    0    0    0  0.00000000000E+00  0.00000000000E+00  0.12525980253E-10  0.17130000000E+03  0.17130000000E+03 0. -1.
       11    1    1    2    0    0 -0.85035816761E-02  0.55554401143E-02  0.53027931747E-01  0.53994412531E-01  0.51109989000E-03 0. -1.
     -623    1    1    2    0    0  0.10479893373E-01  0.42861183971E-02  0.11823365917E-02  0.17130000038E+03  0.17130000000E+03 0. -1.
      622    1    1    2    0    0 -0.19763116970E-02 -0.98415585116E-02  0.39457896992E+01  0.39460052094E+01  0.40000000000E-01 0. -1.
</event>
<event>
 5   0  0.7212170E+07  0.9118800E+02  0.7818608E-02  0.1180000E+00
       11   -1    0    0    0    0  0.00000000000E+00  0.00000000000E+00  0.39999999673E+01  0.40000000000E+01  0.51109989000E-03 0.  1.
     -623   -1    0    0    0    0  0.00000000000E+00  0.00000000000E+00  0.12525980253E-10  0.17130000000E+03  0.17130000000E+03 0.  1.
       11    1    1    2    0    0 -0.45755933151E-02 -0.58435184975E-03  0.51558932641E-01  0.51767386252E-01  0.51109989000E-03 0.  1.
     -623    1    1    2    0    0  0.28987182259E-02  0.43282389962E-02  0.41325945333E-03  0.17130000008E+03  0.17130000000E+03 0.  1.
      622    1    1    2    0    0  0.16768750882E-02 -0.37438871480E-02  0.39480277767E+01  0.39482325354E+01  0.40000000000E-01 0.  1.
</event>
<event>
 5   0  0.7212170E+07  0.9118800E+02  0.7818608E-02  0.1180000E+00
       11   -1    0    0    0    0  0.00000000000E+00  0.00000000000E+00  0.39999999673E+01  0.40000000000E+01  0.51109989000E-03 0. -1.
     -623   -1    0    0    0    0  0.00000000000E+00  0.00000000000E+00  0.12525980253E-10  0.17130000000E+03  0.17130000000E+03 0. -1.
       11    1    1    2    0    0 -0.11282473352E-01 -0.35623951052E-01  0.26833608102E+01  0.26836210349E+01  0.51109989000E-03 0. -1.
     -623    1    1    2    0    0 -0.13431803147E-01 -0.17803229472E-02  0.16325893840E-02  0.17130000054E+03  0.17130000000E+03 0. -1.
      622    1    1    2    0    0  0.24714276499E-01  0.37404273999E-01  0.13150065678E+01  0.13163784215E+01  0.40000000000E-01 0. -1.
</event>
<event>
 5   0  0.7212170E+07  0.9118800E+02  0.7818608E-02  0.1180000E+00
       11   -1    0    0    0    0  0.00000000000E+00  0.00000000000E+00  0.39999999673E+01  0.40000000000E+01  0.51109989000E-03 0.  1.
     -623   -1    0    0    0    0  0.00000000000E+00  0.00000000000E+00  0.12525980253E-10  0.17130000000E+03  0.17130000000E+03 0.  1.
       11    1    1    2    0    0 -0.72972758169E-03 -0.45086135255E-03  0.51824111880E-02  0.52777255633E-02  0.51109989000E-03 0.  1.
     -623    1    1    2    0    0 -0.46655138932E-04  0.39097130440E-03  0.29562759647E-03  0.17130000000E+03  0.17130000000E+03 0.  1.
      622    1    1    2    0    0  0.77638272062E-03  0.59890048176E-04  0.39945219284E+01  0.39947222735E+01  0.40000000000E-01 0.  1.
</event>
<event>
 5   0  0.7212170E+07  0.9118800E+02  0.7818608E-02  0.1180000E+00
       11   -1    0    0    0    0  0.00000000000E+00  0.00000000000E+00  0.39999999673E+01  0.40000000000E+01  0.51109989000E-03 0. -1.
     -623   -1    0    0    0    0  0.00000000000E+00  0.00000000000E+00  0.12525980253E-10  0.17130000000E+03  0.17130000000E+03 0.  1.
       11    1    1    2    0    0 -0.21983982937E-02 -0.59664550452E-03  0.20921525766E-01  0.21051375356E-01  0.51109989000E-03 0. -1.
     -623    1    1    2    0    0 -0.97881508005E-03  0.17794489108E-02  0.33233691761E-03  0.17130000001E+03  0.17130000000E+03 0.  1.
      622    1    1    2    0    0  0.31772133739E-02 -0.11828034066E-02  0.39787461053E+01  0.39789486129E+01  0.40000000000E-01 0. -1.
</event>
<event>
 5   0  0.7212170E+07  0.9118800E+02  0.7818608E-02  0.1180000E+00
       11   -1    0    0    0    0  0.00000000000E+00  0.00000000000E+00  0.39999999673E+01  0.40000000000E+01  0.51109989000E-03 0. -1.
     -623   -1    0    0    0    0  0.00000000000E+00  0.00000000000E+00  0.12525980253E-10  0.17130000000E+03  0.17130000000E+03 0.  1.
       11    1    1    2    0    0  0.45196208665E-02  0.11979313336E-01  0.43882859212E-01  0.45715396492E-01  0.51109989000E-03 0. -1.
     -623    1    1    2    0    0 -0.10967283554E-03  0.15019561519E-01  0.21301296439E-02  0.17130000067E+03  0.17130000000E+03 0.  1.
      622    1    1    2    0    0 -0.44099480310E-02 -0.26998874855E-01  0.39539869785E+01  0.39542839318E+01  0.40000000000E-01 0. -1.
</event>
<event>
 5   0  0.7212170E+07  0.9118800E+02  0.7818608E-02  0.1180000E+00
       11   -1    0    0    0    0  0.00000000000E+00  0.00000000000E+00  0.39999999673E+01  0.40000000000E+01  0.51109989000E-03 0.  1.
     -623   -1    0    0    0    0  0.00000000000E+00  0.00000000000E+00  0.12525980253E-10  0.17130000000E+03  0.17130000000E+03 0. -1.
       11    1    1    2    0    0 -0.26704999684E-03 -0.11518690998E-02  0.64680123489E-02  0.65950379049E-02  0.51109989000E-03 0.  1.
     -623    1    1    2    0    0 -0.10646456393E-02  0.60145123855E-03  0.32759290338E-03  0.17130000000E+03  0.17130000000E+03 0. -1.
      622    1    1    2    0    0  0.13316956364E-02  0.55041786106E-03  0.39932043632E+01  0.39934049586E+01  0.40000000000E-01 0.  1.
</event>
<event>
 5   0  0.7212170E+07  0.9118800E+02  0.7818608E-02  0.1180000E+00
       11   -1    0    0    0    0  0.00000000000E+00  0.00000000000E+00  0.39999999673E+01  0.40000000000E+01  0.51109989000E-03 0. -1.
     -623   -1    0    0    0    0  0.00000000000E+00  0.00000000000E+00  0.12525980253E-10  0.17130000000E+03  0.17130000000E+03 0. -1.
       11    1    1    2    0    0 -0.10006929005E-01  0.16044853617E-01  0.21040544966E+00  0.21125408972E+00  0.51109989000E-03 0. -1.
     -623    1    1    2    0    0 -0.25739382326E-01 -0.34960057136E-03  0.12628609346E-02  0.17130000194E+03  0.17130000000E+03 0. -1.
      622    1    1    2    0    0  0.35746311333E-01 -0.15695253046E-01  0.37883316572E+01  0.37887439719E+01  0.40000000000E-01 0. -1.
</event>
<event>
 5   0  0.7212170E+07  0.9118800E+02  0.7818608E-02  0.1180000E+00
       11   -1    0    0    0    0  0.00000000000E+00  0.00000000000E+00  0.39999999673E+01  0.40000000000E+01  0.51109989000E-03 0.  1.
     -623   -1    0    0    0    0  0.00000000000E+00  0.00000000000E+00  0.12525980253E-10  0.17130000000E+03  0.17130000000E+03 0. -1.
       11    1    1    2    0    0 -0.23753120068E-01  0.27667182769E-01  0.19181740280E+00  0.19525332508E+00  0.51109989000E-03 0.  1.
     -623    1    1    2    0    0  0.32558263741E-01 -0.22823635014E-02  0.37441869463E-02  0.17130000315E+03  0.17130000000E+03 0. -1.
      622    1    1    2    0    0 -0.88051436730E-02 -0.25384819268E-01  0.38044383777E+01  0.38047435248E+01  0.40000000000E-01 0.  1.
</event>
<event>
 5   0  0.7212170E+07  0.9118800E+02  0.7818608E-02  0.1180000E+00
       11   -1    0    0    0    0  0.00000000000E+00  0.00000000000E+00  0.39999999673E+01  0.40000000000E+01  0.51109989000E-03 0.  1.
     -623   -1    0    0    0    0  0.00000000000E+00  0.00000000000E+00  0.12525980253E-10  0.17130000000E+03  0.17130000000E+03 0. -1.
       11    1    1    2    0    0 -0.21918990851E-03  0.27096206935E-03  0.35897476817E-02  0.36426605901E-02  0.51109989000E-03 0.  1.
     -623    1    1    2    0    0  0.32657729815E-03  0.29571584017E-04  0.25308082606E-03  0.17130000000E+03  0.17130000000E+03 0. -1.
      622    1    1    2    0    0 -0.10738738955E-03 -0.30053365336E-03  0.39961571377E+01  0.39963573378E+01  0.40000000000E-01 0.  1.
</event>
<event>
 5   0  0.7212170E+07  0.9118800E+02  0.7818608E-02  0.1180000E+00
       11   -1    0    0    0    0  0.00000000000E+00  0.00000000000E+00  0.39999999673E+01  0.40000000000E+01  0.51109989000E-03 0. -1.
     -623   -1    0    0    0    0  0.00000000000E+00  0.00000000000E+00  0.12525980253E-10  0.17130000000E+03  0.17130000000E+03 0. -1.
       11    1    1    2    0    0 -0.18743348196E-02  0.11401958681E-01  0.12041415890E+01  0.12041971373E+01  0.51109989000E-03 0. -1.
     -623    1    1    2    0    0 -0.35823586876E-02 -0.10553599329E-02  0.36618736761E-03  0.17130000004E+03  0.17130000000E+03 0. -1.
      622    1    1    2    0    0  0.54566935075E-02 -0.10346598748E-01  0.27954921914E+01  0.27958028220E+01  0.40000000000E-01 0. -1.
</event>
<event>
 5   0  0.7212170E+07  0.9118800E+02  0.7818608E-02  0.1180000E+00
       11   -1    0    0    0    0  0.00000000000E+00  0.00000000000E+00  0.39999999673E+01  0.40000000000E+01  0.51109989000E-03 0. -1.
     -623   -1    0    0    0    0  0.00000000000E+00  0.00000000000E+00  0.12525980253E-10  0.17130000000E+03  0.17130000000E+03 0.  1.
       11    1    1    2    0    0  0.88044950287E-02 -0.10160763631E-02  0.13370286016E+00  0.13399726707E+00  0.51109989000E-03 0. -1.
     -623    1    1    2    0    0 -0.26364613192E-03 -0.14029891029E-02  0.51151030555E-03  0.17130000001E+03  0.17130000000E+03 0.  1.
      622    1    1    2    0    0 -0.85408488968E-02  0.24190654661E-02  0.38657855970E+01  0.38660027264E+01  0.40000000000E-01 0. -1.
</event>
<event>
 5   0  0.7212170E+07  0.9118800E+02  0.7818608E-02  0.1180000E+00
       11   -1    0    0    0    0  0.00000000000E+00  0.00000000000E+00  0.39999999673E+01  0.40000000000E+01  0.51109989000E-03 0. -1.
     -623   -1    0    0    0    0  0.00000000000E+00  0.00000000000E+00  0.12525980253E-10  0.17130000000E+03  0.17130000000E+03 0. -1.
       11    1    1    2    0    0 -0.76312907016E-03 -0.45235250196E-03  0.12301708352E-02  0.16004787238E-02  0.51109989000E-03 0. -1.
     -623    1    1    2    0    0  0.67911374002E-03  0.18934661837E-02  0.57063367336E-03  0.17130000001E+03  0.17130000000E+03 0. -1.
      622    1    1    2    0    0  0.84015330175E-04 -0.14411136816E-02  0.39981991626E+01  0.39983995083E+01  0.40000000000E-01 0. -1.
</event>
<event>
 5   0  0.7212170E+07  0.9118800E+02  0.7818608E-02  0.1180000E+00
       11   -1    0    0    0    0  0.00000000000E+00  0.00000000000E+00  0.39999999673E+01  0.40000000000E+01  0.51109989000E-03 0. -1.
     -623   -1    0    0    0    0  0.00000000000E+00  0.00000000000E+00  0.12525980253E-10  0.17130000000E+03  0.17130000000E+03 0. -1.
       11    1    1    2    0    0 -0.22770865052E-01  0.25010496822E-01  0.12304167699E+01  0.12308816865E+01  0.51109989000E-03 0. -1.
     -623    1    1    2    0    0 -0.12897529295E-03 -0.16254152811E-02  0.94726761234E-03  0.17130000001E+03  0.17130000000E+03 0. -1.
      622    1    1    2    0    0  0.22899840345E-01 -0.23385081540E-01  0.27686359299E+01  0.27691183032E+01  0.40000000000E-01 0. -1.
</event>
<event>
 5   0  0.7212170E+07  0.9118800E+02  0.7818608E-02  0.1180000E+00
       11   -1    0    0    0    0  0.00000000000E+00  0.00000000000E+00  0.39999999673E+01  0.40000000000E+01  0.51109989000E-03 0. -1.
     -623   -1    0    0    0    0  0.00000000000E+00  0.00000000000E+00  0.12525980253E-10  0.17130000000E+03  0.17130000000E+03 0. -1.
       11    1    1    2    0    0  0.54472030648E-02 -0.29584775510E-01  0.10809336215E+01  0.10813522490E+01  0.51109989000E-03 0. -1.
     -623    1    1    2    0    0 -0.22553090681E-01 -0.97240770198E-02  0.10093548609E-02  0.17130000176E+03  0.17130000000E+03 0. -1.
      622    1    1    2    0    0  0.17105887618E-01  0.39308852531E-01  0.29180569912E+01  0.29186459877E+01  0.40000000000E-01 0. -1.
</event>
<event>
 5   0  0.7212170E+07  0.9118800E+02  0.7818608E-02  0.1180000E+00
       11   -1    0    0    0    0  0.00000000000E+00  0.00000000000E+00  0.39999999673E+01  0.40000000000E+01  0.51109989000E-03 0. -1.
     -623   -1    0    0    0    0  0.00000000000E+00  0.00000000000E+00  0.12525980253E-10  0.17130000000E+03  0.17130000000E+03 0. -1.
       11    1    1    2    0    0 -0.13309459665E-01  0.36822814109E-02  0.14276940598E+01  0.14277609361E+01  0.51109989000E-03 0. -1.
     -623    1    1    2    0    0 -0.43127020362E-03  0.82643667846E-03  0.41853634580E-03  0.17130000000E+03  0.17130000000E+03 0. -1.
      622    1    1    2    0    0  0.13740729869E-01 -0.45087180895E-02  0.25718873716E+01  0.25722390613E+01  0.40000000000E-01 0. -1.
</event>
<event>
 5   0  0.7212170E+07  0.9118800E+02  0.7818608E-02  0.1180000E+00
       11   -1    0    0    0    0  0.00000000000E+00  0.00000000000E+00  0.39999999673E+01  0.40000000000E+01  0.51109989000E-03 0.  1.
     -623   -1    0    0    0    0  0.00000000000E+00  0.00000000000E+00  0.12525980253E-10  0.17130000000E+03  0.17130000000E+03 0. -1.
       11    1    1    2    0    0  0.82215406085E-02 -0.32465140408E-02  0.88998181830E-01  0.89437526663E-01  0.51109989000E-03 0.  1.
     -623    1    1    2    0    0 -0.29295336189E-03  0.37868068699E-02  0.65201032618E-03  0.17130000004E+03  0.17130000000E+03 0. -1.
      622    1    1    2    0    0 -0.79285872466E-02 -0.54029282887E-03  0.39103497750E+01  0.39105624298E+01  0.40000000000E-01 0.  1.
</event>
<event>
 5   0  0.7212170E+07  0.9118800E+02  0.7818608E-02  0.1180000E+00
       11   -1    0    0    0    0  0.00000000000E+00  0.00000000000E+00  0.39999999673E+01  0.40000000000E+01  0.51109989000E-03 0.  1.
     -623   -1    0    0    0    0  0.00000000000E+00  0.00000000000E+00  0.12525980253E-10  0.17130000000E+03  0.17130000000E+03 0. -1.
       11    1    1    2    0    0  0.18851129117E-02 -0.58600758256E-02  0.63155401610E-01  0.63456757836E-01  0.51109989000E-03 0.  1.
     -623    1    1    2    0    0  0.42538138571E-02  0.22341294983E-02  0.51107797363E-03  0.17130000007E+03  0.17130000000E+03 0. -1.
      622    1    1    2    0    0 -0.61389267691E-02  0.36259463271E-02  0.39363334881E+01  0.39365431743E+01  0.40000000000E-01 0.  1.
</event>
<event>
 5   0  0.7212170E+07  0.9118800E+02  0.7818608E-02  0.1180000E+00
       11   -1    0    0    0    0  0.00000000000E+00  0.00000000000E+00  0.39999999673E+01  0.40000000000E+01  0.51109989000E-03 0.  1.
     -623   -1    0    0    0    0  0.00000000000E+00  0.00000000000E+00  0.12525980253E-10  0.17130000000E+03  0.17130000000E+03 0.  1.
       11    1    1    2    0    0  0.64037847604E-02  0.55499836970E-02  0.22194253804E+00  0.22210484504E+00  0.51109989000E-03 0.  1.
     -623    1    1    2    0    0 -0.11826730830E-02  0.39190295404E-02  0.38956320428E-03  0.17130000005E+03  0.17130000000E+03 0.  1.
      622    1    1    2    0    0 -0.52211116774E-02 -0.94690132373E-02  0.37776678660E+01  0.37778951055E+01  0.40000000000E-01 0.  1.
</event>
<event>
 5   0  0.7212170E+07  0.9118800E+02  0.7818608E-02  0.1180000E+00
       11   -1    0    0    0    0  0.00000000000E+00  0.00000000000E+00  0.39999999673E+01  0.40000000000E+01  0.51109989000E-03 0.  1.
     -623   -1    0    0    0    0  0.00000000000E+00  0.00000000000E+00  0.12525980253E-10  0.17130000000E+03  0.17130000000E+03 0.  1.
       11    1    1    2    0    0  0.24070320098E-02  0.10315494967E-02  0.42801211661E-01  0.42884295963E-01  0.51109989000E-03 0.  1.
     -623    1    1    2    0    0 -0.26633445435E-02 -0.19785724318E-02  0.28537827752E-03  0.17130000003E+03  0.17130000000E+03 0.  1.
      622    1    1    2    0    0  0.25631253404E-03  0.94702293528E-03  0.39569133778E+01  0.39571156721E+01  0.40000000000E-01 0.  1.
</event>
<event>
 5   0  0.7212170E+07  0.9118800E+02  0.7818608E-02  0.1180000E+00
       11   -1    0    0    0    0  0.00000000000E+00  0.00000000000E+00  0.39999999673E+01  0.40000000000E+01  0.51109989000E-03 0. -1.
     -623   -1    0    0    0    0  0.00000000000E+00  0.00000000000E+00  0.12525980253E-10  0.17130000000E+03  0.17130000000E+03 0.  1.
       11    1    1    2    0    0 -0.62317043528E-03 -0.54144153949E-02  0.21860878472E-01  0.22535826280E-01  0.51109989000E-03 0. -1.
     -623    1    1    2    0    0 -0.10497867715E-02  0.46799655680E-04  0.88003276400E-03  0.17130000001E+03  0.17130000000E+03 0.  1.
      622    1    1    2    0    0  0.16729572069E-02  0.53676157392E-02  0.39772590563E+01  0.39774641684E+01  0.40000000000E-01 0. -1.
</event>
<event>
 5   0  0.7212170E+07  0.9118800E+02  0.7818608E-02  0.1180000E+00
       11   -1    0    0    0    0  0.00000000000E+00  0.00000000000E+00  0.39999999673E+01  0.40000000000E+01  0.51109989000E-03 0. -1.
     -623   -1    0    0    0    0  0.00000000000E+00  0.00000000000E+00  0.12525980253E-10  0.17130000000E+03  0.17130000000E+03 0. -1.
       11    1    1    2    0    0 -0.75868562784E-03  0.23717479441E-02  0.10627406259E+01  0.10627436661E+01  0.51109989000E-03 0. -1.
     -623    1    1    2    0    0 -0.20365849508E-03 -0.39860133957E-03  0.27620453986E-03  0.17130000000E+03  0.17130000000E+03 0. -1.
      622    1    1    2    0    0  0.96234412293E-03 -0.19731466045E-02  0.29369831373E+01  0.29372563334E+01  0.40000000000E-01 0. -1.
</event>
<event>
 5   0  0.7212170E+07  0.9118800E+02  0.7818608E-02  0.1180000E+00
       11   -1    0    0    0    0  0.00000000000E+00  0.00000000000E+00  0.39999999673E+01  0.40000000000E+01  0.51109989000E-03 0.  1.
     -623   -1    0    0    0    0  0.00000000000E+00  0.00000000000E+00  0.12525980253E-10  0.17130000000E+03  0.17130000000E+03 0. -1.
       11    1    1    2    0    0  0.97580332555E-02 -0.27583219921E-02  0.15478955388E+01  0.15479288381E+01  0.51109989000E-03 0.  1.
     -623    1    1    2    0    0  0.37811182967E-02 -0.48157765724E-02  0.40873610109E-03  0.17130000011E+03  0.17130000000E+03 0. -1.
      622    1    1    2    0    0 -0.13539151553E-01  0.75740985653E-02  0.24516956931E+01  0.24520710527E+01  0.40000000000E-01 0.  1.
</event>
<event>
 5   0  0.7212170E+07  0.9118800E+02  0.7818608E-02  0.1180000E+00
       11   -1    0    0    0    0  0.00000000000E+00  0.00000000000E+00  0.39999999673E+01  0.40000000000E+01  0.51109989000E-03 0.  1.
     -623   -1    0    0    0    0  0.00000000000E+00  0.00000000000E+00  0.12525980253E-10  0.17130000000E+03  0.17130000000E+03 0. -1.
       11    1    1    2    0    0 -0.33820058793E-02  0.13893334673E-01  0.69878737195E-01  0.71328548613E-01  0.51109989000E-03 0.  1.
     -623    1    1    2    0    0 -0.55437686875E-03 -0.16224586090E-02  0.16745687341E-02  0.17130000002E+03  0.17130000000E+03 0. -1.
      622    1    1    2    0    0  0.39363827481E-02 -0.12270876064E-01  0.39284466617E+01  0.39286714349E+01  0.40000000000E-01 0.  1.
</event>
<event>
 5   0  0.7212170E+07  0.9118800E+02  0.7818608E-02  0.1180000E+00
       11   -1    0    0    0    0  0.00000000000E+00  0.00000000000E+00  0.39999999673E+01  0.40000000000E+01  0.51109989000E-03 0. -1.
     -623   -1    0    0    0    0  0.00000000000E+00  0.00000000000E+00  0.12525980253E-10  0.17130000000E+03  0.17130000000E+03 0.  1.
       11    1    1    2    0    0 -0.18533524021E-01  0.63506583217E-02  0.44122206711E+00  0.44165710240E+00  0.51109989000E-03 0. -1.
     -623    1    1    2    0    0 -0.84716401660E-02  0.18568113252E-02  0.77200359666E-03  0.17130000022E+03  0.17130000000E+03 0.  1.
      622    1    1    2    0    0  0.27005164186E-01 -0.82074696467E-02  0.35580058964E+01  0.35583426761E+01  0.40000000000E-01 0. -1.
</event>
<event>
 5   0  0.7212170E+07  0.9118800E+02  0.7818608E-02  0.1180000E+00
       11   -1    0    0    0    0  0.00000000000E+00  0.00000000000E+00  0.39999999673E+01  0.40000000000E+01  0.51109989000E-03 0. -1.
     -623   -1    0    0    0    0  0.00000000000E+00  0.00000000000E+00  0.12525980253E-10  0.17130000000E+03  0.17130000000E+03 0. -1.
       11    1    1    2    0    0 -0.72221928529E-02  0.19122518871E-01  0.41793616603E+00  0.41843605354E+00  0.51109989000E-03 0. -1.
     -623    1    1    2    0    0  0.63713647553E-02 -0.84082778545E-02  0.73968232247E-03  0.17130000033E+03  0.17130000000E+03 0. -1.
      622    1    1    2    0    0  0.85082809679E-03 -0.10714241016E-01  0.35813241195E+01  0.35815636205E+01  0.40000000000E-01 0.  0.
</event>
<event>
 5   0  0.7212170E+07  0.9118800E+02  0.7818608E-02  0.1180000E+00
       11   -1    0    0    0    0  0.00000000000E+00  0.00000000000E+00  0.39999999673E+01  0.40000000000E+01  0.51109989000E-03 0.  1.
     -623   -1    0    0    0    0  0.00000000000E+00  0.00000000000E+00  0.12525980253E-10  0.17130000000E+03  0.17130000000E+03 0.  1.
       11    1    1    2    0    0 -0.22046025174E-01 -0.10347632183E-01  0.26908832793E+00  0.27018861962E+00  0.51109989000E-03 0.  1.
     -623    1    1    2    0    0  0.29826733684E-01 -0.32635986913E-01  0.15762848980E-02  0.17130000571E+03  0.17130000000E+03 0.  1.
      622    1    1    2    0    0 -0.77807085086E-02  0.42983619095E-01  0.37293353544E+01  0.37298056674E+01  0.40000000000E-01 0.  1.
</event>
<event>
 5   0  0.7212170E+07  0.9118800E+02  0.7818608E-02  0.1180000E+00
       11   -1    0    0    0    0  0.00000000000E+00  0.00000000000E+00  0.39999999673E+01  0.40000000000E+01  0.51109989000E-03 0.  1.
     -623   -1    0    0    0    0  0.00000000000E+00  0.00000000000E+00  0.12525980253E-10  0.17130000000E+03  0.17130000000E+03 0. -1.
       11    1    1    2    0    0  0.12212758486E-02  0.26107344112E-02  0.24923675686E-01  0.25094985190E-01  0.51109989000E-03 0.  1.
     -623    1    1    2    0    0 -0.37566961160E-04 -0.43689348936E-02  0.37316588558E-03  0.17130000006E+03  0.17130000000E+03 0. -1.
      622    1    1    2    0    0 -0.11837088875E-02  0.17582004831E-02  0.39747031264E+01  0.39749049593E+01  0.40000000000E-01 0.  1.
</event>
<event>
 5   0  0.7212170E+07  0.9118800E+02  0.7818608E-02  0.1180000E+00
       11   -1    0    0    0    0  0.00000000000E+00  0.00000000000E+00  0.39999999673E+01  0.40000000000E+01  0.51109989000E-03 0.  1.
     -623   -1    0    0    0    0  0.00000000000E+00  0.00000000000E+00  0.12525980253E-10  0.17130000000E+03  0.17130000000E+03 0.  1.
       11    1    1    2    0    0  0.77898112895E-03  0.15345857297E-02  0.77322487688E-02  0.79379253638E-02  0.51109989000E-03 0.  1.
     -623    1    1    2    0    0  0.90641451246E-03  0.40025850957E-03  0.40687472010E-03  0.17130000000E+03  0.17130000000E+03 0.  1.
      622    1    1    2    0    0 -0.16853956415E-02 -0.19348442393E-02  0.39918608444E+01  0.39920620718E+01  0.40000000000E-01 0.  1.
</event>
<event>
 5   0  0.7212170E+07  0.9118800E+02  0.7818608E-02  0.1180000E+00
       11   -1    0    0    0    0  0.00000000000E+00  0.00000000000E+00  0.39999999673E+01  0.40000000000E+01  0.51109989000E-03 0. -1.
     -623   -1    0    0    0    0  0.00000000000E+00  0.00000000000E+00  0.12525980253E-10  0.17130000000E+03  0.17130000000E+03 0.  1.
       11    1    1    2    0    0  0.32888554453E-01 -0.43195987314E-01  0.14805214871E+00  0.15769353282E+00  0.51109989000E-03 0. -1.
     -623    1    1    2    0    0 -0.92835952957E-02  0.33160694244E-01  0.99389336273E-02  0.17130000375E+03  0.17130000000E+03 0.  1.
      622    1    1    2    0    0 -0.23604959157E-01  0.10035293070E-01  0.38420088850E+01  0.38423027176E+01  0.40000000000E-01 0. -1.
</event>
<event>
 5   0  0.7212170E+07  0.9118800E+02  0.7818608E-02  0.1180000E+00
       11   -1    0    0    0    0  0.00000000000E+00  0.00000000000E+00  0.39999999673E+01  0.40000000000E+01  0.51109989000E-03 0. -1.
     -623   -1    0    0    0    0  0.00000000000E+00  0.00000000000E+00  0.12525980253E-10  0.17130000000E+03  0.17130000000E+03 0.  1.
       11    1    1    2    0    0 -0.10837812589E-01  0.70184287151E-02  0.18372687238E+01  0.18373141650E+01  0.51109989000E-03 0. -1.
     -623    1    1    2    0    0 -0.10164180329E-03  0.29277893859E-03  0.45538435100E-03  0.17130000000E+03  0.17130000000E+03 0.  1.
      622    1    1    2    0    0  0.10939454392E-01 -0.73112076537E-02  0.21622758595E+01  0.21626858343E+01  0.40000000000E-01 0.  1.
</event>
<event>
 5   0  0.7212170E+07  0.9118800E+02  0.7818608E-02  0.1180000E+00
       11   -1    0    0    0    0  0.00000000000E+00  0.00000000000E+00  0.39999999673E+01  0.40000000000E+01  0.51109989000E-03 0. -1.
     -623   -1    0    0    0    0  0.00000000000E+00  0.00000000000E+00  0.12525980253E-10  0.17130000000E+03  0.17130000000E+03 0.  1.
       11    1    1    2    0    0  0.45591719177E-02  0.33826686162E-02  0.57259887956E-01  0.57542892587E-01  0.51109989000E-03 0. -1.
     -623    1    1    2    0    0  0.71677363209E-03 -0.53995300349E-02  0.49002998985E-03  0.17130000009E+03  0.17130000000E+03 0.  1.
      622    1    1    2    0    0 -0.52759455499E-02  0.20168614196E-02  0.39422500500E+01  0.39424570207E+01  0.40000000000E-01 0. -1.
</event>
<event>
 5   0  0.7212170E+07  0.9118800E+02  0.7818608E-02  0.1180000E+00
       11   -1    0    0    0    0  0.00000000000E+00  0.00000000000E+00  0.39999999673E+01  0.40000000000E+01  0.51109989000E-03 0. -1.
     -623   -1    0    0    0    0  0.00000000000E+00  0.00000000000E+00  0.12525980253E-10  0.17130000000E+03  0.17130000000E+03 0. -1.
       11    1    1    2    0    0 -0.48203612287E-02 -0.11884926947E-02  0.64211200425E-01  0.64404874663E-01  0.51109989000E-03 0. -1.
     -623    1    1    2    0    0  0.10859107978E-02 -0.21883085067E-02  0.40015831209E-03  0.17130000002E+03  0.17130000000E+03 0. -1.
      622    1    1    2    0    0  0.37344504309E-02  0.33768012014E-02  0.39353886085E+01  0.39355951074E+01  0.40000000000E-01 0. -1.
</event>
<event>
 5   0  0.7212170E+07  0.9118800E+02  0.7818608E-02  0.1180000E+00
       11   -1    0    0    0    0  0.00000000000E+00  0.00000000000E+00  0.39999999673E+01  0.40000000000E+01  0.51109989000E-03 0. -1.
     -623   -1    0    0    0    0  0.00000000000E+00  0.00000000000E+00  0.12525980253E-10  0.17130000000E+03  0.17130000000E+03 0. -1.
       11    1    1    2    0    0  0.18283466491E-02  0.16208458637E-02  0.15421570597E-02  0.29341888620E-02  0.51109989000E-03 0. -1.
     -623    1    1    2    0    0 -0.34422980081E-02  0.25518705697E-02  0.15947160241E-02  0.17130000006E+03  0.17130000000E+03 0. -1.
      622    1    1    2    0    0  0.16139513591E-02 -0.41727164336E-02  0.39968630945E+01  0.39970657503E+01  0.40000000000E-01 0. -1.
</event>
<event>
 5   0  0.7212170E+07  0.9118800E+02  0.7818608E-02  0.1180000E+00
       11   -1    0    0    0    0  0.00000000000E+00  0.00000000000E+00  0.39999999673E+01  0.40000000000E+01  0.51109989000E-03 0. -1.
     -623   -1    0    0    0    0  0.00000000000E+00  0.00000000000E+00  0.12525980253E-10  0.17130000000E+03  0.17130000000E+03 0. -1.
       11    1    1    2    0    0  0.21940373369E-02  0.10096088566E-02  0.93184496660E-02  0.96399085657E-02  0.51109989000E-03 0. -1.
     -623    1    1    2    0    0  0.88707977857E-02  0.22023917267E-02  0.53879355961E-03  0.17130000024E+03  0.17130000000E+03 0. -1.
      622    1    1    2    0    0 -0.11064835125E-01 -0.32120005839E-02  0.39901427253E+01  0.39903598479E+01  0.40000000000E-01 0. -1.
</event>
<event>
 5   0  0.7212170E+07  0.9118800E+02  0.7818608E-02  0.1180000E+00
       11   -1    0    0    0    0  0.00000000000E+00  0.00000000000E+00  0.39999999673E+01  0.40000000000E+01  0.51109989000E-03 0. -1.
     -623   -1    0    0    0    0  0.00000000000E+00  0.00000000000E+00  0.12525980253E-10  0.17130000000E+03  0.17130000000E+03 0.  1.
       11    1    1    2    0    0 -0.31060104741E-02  0.71531242224E-02  0.49019124644E+00  0.49025354032E+00  0.51109989000E-03 0. -1.
     -623    1    1    2    0    0 -0.67444507176E-03 -0.99814318529E-03  0.29764328383E-03  0.17130000000E+03  0.17130000000E+03 0.  1.
      622    1    1    2    0    0  0.37804555459E-02 -0.61549810370E-02  0.35095110781E+01  0.35097464556E+01  0.40000000000E-01 0. -1.
</event>
<event>
 5   0  0.7212170E+07  0.9118800E+02  0.7818608E-02  0.1180000E+00
       11   -1    0    0    0    0  0.00000000000E+00  0.00000000000E+00  0.39999999673E+01  0.40000000000E+01  0.51109989000E-03 0.  1.
     -623   -1    0    0    0    0  0.00000000000E+00  0.00000000000E+00  0.12525980253E-10  0.17130000000E+03  0.17130000000E+03 0. -1.
       11    1    1    2    0    0  0.47860247156E-02 -0.32815169124E-03  0.15790449419E-01  0.16511003363E-01  0.51109989000E-03 0.  1.
     -623    1    1    2    0    0 -0.36186885906E-02 -0.17762914575E-02  0.92213221152E-03  0.17130000005E+03  0.17130000000E+03 0. -1.
      622    1    1    2    0    0 -0.11673361245E-02  0.21044431490E-02  0.39832873862E+01  0.39834889472E+01  0.40000000000E-01 0.  1.
</event>
<event>
 5   0  0.7212170E+07  0.9118800E+02  0.7818608E-02  0.1180000E+00
       11   -1    0    0    0    0  0.00000000000E+00  0.00000000000E+00  0.39999999673E+01  0.40000000000E+01  0.51109989000E-03 0.  1.
     -623   -1    0    0    0    0  0.00000000000E+00  0.00000000000E+00  0.12525980253E-10  0.17130000000E+03  0.17130000000E+03 0. -1.
       11    1    1    2    0    0  0.17077290560E-02 -0.67288289754E-03  0.57896300287E-02  0.60950921970E-02  0.51109989000E-03 0.  1.
     -623    1    1    2    0    0 -0.13767105869E-02  0.19406930004E-02  0.50597199729E-03  0.17130000002E+03  0.17130000000E+03 0. -1.
      622    1    1    2    0    0 -0.33101846896E-03 -0.12678101030E-02  0.39937043657E+01  0.39939048909E+01  0.40000000000E-01 0.  1.
</event>
<event>
 5   0  0.7212170E+07  0.9118800E+02  0.7818608E-02  0.1180000E+00
       11   -1    0    0    0    0  0.00000000000E+00  0.00000000000E+00  0.39999999673E+01  0.40000000000E+01  0.51109989000E-03 0. -1.
     -623   -1    0    0    0    0  0.00000000000E+00  0.00000000000E+00  0.12525980253E-10  0.17130000000E+03  0.17130000000E+03 0.  1.
       11    1    1    2    0    0 -0.36275589783E-02 -0.19985737714E-02  0.52529327700E+00  0.52530985292E+00  0.51109989000E-03 0. -1.
     -623    1    1    2    0    0 -0.14620861824E-02 -0.22086391715E-02  0.25308302265E-03  0.17130000002E+03  0.17130000000E+03 0.  1.
      622    1    1    2    0    0  0.50896451614E-02  0.42072129438E-02  0.34744536091E+01  0.34746901282E+01  0.40000000000E-01 0. -1.
</event>
<event>
 5   0  0.7212170E+07  0.9118800E+02  0.7818608E-02  0.1180000E+00
       11   -1    0    0    0    0  0.00000000000E+00  0.00000000000E+00  0.39999999673E+01  0.40000000000E+01  0.51109989000E-03 0. -1.
     -623   -1    0    0    0    0  0.00000000000E+00  0.00000000000E+00  0.12525980253E-10  0.17130000000E+03  0.17130000000E+03 0. -1.
       11    1    1    2    0    0 -0.14490691058E-03 -0.28899873895E-03  0.78743974606E-03  0.99287599180E-03  0.51109989000E-03 0.  1.
     -623    1    1    2    0    0 -0.31327408908E-03 -0.13133262937E-03  0.40550742285E-03  0.17130000000E+03  0.17130000000E+03 0. -1.
      622    1    1    2    0    0  0.45818099973E-03  0.42033136835E-03  0.39988070211E+01  0.39990071241E+01  0.40000000000E-01 0. -1.
</event>
<event>
 5   0  0.7212170E+07  0.9118800E+02  0.7818608E-02  0.1180000E+00
       11   -1    0    0    0    0  0.00000000000E+00  0.00000000000E+00  0.39999999673E+01  0.40000000000E+01  0.51109989000E-03 0. -1.
     -623   -1    0    0    0    0  0.00000000000E+00  0.00000000000E+00  0.12525980253E-10  0.17130000000E+03  0.17130000000E+03 0.  1.
       11    1    1    2    0    0 -0.66189683137E-02  0.46265306773E-02  0.78851828722E+00  0.78855980498E+00  0.51109989000E-03 0. -1.
     -623    1    1    2    0    0 -0.19757802663E-02  0.67519965870E-02  0.32241037744E-03  0.17130000014E+03  0.17130000000E+03 0.  1.
      622    1    1    2    0    0  0.85947485805E-02 -0.11378527266E-01  0.32111592708E+01  0.32114400513E+01  0.40000000000E-01 0.  0.
</event>
<event>
 5   0  0.7212170E+07  0.9118800E+02  0.7818608E-02  0.1180000E+00
       11   -1    0    0    0    0  0.00000000000E+00  0.00000000000E+00  0.39999999673E+01  0.40000000000E+01  0.51109989000E-03 0. -1.
     -623   -1    0    0    0    0  0.00000000000E+00  0.00000000000E+00  0.12525980253E-10  0.17130000000E+03  0.17130000000E+03 0.  1.
       11    1    1    2    0    0 -0.61501739287E-02  0.37971532690E-02  0.38813664953E+00  0.38820427992E+00  0.51109989000E-03 0. -1.
     -623    1    1    2    0    0 -0.10789101099E-02 -0.89697919276E-03  0.29750649698E-03  0.17130000001E+03  0.17130000000E+03 0.  1.
      622    1    1    2    0    0  0.72290840382E-02 -0.29001740765E-02  0.36115658101E+01  0.36117957128E+01  0.40000000000E-01 0. -1.
</event>
<event>
 5   0  0.7212170E+07  0.9118800E+02  0.7818608E-02  0.1180000E+00
       11   -1    0    0    0    0  0.00000000000E+00  0.00000000000E+00  0.39999999673E+01  0.40000000000E+01  0.51109989000E-03 0. -1.
     -623   -1    0    0    0    0  0.00000000000E+00  0.00000000000E+00  0.12525980253E-10  0.17130000000E+03  0.17130000000E+03 0. -1.
       11    1    1    2    0    0 -0.42849293843E-03  0.30007618059E-03  0.10864215967E-02  0.13096514406E-02  0.51109989000E-03 0. -1.
     -623    1    1    2    0    0  0.73718765792E-03 -0.13237721110E-02  0.42341789737E-03  0.17130000001E+03  0.17130000000E+03 0. -1.
      622    1    1    2    0    0 -0.30869471957E-03  0.10236959306E-02  0.39984901283E+01  0.39986903418E+01  0.40000000000E-01 0. -1.
</event>
<event>
 5   0  0.7212170E+07  0.9118800E+02  0.7818608E-02  0.1180000E+00
       11   -1    0    0    0    0  0.00000000000E+00  0.00000000000E+00  0.39999999673E+01  0.40000000000E+01  0.51109989000E-03 0.  1.
     -623   -1    0    0    0    0  0.00000000000E+00  0.00000000000E+00  0.12525980253E-10  0.17130000000E+03  0.17130000000E+03 0. -1.
       11    1    1    2    0    0 -0.71112471327E-03 -0.68468784462E-03  0.15258134633E+00  0.15258539565E+00  0.51109989000E-03 0.  1.
     -623    1    1    2    0    0  0.15560808273E-03 -0.10544819719E-03  0.21207562302E-03  0.17130000000E+03  0.17130000000E+03 0. -1.
      622    1    1    2    0    0  0.55551663049E-03  0.79013604185E-03  0.38472065468E+01  0.38474146055E+01  0.40000000000E-01 0. -1.
</event>
<event>
 5   0  0.7212170E+07  0.9118800E+02  0.7818608E-02  0.1180000E+00
       11   -1    0    0    0    0  0.00000000000E+00  0.00000000000E+00  0.39999999673E+01  0.40000000000E+01  0.51109989000E-03 0. -1.
     -623   -1    0    0    0    0  0.00000000000E+00  0.00000000000E+00  0.12525980253E-10  0.17130000000E+03  0.17130000000E+03 0. -1.
       11    1    1    2    0    0 -0.31683837190E-01  0.50869619344E-02  0.10987846771E+01  0.10992532786E+01  0.51109989000E-03 0. -1.
     -623    1    1    2    0    0  0.77992349770E-02 -0.14706314546E-02  0.84515685981E-03  0.17130000019E+03  0.17130000000E+03 0. -1.
      622    1    1    2    0    0  0.23884602213E-01 -0.36163304797E-02  0.29003701337E+01  0.29007465357E+01  0.40000000000E-01 0.  0.
</event>
<event>
 5   0  0.7212170E+07  0.9118800E+02  0.7818608E-02  0.1180000E+00
       11   -1    0    0    0    0  0.00000000000E+00  0.00000000000E+00  0.39999999673E+01  0.40000000000E+01  0.51109989000E-03 0.  1.
     -623   -1    0    0    0    0  0.00000000000E+00  0.00000000000E+00  0.12525980253E-10  0.17130000000E+03  0.17130000000E+03 0. -1.
       11    1    1    2    0    0 -0.35894131575E-02 -0.42396141637E-02  0.91174092782E-01  0.91344592795E-01  0.51109989000E-03 0.  1.
     -623    1    1    2    0    0  0.88014251595E-02 -0.29549759523E-02  0.38549574620E-03  0.17130000025E+03  0.17130000000E+03 0. -1.
      622    1    1    2    0    0 -0.52120120022E-02  0.71945901160E-02  0.39084403789E+01  0.39086551553E+01  0.40000000000E-01 0.  1.
</event>
<event>
 5   0  0.7212170E+07  0.9118800E+02  0.7818608E-02  0.1180000E+00
       11   -1    0    0    0    0  0.00000000000E+00  0.00000000000E+00  0.39999999673E+01  0.40000000000E+01  0.51109989000E-03 0. -1.
     -623   -1    0    0    0    0  0.00000000000E+00  0.00000000000E+00  0.12525980253E-10  0.17130000000E+03  0.17130000000E+03 0.  1.
       11    1    1    2    0    0 -0.37035505786E-03  0.11090000863E-02  0.44076919295E-02  0.45886833953E-02  0.51109989000E-03 0. -1.
     -623    1    1    2    0    0  0.47310022630E-03 -0.11330739999E-03  0.38132005127E-03  0.17130000000E+03  0.17130000000E+03 0.  1.
      622    1    1    2    0    0 -0.10274516855E-03 -0.99569268625E-03  0.39952109563E+01  0.39954113164E+01  0.40000000000E-01 0. -1.
</event>
<event>
 5   0  0.7212170E+07  0.9118800E+02  0.7818608E-02  0.1180000E+00
       11   -1    0    0    0    0  0.00000000000E+00  0.00000000000E+00  0.39999999673E+01  0.40000000000E+01  0.51109989000E-03 0. -1.
     -623   -1    0    0    0    0  0.00000000000E+00  0.00000000000E+00  0.12525980253E-10  0.17130000000E+03  0.17130000000E+03 0. -1.
       11    1    1    2    0    0 -0.25745521809E-01  0.82537695580E-02  0.20542421990E+01  0.20544201689E+01  0.51109989000E-03 0. -1.
     -623    1    1    2    0    0  0.11327905020E-01  0.29103705875E-02  0.67504131557E-03  0.17130000040E+03  0.17130000000E+03 0. -1.
      622    1    1    2    0    0  0.14417616789E-01 -0.11164140145E-01  0.19450827269E+01  0.19455794305E+01  0.40000000000E-01 0.  0.
</event>
<event>
 5   0  0.7212170E+07  0.9118800E+02  0.7818608E-02  0.1180000E+00
       11   -1    0    0    0    0  0.00000000000E+00  0.00000000000E+00  0.39999999673E+01  0.40000000000E+01  0.51109989000E-03 0. -1.
     -623   -1    0    0    0    0  0.00000000000E+00  0.00000000000E+00  0.12525980253E-10  0.17130000000E+03  0.17130000000E+03 0.  1.
       11    1    1    2    0    0  0.83471755740E-02 -0.14008060037E-01  0.10378060496E+01  0.10379342748E+01  0.51109989000E-03 0. -1.
     -623    1    1    2    0    0  0.23268964379E-02  0.13225775283E-02  0.44470900260E-03  0.17130000002E+03  0.17130000000E+03 0.  1.
      622    1    1    2    0    0 -0.10674072012E-01  0.12685482509E-01  0.29617492092E+01  0.29620657041E+01  0.40000000000E-01 0. -1.
</event>
<event>
 5   0  0.7212170E+07  0.9118800E+02  0.7818608E-02  0.1180000E+00
       11   -1    0    0    0    0  0.00000000000E+00  0.00000000000E+00  0.39999999673E+01  0.40000000000E+01  0.51109989000E-03 0.  1.
     -623   -1    0    0    0    0  0.00000000000E+00  0.00000000000E+00  0.12525980253E-10  0.17130000000E+03  0.17130000000E+03 0. -1.
       11    1    1    2    0    0  0.20339804353E-02 -0.30901754034E-01  0.13398701465E+01  0.13402280874E+01  0.51109989000E-03 0.  1.
     -623    1    1    2    0    0  0.16941198245E-01 -0.21223153620E-01  0.12394338861E-02  0.17130000216E+03  0.17130000000E+03 0. -1.
      622    1    1    2    0    0 -0.18975178682E-01  0.52124907657E-01  0.26588903874E+01  0.26597697561E+01  0.40000000000E-01 0.  0.
</event>
<event>
 5   0  0.7212170E+07  0.9118800E+02  0.7818608E-02  0.1180000E+00
       11   -1    0    0    0    0  0.00000000000E+00  0.00000000000E+00  0.39999999673E+01  0.40000000000E+01  0.51109989000E-03 0. -1.
     -623   -1    0    0    0    0  0.00000000000E+00  0.00000000000E+00  0.12525980253E-10  0.17130000000E+03  0.17130000000E+03 0.  1.
       11    1    1    2    0    0  0.11722871293E-02 -0.56302391229E-03  0.14680445283E-01  0.14746794561E-01  0.51109989000E-03 0. -1.
     -623    1    1    2    0    0  0.31022331335E-03  0.32659104299E-02  0.26828577323E-03  0.17130000003E+03  0.17130000000E+03 0.  1.
      622    1    1    2    0    0 -0.14825104427E-02 -0.27028865185E-02  0.39850512374E+01  0.39852531749E+01  0.40000000000E-01 0. -1.
</event>
<event>
 5   0  0.7212170E+07  0.9118800E+02  0.7818608E-02  0.1180000E+00
       11   -1    0    0    0    0  0.00000000000E+00  0.00000000000E+00  0.39999999673E+01  0.40000000000E+01  0.51109989000E-03 0. -1.
     -623   -1    0    0    0    0  0.00000000000E+00  0.00000000000E+00  0.12525980253E-10  0.17130000000E+03  0.17130000000E+03 0. -1.
       11    1    1    2    0    0 -0.13305496430E-01 -0.30494833080E-01  0.17733918538E+01  0.17737040056E+01  0.51109989000E-03 0. -1.
     -623    1    1    2    0    0  0.37946473106E-02  0.71696789969E-01  0.10882220548E-02  0.17130001505E+03  0.17130000000E+03 0. -1.
      622    1    1    2    0    0  0.95108491188E-02 -0.41201956897E-01  0.22255198920E+01  0.22262809452E+01  0.40000000000E-01 0.  0.
</event>
<event>
 5   0  0.7212170E+07  0.9118800E+02  0.7818608E-02  0.1180000E+00
       11   -1    0    0    0    0  0.00000000000E+00  0.00000000000E+00  0.39999999673E+01  0.40000000000E+01  0.51109989000E-03 0. -1.
     -623   -1    0    0    0    0  0.00000000000E+00  0.00000000000E+00  0.12525980253E-10  0.17130000000E+03  0.17130000000E+03 0.  1.
       11    1    1    2    0    0 -0.11510526800E-02  0.11103535912E-01  0.80045375048E-01  0.80821635232E-01  0.51109989000E-03 0. -1.
     -623    1    1    2    0    0 -0.68950011127E-02  0.10924953479E-02  0.10077395892E-02  0.17130000015E+03  0.17130000000E+03 0.  1.
      622    1    1    2    0    0  0.80460537927E-02 -0.12196031260E-01  0.39189468528E+01  0.39191782196E+01  0.40000000000E-01 0. -1.
</event>
<event>
 5   0  0.7212170E+07  0.9118800E+02  0.7818608E-02  0.1180000E+00
       11   -1    0    0    0    0  0.00000000000E+00  0.00000000000E+00  0.39999999673E+01  0.40000000000E+01  0.51109989000E-03 0. -1.
     -623   -1    0    0    0    0  0.00000000000E+00  0.00000000000E+00  0.12525980253E-10  0.17130000000E+03  0.17130000000E+03 0. -1.
       11    1    1    2    0    0 -0.43738312149E-02 -0.19964155840E-02  0.12827861628E+00  0.12836970317E+00  0.51109989000E-03 0. -1.
     -623    1    1    2    0    0  0.19374402552E-02  0.99940330637E-03  0.29860022275E-03  0.17130000001E+03  0.17130000000E+03 0. -1.
      622    1    1    2    0    0  0.24363909592E-02  0.99701227738E-03  0.38714227519E+01  0.38716302838E+01  0.40000000000E-01 0. -1.
</event>
<event>
 5   0  0.7212170E+07  0.9118800E+02  0.7818608E-02  0.1180000E+00
       11   -1    0    0    0    0  0.00000000000E+00  0.00000000000E+00  0.39999999673E+01  0.40000000000E+01  0.51109989000E-03 0. -1.
     -623   -1    0    0    0    0  0.00000000000E+00  0.00000000000E+00  0.12525980253E-10  0.17130000000E+03  0.17130000000E+03 0. -1.
       11    1    1    2    0    0 -0.16433475526E-02 -0.10546770202E-02  0.93868059027E-02  0.96013688060E-02  0.51109989000E-03 0. -1.
     -623    1    1    2    0    0  0.43278349144E-02  0.28286895013E-03  0.41604960110E-03  0.17130000006E+03  0.17130000000E+03 0. -1.
      622    1    1    2    0    0 -0.26844873625E-02  0.77180807003E-03  0.39901971125E+01  0.39903985764E+01  0.40000000000E-01 0. -1.
</event>
<event>
 5   0  0.7212170E+07  0.9118800E+02  0.7818608E-02  0.1180000E+00
       11   -1    0    0    0    0  0.00000000000E+00  0.00000000000E+00  0.39999999673E+01  0.40000000000E+01  0.51109989000E-03 0. -1.
     -623   -1    0    0    0    0  0.00000000000E+00  0.00000000000E+00  0.12525980253E-10  0.17130000000E+03  0.17130000000E+03 0.  1.
       11    1    1    2    0    0  0.17766125381E-01  0.13548249049E-01  0.13805575811E+01  0.13807384568E+01  0.51109989000E-03 0. -1.
     -623    1    1    2    0    0  0.27435082443E-02 -0.19183046859E-02  0.59245660856E-03  0.17130000003E+03  0.17130000000E+03 0.  1.
      622    1    1    2    0    0 -0.20509633626E-01 -0.11629944363E-01  0.26188499302E+01  0.26192615100E+01  0.40000000000E-01 0.  0.
</event>
<event>
 5   0  0.7212170E+07  0.9118800E+02  0.7818608E-02  0.1180000E+00
       11   -1    0    0    0    0  0.00000000000E+00  0.00000000000E+00  0.39999999673E+01  0.40000000000E+01  0.51109989000E-03 0. -1.
     -623   -1    0    0    0    0  0.00000000000E+00  0.00000000000E+00  0.12525980253E-10  0.17130000000E+03  0.17130000000E+03 0. -1.
       11    1    1    2    0    0  0.15381156723E-02  0.93387875708E-03  0.16279485717E-01  0.16386604519E-01  0.51109989000E-03 0. -1.
     -623    1    1    2    0    0 -0.38571590798E-03  0.98180757029E-03  0.30854478672E-03  0.17130000000E+03  0.17130000000E+03 0. -1.
      622    1    1    2    0    0 -0.11523997641E-02 -0.19156863279E-02  0.39834119391E+01  0.39836133942E+01  0.40000000000E-01 0. -1.
</event>
<event>
 5   0  0.7212170E+07  0.9118800E+02  0.7818608E-02  0.1180000E+00
       11   -1    0    0    0    0  0.00000000000E+00  0.00000000000E+00  0.39999999673E+01  0.40000000000E+01  0.51109989000E-03 0. -1.
     -623   -1    0    0    0    0  0.00000000000E+00  0.00000000000E+00  0.12525980253E-10  0.17130000000E+03  0.17130000000E+03 0.  1.
       11    1    1    2    0    0  0.48551997912E-02  0.19293043555E-01  0.78725251151E+00  0.78750401434E+00  0.51109989000E-03 0. -1.
     -623    1    1    2    0    0 -0.63589460306E-02  0.19575560118E-02  0.57128192088E-03  0.17130000013E+03  0.17130000000E+03 0.  1.
      622    1    1    2    0    0  0.15037462391E-02 -0.21250599567E-01  0.32121761737E+01  0.32124958553E+01  0.40000000000E-01 0. -1.
</event>
<event>
 5   0  0.7212170E+07  0.9118800E+02  0.7818608E-02  0.1180000E+00
       11   -1    0    0    0    0  0.00000000000E+00  0.00000000000E+00  0.39999999673E+01  0.40000000000E+01  0.51109989000E-03 0. -1.
     -623   -1    0    0    0    0  0.00000000000E+00  0.00000000000E+00  0.12525980253E-10  0.17130000000E+03  0.17130000000E+03 0. -1.
       11    1    1    2    0    0  0.48817390839E-04  0.34262521861E-03  0.10579402834E-01  0.10597394142E-01  0.51109989000E-03 0. -1.
     -623    1    1    2    0    0  0.66726515779E-04  0.69363874390E-03  0.21863280926E-03  0.17130000000E+03  0.17130000000E+03 0. -1.
      622    1    1    2    0    0 -0.11554390662E-03 -0.10362639625E-02  0.39892019317E+01  0.39894026043E+01  0.40000000000E-01 0. -1.
</event>
<event>
 5   0  0.7212170E+07  0.9118800E+02  0.7818608E-02  0.1180000E+00
       11   -1    0    0    0    0  0.00000000000E+00  0.00000000000E+00  0.39999999673E+01  0.40000000000E+01  0.51109989000E-03 0.  1.
     -623   -1    0    0    0    0  0.00000000000E+00  0.00000000000E+00  0.12525980253E-10  0.17130000000E+03  0.17130000000E+03 0.  1.
       11    1    1    2    0    0  0.27398031926E-03 -0.32203291751E-02  0.30675772764E+00  0.30677517871E+00  0.51109989000E-03 0.  1.
     -623    1    1    2    0    0 -0.19410597111E-03 -0.75869468421E-03  0.23618406196E-03  0.17130000000E+03  0.17130000000E+03 0.  1.
      622    1    1    2    0    0 -0.79874348093E-04  0.39790238595E-02  0.36930060569E+01  0.36932248206E+01  0.40000000000E-01 0.  1.
</event>
<event>
 5   0  0.7212170E+07  0.9118800E+02  0.7818608E-02  0.1180000E+00
       11   -1    0    0    0    0  0.00000000000E+00  0.00000000000E+00  0.39999999673E+01  0.40000000000E+01  0.51109989000E-03 0.  1.
     -623   -1    0    0    0    0  0.00000000000E+00  0.00000000000E+00  0.12525980253E-10  0.17130000000E+03  0.17130000000E+03 0. -1.
       11    1    1    2    0    0  0.48496591354E-02 -0.12208423718E-02  0.17845696465E+00  0.17852775444E+00  0.51109989000E-03 0.  1.
     -623    1    1    2    0    0 -0.97222812533E-04 -0.12849059053E-03  0.28330008916E-03  0.17130000000E+03  0.17130000000E+03 0. -1.
      622    1    1    2    0    0 -0.47524363228E-02  0.13493329624E-02  0.38212597023E+01  0.38214722449E+01  0.40000000000E-01 0.  1.
</event>
<event>
 5   0  0.7212170E+07  0.9118800E+02  0.7818608E-02  0.1180000E+00
       11   -1    0    0    0    0  0.00000000000E+00  0.00000000000E+00  0.39999999673E+01  0.40000000000E+01  0.51109989000E-03 0.  1.
     -623   -1    0    0    0    0  0.00000000000E+00  0.00000000000E+00  0.12525980253E-10  0.17130000000E+03  0.17130000000E+03 0.  1.
       11    1    1    2    0    0  0.10768052190E-01  0.99484411076E-02  0.20760505271E+01  0.20761023517E+01  0.51109989000E-03 0.  1.
     -623    1    1    2    0    0  0.17959237149E-02 -0.53955894284E-02  0.51417671789E-03  0.17130000010E+03  0.17130000000E+03 0.  1.
      622    1    1    2    0    0 -0.12563975905E-01 -0.45528516781E-02  0.19234352644E+01  0.19238975540E+01  0.40000000000E-01 0. -1.
</event>
<event>
 5   0  0.7212170E+07  0.9118800E+02  0.7818608E-02  0.1180000E+00
       11   -1    0    0    0    0  0.00000000000E+00  0.00000000000E+00  0.39999999673E+01  0.40000000000E+01  0.51109989000E-03 0. -1.
     -623   -1    0    0    0    0  0.00000000000E+00  0.00000000000E+00  0.12525980253E-10  0.17130000000E+03  0.17130000000E+03 0. -1.
       11    1    1    2    0    0  0.76828743283E-01 -0.28753812885E-01  0.17525079902E+01  0.17544269590E+01  0.51109989000E-03 0. -1.
     -623    1    1    2    0    0 -0.43785450178E-01  0.20364912245E-01  0.25408872371E-02  0.17130000683E+03  0.17130000000E+03 0. -1.
      622    1    1    2    0    0 -0.33043293104E-01  0.83889006395E-02  0.22449510900E+01  0.22455662157E+01  0.40000000000E-01 0. -1.
</event>
<event>
 5   0  0.7212170E+07  0.9118800E+02  0.7818608E-02  0.1180000E+00
       11   -1    0    0    0    0  0.00000000000E+00  0.00000000000E+00  0.39999999673E+01  0.40000000000E+01  0.51109989000E-03 0. -1.
     -623   -1    0    0    0    0  0.00000000000E+00  0.00000000000E+00  0.12525980253E-10  0.17130000000E+03  0.17130000000E+03 0.  1.
       11    1    1    2    0    0  0.37473692634E-02  0.10351571380E-01  0.34138167763E+00  0.34155952461E+00  0.51109989000E-03 0. -1.
     -623    1    1    2    0    0  0.45655579394E-02 -0.10364560693E-02  0.41786274306E-03  0.17130000006E+03  0.17130000000E+03 0.  1.
      622    1    1    2    0    0 -0.83129272030E-02 -0.93151153112E-02  0.36582004272E+01  0.36584404111E+01  0.40000000000E-01 0. -1.
</event>
<event>
 5   0  0.7212170E+07  0.9118800E+02  0.7818608E-02  0.1180000E+00
       11   -1    0    0    0    0  0.00000000000E+00  0.00000000000E+00  0.39999999673E+01  0.40000000000E+01  0.51109989000E-03 0. -1.
     -623   -1    0    0    0    0  0.00000000000E+00  0.00000000000E+00  0.12525980253E-10  0.17130000000E+03  0.17130000000E+03 0. -1.
       11    1    1    2    0    0  0.28458608103E-03 -0.28502000108E-02  0.48585682752E+00  0.48586553973E+00  0.51109989000E-03 0. -1.
     -623    1    1    2    0    0 -0.50603294400E-03  0.25830295384E-02  0.23637654317E-03  0.17130000002E+03  0.17130000000E+03 0. -1.
      622    1    1    2    0    0  0.22144686290E-03  0.26717047277E-03  0.35139067627E+01  0.35141344393E+01  0.40000000000E-01 0. -1.
</event>
<event>
 5   0  0.7212170E+07  0.9118800E+02  0.7818608E-02  0.1180000E+00
       11   -1    0    0    0    0  0.00000000000E+00  0.00000000000E+00  0.39999999673E+01  0.40000000000E+01  0.51109989000E-03 0.  1.
     -623   -1    0    0    0    0  0.00000000000E+00  0.00000000000E+00  0.12525980253E-10  0.17130000000E+03  0.17130000000E+03 0. -1.
       11    1    1    2    0    0  0.70191279654E-04 -0.55993863571E-03  0.65972251263E-02  0.66410135188E-02  0.51109989000E-03 0.  1.
     -623    1    1    2    0    0  0.48805634975E-03  0.85205254973E-03  0.24414607551E-03  0.17130000000E+03  0.17130000000E+03 0. -1.
      622    1    1    2    0    0 -0.55824762918E-03 -0.29211391362E-03  0.39931585943E+01  0.39933589816E+01  0.40000000000E-01 0.  1.
</event>
<event>
 5   0  0.7212170E+07  0.9118800E+02  0.7818608E-02  0.1180000E+00
       11   -1    0    0    0    0  0.00000000000E+00  0.00000000000E+00  0.39999999673E+01  0.40000000000E+01  0.51109989000E-03 0. -1.
     -623   -1    0    0    0    0  0.00000000000E+00  0.00000000000E+00  0.12525980253E-10  0.17130000000E+03  0.17130000000E+03 0. -1.
       11    1    1    2    0    0 -0.67060961307E-02 -0.14472137713E-02  0.13995305894E+00  0.14012203996E+00  0.51109989000E-03 0. -1.
     -623    1    1    2    0    0  0.17402169120E-01 -0.69980568911E-02  0.40130202660E-03  0.17130000103E+03  0.17130000000E+03 0. -1.
      622    1    1    2    0    0 -0.10696072994E-01  0.84452706643E-02  0.38596456075E+01  0.38598769338E+01  0.40000000000E-01 0. -1.
</event>
<event>
 5   0  0.7212170E+07  0.9118800E+02  0.7818608E-02  0.1180000E+00
       11   -1    0    0    0    0  0.00000000000E+00  0.00000000000E+00  0.39999999673E+01  0.40000000000E+01  0.51109989000E-03 0. -1.
     -623   -1    0    0    0    0  0.00000000000E+00  0.00000000000E+00  0.12525980253E-10  0.17130000000E+03  0.17130000000E+03 0.  1.
       11    1    1    2    0    0  0.50291590285E-01 -0.31869760244E-01  0.31679828963E+01  0.31685423807E+01  0.51109989000E-03 0. -1.
     -623    1    1    2    0    0 -0.21554134375E-03  0.60633995741E-02  0.34351753793E-02  0.17130000014E+03  0.17130000000E+03 0.  1.
      622    1    1    2    0    0 -0.50076048942E-01  0.25806360670E-01  0.82858189557E+00  0.83145747732E+00  0.40000000000E-01 0. -1.
</event>
<event>
 5   0  0.7212170E+07  0.9118800E+02  0.7818608E-02  0.1180000E+00
       11   -1    0    0    0    0  0.00000000000E+00  0.00000000000E+00  0.39999999673E+01  0.40000000000E+01  0.51109989000E-03 0.  1.
     -623   -1    0    0    0    0  0.00000000000E+00  0.00000000000E+00  0.12525980253E-10  0.17130000000E+03  0.17130000000E+03 0. -1.
       11    1    1    2    0    0  0.57113838817E-02 -0.50805852804E-01  0.25096884191E+01  0.25102091699E+01  0.51109989000E-03 0.  1.
     -623    1    1    2    0    0  0.64643728677E-02  0.74919902391E-02  0.17379021887E-02  0.17130000029E+03  0.17130000000E+03 0. -1.
      622    1    1    2    0    0 -0.12175756750E-01  0.43313862564E-01  0.14885736462E+01  0.14897905356E+01  0.40000000000E-01 0.  1.
</event>
<event>
 5   0  0.7212170E+07  0.9118800E+02  0.7818608E-02  0.1180000E+00
       11   -1    0    0    0    0  0.00000000000E+00  0.00000000000E+00  0.39999999673E+01  0.40000000000E+01  0.51109989000E-03 0. -1.
     -623   -1    0    0    0    0  0.00000000000E+00  0.00000000000E+00  0.12525980253E-10  0.17130000000E+03  0.17130000000E+03 0. -1.
       11    1    1    2    0    0  0.26111040216E-02  0.79643236925E-02  0.73690747250E-01  0.74167619414E-01  0.51109989000E-03 0. -1.
     -623    1    1    2    0    0 -0.11006633995E-01 -0.16057746747E-01  0.69905160965E-03  0.17130000111E+03  0.17130000000E+03 0. -1.
      622    1    1    2    0    0  0.83955299738E-02  0.80934230559E-02  0.39256101688E+01  0.39258312732E+01  0.40000000000E-01 0. -1.
</event>
<event>
 5   0  0.7212170E+07  0.9118800E+02  0.7818608E-02  0.1180000E+00
       11   -1    0    0    0    0  0.00000000000E+00  0.00000000000E+00  0.39999999673E+01  0.40000000000E+01  0.51109989000E-03 0. -1.
     -623   -1    0    0    0    0  0.00000000000E+00  0.00000000000E+00  0.12525980253E-10  0.17130000000E+03  0.17130000000E+03 0.  1.
       11    1    1    2    0    0  0.85591984252E-03  0.38210836648E-02  0.66597725129E-01  0.66714702237E-01  0.51109989000E-03 0. -1.
     -623    1    1    2    0    0 -0.32327193248E-02 -0.44258370655E-04  0.32290440727E-03  0.17130000003E+03  0.17130000000E+03 0.  1.
      622    1    1    2    0    0  0.23767994823E-02 -0.37768252941E-02  0.39330793378E+01  0.39332852669E+01  0.40000000000E-01 0. -1.
</event>
<event>
 5   0  0.7212170E+07  0.9118800E+02  0.7818608E-02  0.1180000E+00
       11   -1    0    0    0    0  0.00000000000E+00  0.00000000000E+00  0.39999999673E+01  0.40000000000E+01  0.51109989000E-03 0. -1.
     -623   -1    0    0    0    0  0.00000000000E+00  0.00000000000E+00  0.12525980253E-10  0.17130000000E+03  0.17130000000E+03 0. -1.
       11    1    1    2    0    0  0.91696390295E-03  0.15719780086E-02  0.29702382040E-01  0.29762470657E-01  0.51109989000E-03 0. -1.
     -623    1    1    2    0    0  0.73949156416E-03 -0.33772513646E-02  0.26235148076E-03  0.17130000004E+03  0.17130000000E+03 0. -1.
      622    1    1    2    0    0 -0.16564554672E-02  0.18052733564E-02  0.39700352342E+01  0.39702374946E+01  0.40000000000E-01 0. -1.
</event>
<event>
 5   0  0.7212170E+07  0.9118800E+02  0.7818608E-02  0.1180000E+00
       11   -1    0    0    0    0  0.00000000000E+00  0.00000000000E+00  0.39999999673E+01  0.40000000000E+01  0.51109989000E-03 0. -1.
     -623   -1    0    0    0    0  0.00000000000E+00  0.00000000000E+00  0.12525980253E-10  0.17130000000E+03  0.17130000000E+03 0.  1.
       11    1    1    2    0    0  0.73368474887E-03 -0.47048712694E-02  0.13931767190E+00  0.13939996067E+00  0.51109989000E-03 0. -1.
     -623    1    1    2    0    0  0.11332627104E-02  0.79791397242E-03  0.29191770216E-03  0.17130000001E+03  0.17130000000E+03 0.  1.
      622    1    1    2    0    0 -0.18669474595E-02  0.39069572969E-02  0.38603903785E+01  0.38606000342E+01  0.40000000000E-01 0. -1.
</event>
<event>
 5   0  0.7212170E+07  0.9118800E+02  0.7818608E-02  0.1180000E+00
       11   -1    0    0    0    0  0.00000000000E+00  0.00000000000E+00  0.39999999673E+01  0.40000000000E+01  0.51109989000E-03 0.  1.
     -623   -1    0    0    0    0  0.00000000000E+00  0.00000000000E+00  0.12525980253E-10  0.17130000000E+03  0.17130000000E+03 0.  1.
       11    1    1    2    0    0  0.18197333773E-02  0.45736338965E-04  0.13016240032E-02  0.22954236037E-02  0.51109989000E-03 0.  1.
     -623    1    1    2    0    0 -0.37194515853E-02 -0.14715580057E-02  0.11946433532E-02  0.17130000005E+03  0.17130000000E+03 0.  1.
      622    1    1    2    0    0  0.18997182079E-02  0.14258216667E-02  0.39975037000E+01  0.39977045255E+01  0.40000000000E-01 0.  1.
</event>
<event>
 5   0  0.7212170E+07  0.9118800E+02  0.7818608E-02  0.1180000E+00
       11   -1    0    0    0    0  0.00000000000E+00  0.00000000000E+00  0.39999999673E+01  0.40000000000E+01  0.51109989000E-03 0. -1.
     -623   -1    0    0    0    0  0.00000000000E+00  0.00000000000E+00  0.12525980253E-10  0.17130000000E+03  0.17130000000E+03 0.  1.
       11    1    1    2    0    0 -0.68531766392E-03 -0.30740004197E-02  0.19001684293E-01  0.19267702716E-01  0.51109989000E-03 0. -1.
     -623    1    1    2    0    0 -0.12092464143E-02  0.35776800278E-02  0.46748390605E-03  0.17130000004E+03  0.17130000000E+03 0.  1.
      622    1    1    2    0    0  0.18945640781E-02 -0.50367960770E-03  0.39805307988E+01  0.39807322547E+01  0.40000000000E-01 0. -1.
</event>
<event>
 5   0  0.7212170E+07  0.9118800E+02  0.7818608E-02  0.1180000E+00
       11   -1    0    0    0    0  0.00000000000E+00  0.00000000000E+00  0.39999999673E+01  0.40000000000E+01  0.51109989000E-03 0.  1.
     -623   -1    0    0    0    0  0.00000000000E+00  0.00000000000E+00  0.12525980253E-10  0.17130000000E+03  0.17130000000E+03 0. -1.
       11    1    1    2    0    0  0.11802586517E-01 -0.10678802215E-01  0.12253018253E+01  0.12254053053E+01  0.51109989000E-03 0.  1.
     -623    1    1    2    0    0 -0.28060554015E-02 -0.25721036021E-02  0.43806806293E-03  0.17130000004E+03  0.17130000000E+03 0. -1.
      622    1    1    2    0    0 -0.89965311145E-02  0.13250905818E-01  0.27742600749E+01  0.27745946527E+01  0.40000000000E-01 0.  1.
</event>
<event>
 5   0  0.7212170E+07  0.9118800E+02  0.7818608E-02  0.1180000E+00
       11   -1    0    0    0    0  0.00000000000E+00  0.00000000000E+00  0.39999999673E+01  0.40000000000E+01  0.51109989000E-03 0. -1.
     -623   -1    0    0    0    0  0.00000000000E+00  0.00000000000E+00  0.12525980253E-10  0.17130000000E+03  0.17130000000E+03 0. -1.
       11    1    1    2    0    0 -0.78183852178E-02  0.31328690880E-03  0.12528543400E+01  0.12528788783E+01  0.51109989000E-03 0. -1.
     -623    1    1    2    0    0 -0.21767680604E-03 -0.12269374958E-02  0.32764696358E-03  0.17130000000E+03  0.17130000000E+03 0. -1.
      622    1    1    2    0    0  0.80360620238E-02  0.91365058682E-03  0.27468179799E+01  0.27471211164E+01  0.40000000000E-01 0. -1.
</event>
<event>
 5   0  0.7212170E+07  0.9118800E+02  0.7818608E-02  0.1180000E+00
       11   -1    0    0    0    0  0.00000000000E+00  0.00000000000E+00  0.39999999673E+01  0.40000000000E+01  0.51109989000E-03 0. -1.
     -623   -1    0    0    0    0  0.00000000000E+00  0.00000000000E+00  0.12525980253E-10  0.17130000000E+03  0.17130000000E+03 0. -1.
       11    1    1    2    0    0 -0.47300035283E-02 -0.35448216787E-02  0.28749023677E+00  0.28755144958E+00  0.51109989000E-03 0. -1.
     -623    1    1    2    0    0  0.46137429107E-02 -0.90591151392E-03  0.27941228111E-03  0.17130000006E+03  0.17130000000E+03 0. -1.
      622    1    1    2    0    0  0.11626061757E-03  0.44507331926E-02  0.37122303183E+01  0.37124484857E+01  0.40000000000E-01 0. -1.
</event>
<event>
 5   0  0.7212170E+07  0.9118800E+02  0.7818608E-02  0.1180000E+00
       11   -1    0    0    0    0  0.00000000000E+00  0.00000000000E+00  0.39999999673E+01  0.40000000000E+01  0.51109989000E-03 0.  1.
     -623   -1    0    0    0    0  0.00000000000E+00  0.00000000000E+00  0.12525980253E-10  0.17130000000E+03  0.17130000000E+03 0. -1.
       11    1    1    2    0    0 -0.83135529304E-02  0.34652058860E-02  0.32579341115E+00  0.32591828851E+00  0.51109989000E-03 0.  1.
     -623    1    1    2    0    0 -0.21441770679E-02 -0.26495783820E-02  0.35760158342E-03  0.17130000003E+03  0.17130000000E+03 0. -1.
      622    1    1    2    0    0  0.10457729999E-01 -0.81562750342E-03  0.36738489555E+01  0.36740816781E+01  0.40000000000E-01 0.  1.
</event>
<event>
 5   0  0.7212170E+07  0.9118800E+02  0.7818608E-02  0.1180000E+00
       11   -1    0    0    0    0  0.00000000000E+00  0.00000000000E+00  0.39999999673E+01  0.40000000000E+01  0.51109989000E-03 0. -1.
     -623   -1    0    0    0    0  0.00000000000E+00  0.00000000000E+00  0.12525980253E-10  0.17130000000E+03  0.17130000000E+03 0.  1.
       11    1    1    2    0    0 -0.67773478564E-03 -0.20509979444E-03  0.27523469922E-03  0.91562416010E-03  0.51109989000E-03 0. -1.
     -623    1    1    2    0    0  0.48039616210E-03  0.33514114078E-03  0.84041766287E-03  0.17130000000E+03  0.17130000000E+03 0.  1.
      622    1    1    2    0    0  0.19733862350E-03 -0.13004134638E-03  0.39988843153E+01  0.39990843731E+01  0.40000000000E-01 0. -1.
</event>
<event>
 5   0  0.7212170E+07  0.9118800E+02  0.7818608E-02  0.1180000E+00
       11   -1    0    0    0    0  0.00000000000E+00  0.00000000000E+00  0.39999999673E+01  0.40000000000E+01  0.51109989000E-03 0.  1.
     -623   -1    0    0    0    0  0.00000000000E+00  0.00000000000E+00  0.12525980253E-10  0.17130000000E+03  0.17130000000E+03 0. -1.
       11    1    1    2    0    0  0.58372001896E-02 -0.47042656900E-02  0.63056277065E+00  0.63060754196E+00  0.51109989000E-03 0.  1.
     -623    1    1    2    0    0 -0.16520601089E-02 -0.21850457853E-02  0.29184380070E-03  0.17130000002E+03  0.17130000000E+03 0. -1.
      622    1    1    2    0    0 -0.41851400802E-02  0.68893114760E-02  0.33691453543E+01  0.33693924372E+01  0.40000000000E-01 0.  1.
</event>
<event>
 5   0  0.7212170E+07  0.9118800E+02  0.7818608E-02  0.1180000E+00
       11   -1    0    0    0    0  0.00000000000E+00  0.00000000000E+00  0.39999999673E+01  0.40000000000E+01  0.51109989000E-03 0. -1.
     -623   -1    0    0    0    0  0.00000000000E+00  0.00000000000E+00  0.12525980253E-10  0.17130000000E+03  0.17130000000E+03 0.  1.
       11    1    1    2    0    0 -0.39213649026E-02 -0.41161754332E-01  0.90503250121E+00  0.90597668656E+00  0.51109989000E-03 0. -1.
     -623    1    1    2    0    0  0.43704718872E-02 -0.34395334924E-02  0.15243703621E-02  0.17130000010E+03  0.17130000000E+03 0.  1.
      622    1    1    2    0    0 -0.44910698465E-03  0.44601287825E-01  0.30934430958E+01  0.30940232164E+01  0.40000000000E-01 0. -1.
</event>
<event>
 5   0  0.7212170E+07  0.9118800E+02  0.7818608E-02  0.1180000E+00
       11   -1    0    0    0    0  0.00000000000E+00  0.00000000000E+00  0.39999999673E+01  0.40000000000E+01  0.51109989000E-03 0.  1.
     -623   -1    0    0    0    0  0.00000000000E+00  0.00000000000E+00  0.12525980253E-10  0.17130000000E+03  0.17130000000E+03 0.  1.
       11    1    1    2    0    0 -0.18506542165E-02 -0.28784063352E-03  0.46078331330E-02  0.50001122526E-02  0.51109989000E-03 0.  1.
     -623    1    1    2    0    0  0.11806395762E-02  0.90894923618E-03  0.59261379532E-03  0.17130000001E+03  0.17130000000E+03 0.  1.
      622    1    1    2    0    0  0.67001464017E-03 -0.62110860275E-03  0.39947995208E+01  0.39949998807E+01  0.40000000000E-01 0.  1.
</event>
<event>
 5   0  0.7212170E+07  0.9118800E+02  0.7818608E-02  0.1180000E+00
       11   -1    0    0    0    0  0.00000000000E+00  0.00000000000E+00  0.39999999673E+01  0.40000000000E+01  0.51109989000E-03 0. -1.
     -623   -1    0    0    0    0  0.00000000000E+00  0.00000000000E+00  0.12525980253E-10  0.17130000000E+03  0.17130000000E+03 0. -1.
       11    1    1    2    0    0 -0.24570682481E-02 -0.99226819602E-02  0.46207129232E+00  0.46218463541E+00  0.51109989000E-03 0. -1.
     -623    1    1    2    0    0 -0.97807470375E-03  0.22881434527E-02  0.34937032849E-03  0.17130000002E+03  0.17130000000E+03 0. -1.
      622    1    1    2    0    0  0.34351429521E-02  0.76345385070E-02  0.35375793057E+01  0.35378153471E+01  0.40000000000E-01 0. -1.
</event>
<event>
 5   0  0.7212170E+07  0.9118800E+02  0.7818608E-02  0.1180000E+00
       11   -1    0    0    0    0  0.00000000000E+00  0.00000000000E+00  0.39999999673E+01  0.40000000000E+01  0.51109989000E-03 0. -1.
     -623   -1    0    0    0    0  0.00000000000E+00  0.00000000000E+00  0.12525980253E-10  0.17130000000E+03  0.17130000000E+03 0. -1.
       11    1    1    2    0    0 -0.32961882668E-02 -0.13638772574E-02  0.86856791138E+00  0.86857538702E+00  0.51109989000E-03 0. -1.
     -623    1    1    2    0    0  0.47255768178E-02 -0.95270801022E-03  0.26417944728E-03  0.17130000007E+03  0.17130000000E+03 0. -1.
      622    1    1    2    0    0 -0.14293885508E-02  0.23165852676E-02  0.31311678764E+01  0.31314245449E+01  0.40000000000E-01 0. -1.
</event>
<event>
 5   0  0.7212170E+07  0.9118800E+02  0.7818608E-02  0.1180000E+00
       11   -1    0    0    0    0  0.00000000000E+00  0.00000000000E+00  0.39999999673E+01  0.40000000000E+01  0.51109989000E-03 0. -1.
     -623   -1    0    0    0    0  0.00000000000E+00  0.00000000000E+00  0.12525980253E-10  0.17130000000E+03  0.17130000000E+03 0.  1.
       11    1    1    2    0    0  0.59628764055E-03  0.16634509881E-02  0.11706140239E-03  0.18432456726E-02  0.51109989000E-03 0. -1.
     -623    1    1    2    0    0  0.99995033632E-03 -0.93383835140E-02  0.19342027384E-02  0.17130000027E+03  0.17130000000E+03 0.  1.
      622    1    1    2    0    0 -0.15962379769E-02  0.76749325261E-02  0.39979487033E+01  0.39981564860E+01  0.40000000000E-01 0. -1.
</event>
<event>
 5   0  0.7212170E+07  0.9118800E+02  0.7818608E-02  0.1180000E+00
       11   -1    0    0    0    0  0.00000000000E+00  0.00000000000E+00  0.39999999673E+01  0.40000000000E+01  0.51109989000E-03 0.  1.
     -623   -1    0    0    0    0  0.00000000000E+00  0.00000000000E+00  0.12525980253E-10  0.17130000000E+03  0.17130000000E+03 0.  1.
       11    1    1    2    0    0 -0.10568845654E-01 -0.24626048926E-02  0.11766723929E+00  0.11816770010E+00  0.51109989000E-03 0.  1.
     -623    1    1    2    0    0  0.28989609416E-02  0.39375577011E-02  0.71445103789E-03  0.17130000007E+03  0.17130000000E+03 0.  1.
      622    1    1    2    0    0  0.76698847122E-02 -0.14749528092E-02  0.38816182777E+01  0.38818322293E+01  0.40000000000E-01 0.  1.
</event>
<event>
 5   0  0.7212170E+07  0.9118800E+02  0.7818608E-02  0.1180000E+00
       11   -1    0    0    0    0  0.00000000000E+00  0.00000000000E+00  0.39999999673E+01  0.40000000000E+01  0.51109989000E-03 0. -1.
     -623   -1    0    0    0    0  0.00000000000E+00  0.00000000000E+00  0.12525980253E-10  0.17130000000E+03  0.17130000000E+03 0.  1.
       11    1    1    2    0    0  0.69697172444E-02 -0.79455604248E-02  0.11731550791E+01  0.11732027999E+01  0.51109989000E-03 0. -1.
     -623    1    1    2    0    0 -0.65209756131E-03  0.57744565211E-03  0.34737464716E-03  0.17130000000E+03  0.17130000000E+03 0.  1.
      622    1    1    2    0    0 -0.63176196831E-02  0.73681147727E-02  0.28264975131E+01  0.28267971970E+01  0.40000000000E-01 0.  0.
</event>
<event>
 5   0  0.7212170E+07  0.9118800E+02  0.7818608E-02  0.1180000E+00
       11   -1    0    0    0    0  0.00000000000E+00  0.00000000000E+00  0.39999999673E+01  0.40000000000E+01  0.51109989000E-03 0.  1.
     -623   -1    0    0    0    0  0.00000000000E+00  0.00000000000E+00  0.12525980253E-10  0.17130000000E+03  0.17130000000E+03 0.  1.
       11    1    1    2    0    0 -0.19181486476E-02 -0.47618573087E-02  0.15414646118E-02  0.53844141287E-02  0.51109989000E-03 0.  1.
     -623    1    1    2    0    0  0.16811667259E-02  0.13439473614E-02  0.40447220928E-02  0.17130000006E+03  0.17130000000E+03 0.  1.
      622    1    1    2    0    0  0.23698192174E-03  0.34179099473E-02  0.39944137807E+01  0.39946155247E+01  0.40000000000E-01 0.  1.
</event>
<event>
 5   0  0.7212170E+07  0.9118800E+02  0.7818608E-02  0.1180000E+00
       11   -1    0    0    0    0  0.00000000000E+00  0.00000000000E+00  0.39999999673E+01  0.40000000000E+01  0.51109989000E-03 0.  1.
     -623   -1    0    0    0    0  0.00000000000E+00  0.00000000000E+00  0.12525980253E-10  0.17130000000E+03  0.17130000000E+03 0. -1.
       11    1    1    2    0    0  0.35278393068E-03  0.41562149798E-03  0.24601963087E-02  0.25711839114E-02  0.51109989000E-03 0.  1.
     -623    1    1    2    0    0  0.22533452078E-03 -0.32505381499E-03  0.31113218620E-03  0.17130000000E+03  0.17130000000E+03 0. -1.
      622    1    1    2    0    0 -0.57811845146E-03 -0.90567682994E-04  0.39972286388E+01  0.39974288153E+01  0.40000000000E-01 0.  1.
</event>
<event>
 5   0  0.7212170E+07  0.9118800E+02  0.7818608E-02  0.1180000E+00
       11   -1    0    0    0    0  0.00000000000E+00  0.00000000000E+00  0.39999999673E+01  0.40000000000E+01  0.51109989000E-03 0. -1.
     -623   -1    0    0    0    0  0.00000000000E+00  0.00000000000E+00  0.12525980253E-10  0.17130000000E+03  0.17130000000E+03 0.  1.
       11    1    1    2    0    0 -0.30262944893E-02 -0.22592436996E-02  0.40811309059E-01  0.40988862031E-01  0.51109989000E-03 0. -1.
     -623    1    1    2    0    0 -0.11572902566E-02  0.21788897922E-02  0.38182572189E-03  0.17130000002E+03  0.17130000000E+03 0.  1.
      622    1    1    2    0    0  0.41835847460E-02  0.80353907262E-04  0.39588068329E+01  0.39590111201E+01  0.40000000000E-01 0. -1.
</event>
<event>
 5   0  0.7212170E+07  0.9118800E+02  0.7818608E-02  0.1180000E+00
       11   -1    0    0    0    0  0.00000000000E+00  0.00000000000E+00  0.39999999673E+01  0.40000000000E+01  0.51109989000E-03 0. -1.
     -623   -1    0    0    0    0  0.00000000000E+00  0.00000000000E+00  0.12525980253E-10  0.17130000000E+03  0.17130000000E+03 0. -1.
       11    1    1    2    0    0 -0.36870591518E-02 -0.86787493046E-02  0.16491908884E+00  0.16518923143E+00  0.51109989000E-03 0. -1.
     -623    1    1    2    0    0  0.20018242469E-02 -0.91072094426E-03  0.49110657803E-03  0.17130000001E+03  0.17130000000E+03 0. -1.
      622    1    1    2    0    0  0.16852349048E-02  0.95894702489E-02  0.38345897722E+01  0.38348107540E+01  0.40000000000E-01 0. -1.
</event>
<event>
 5   0  0.7212170E+07  0.9118800E+02  0.7818608E-02  0.1180000E+00
       11   -1    0    0    0    0  0.00000000000E+00  0.00000000000E+00  0.39999999673E+01  0.40000000000E+01  0.51109989000E-03 0. -1.
     -623   -1    0    0    0    0  0.00000000000E+00  0.00000000000E+00  0.12525980253E-10  0.17130000000E+03  0.17130000000E+03 0.  1.
       11    1    1    2    0    0  0.49229493093E-02 -0.56187058043E-02  0.44122389600E+00  0.44128742664E+00  0.51109989000E-03 0. -1.
     -623    1    1    2    0    0 -0.95405792611E-03 -0.11537520508E-03  0.29514166244E-03  0.17130000000E+03  0.17130000000E+03 0.  1.
      622    1    1    2    0    0 -0.39688913832E-02  0.57340810094E-02  0.35584809294E+01  0.35587125701E+01  0.40000000000E-01 0. -1.
</event>
<event>
 5   0  0.7212170E+07  0.9118800E+02  0.7818608E-02  0.1180000E+00
       11   -1    0    0    0    0  0.00000000000E+00  0.00000000000E+00  0.39999999673E+01  0.40000000000E+01  0.51109989000E-03 0. -1.
     -623   -1    0    0    0    0  0.00000000000E+00  0.00000000000E+00  0.12525980253E-10  0.17130000000E+03  0.17130000000E+03 0. -1.
       11    1    1    2    0    0 -0.17044675331E-02 -0.11675163997E-02  0.85596176388E-01  0.85622631001E-01  0.51109989000E-03 0. -1.
     -623    1    1    2    0    0 -0.19455009613E-03 -0.64050648839E-03  0.23168179546E-03  0.17130000000E+03  0.17130000000E+03 0. -1.
      622    1    1    2    0    0  0.18990176293E-02  0.18080228882E-02  0.39141721097E+01  0.39143773680E+01  0.40000000000E-01 0. -1.
</event>
<event>
 5   0  0.7212170E+07  0.9118800E+02  0.7818608E-02  0.1180000E+00
       11   -1    0    0    0    0  0.00000000000E+00  0.00000000000E+00  0.39999999673E+01  0.40000000000E+01  0.51109989000E-03 0.  1.
     -623   -1    0    0    0    0  0.00000000000E+00  0.00000000000E+00  0.12525980253E-10  0.17130000000E+03  0.17130000000E+03 0.  1.
       11    1    1    2    0    0 -0.54053098294E-03  0.21185041324E-02  0.21022143296E-01  0.21141711504E-01  0.51109989000E-03 0.  1.
     -623    1    1    2    0    0  0.14824707791E-02  0.35679644176E-03  0.32149193898E-03  0.17130000001E+03  0.17130000000E+03 0.  1.
      622    1    1    2    0    0 -0.94193979619E-03 -0.24753005741E-02  0.39786563323E+01  0.39788582816E+01  0.40000000000E-01 0.  1.
</event>
<event>
 5   0  0.7212170E+07  0.9118800E+02  0.7818608E-02  0.1180000E+00
       11   -1    0    0    0    0  0.00000000000E+00  0.00000000000E+00  0.39999999673E+01  0.40000000000E+01  0.51109989000E-03 0.  1.
     -623   -1    0    0    0    0  0.00000000000E+00  0.00000000000E+00  0.12525980253E-10  0.17130000000E+03  0.17130000000E+03 0.  1.
       11    1    1    2    0    0  0.27610397620E-02  0.45304934235E-03  0.77103720499E-01  0.77156163280E-01  0.51109989000E-03 0.  1.
     -623    1    1    2    0    0 -0.61270143357E-03 -0.24846562891E-02  0.25748283810E-03  0.17130000002E+03  0.17130000000E+03 0.  1.
      622    1    1    2    0    0 -0.21483383282E-02  0.20316069477E-02  0.39226387655E+01  0.39228438188E+01  0.40000000000E-01 0.  1.
</event>
<event>
 5   0  0.7212170E+07  0.9118800E+02  0.7818608E-02  0.1180000E+00
       11   -1    0    0    0    0  0.00000000000E+00  0.00000000000E+00  0.39999999673E+01  0.40000000000E+01  0.51109989000E-03 0. -1.
     -623   -1    0    0    0    0  0.00000000000E+00  0.00000000000E+00  0.12525980253E-10  0.17130000000E+03  0.17130000000E+03 0. -1.
       11    1    1    2    0    0 -0.61531621459E-02  0.65608351286E-02  0.10229125954E+00  0.10268723856E+00  0.51109989000E-03 0. -1.
     -623    1    1    2    0    0  0.68332553485E-02 -0.62318111318E-02  0.60154537799E-03  0.17130000025E+03  0.17130000000E+03 0. -1.
      622    1    1    2    0    0 -0.68009320210E-03 -0.32902399719E-03  0.38971071622E+01  0.38973125105E+01  0.40000000000E-01 0. -1.
</event>
<event>
 5   0  0.7212170E+07  0.9118800E+02  0.7818608E-02  0.1180000E+00
       11   -1    0    0    0    0  0.00000000000E+00  0.00000000000E+00  0.39999999673E+01  0.40000000000E+01  0.51109989000E-03 0.  1.
     -623   -1    0    0    0    0  0.00000000000E+00  0.00000000000E+00  0.12525980253E-10  0.17130000000E+03  0.17130000000E+03 0. -1.
       11    1    1    2    0    0 -0.30427392861E-02  0.56137157288E-03  0.10247079099E+00  0.10251876721E+00  0.51109989000E-03 0.  1.
     -623    1    1    2    0    0  0.22350173969E-02  0.37599539800E-03  0.25342136226E-03  0.17130000002E+03  0.17130000000E+03 0. -1.
      622    1    1    2    0    0  0.80772188925E-03 -0.93736697088E-03  0.38972757549E+01  0.38974812176E+01  0.40000000000E-01 0.  1.
</event>
<event>
 5   0  0.7212170E+07  0.9118800E+02  0.7818608E-02  0.1180000E+00
       11   -1    0    0    0    0  0.00000000000E+00  0.00000000000E+00  0.39999999673E+01  0.40000000000E+01  0.51109989000E-03 0.  1.
     -623   -1    0    0    0    0  0.00000000000E+00  0.00000000000E+00  0.12525980253E-10  0.17130000000E+03  0.17130000000E+03 0. -1.
       11    1    1    2    0    0 -0.38832054267E-02 -0.17508742758E-02  0.52172642245E-01  0.52348740836E-01  0.51109989000E-03 0.  1.
     -623    1    1    2    0    0  0.19560079297E-02  0.29356557496E-02  0.37940828366E-03  0.17130000004E+03  0.17130000000E+03 0. -1.
      622    1    1    2    0    0  0.19271974966E-02 -0.11847814744E-02  0.39474479177E+01  0.39476512233E+01  0.40000000000E-01 0.  1.
</event>
<event>
 5   0  0.7212170E+07  0.9118800E+02  0.7818608E-02  0.1180000E+00
       11   -1    0    0    0    0  0.00000000000E+00  0.00000000000E+00  0.39999999673E+01  0.40000000000E+01  0.51109989000E-03 0. -1.
     -623   -1    0    0    0    0  0.00000000000E+00  0.00000000000E+00  0.12525980253E-10  0.17130000000E+03  0.17130000000E+03 0.  1.
       11    1    1    2    0    0  0.32181116787E-02 -0.18675486393E-02  0.64624063762E-01  0.64733104521E-01  0.51109989000E-03 0. -1.
     -623    1    1    2    0    0 -0.44380767289E-02 -0.10717779281E-03  0.31304567641E-03  0.17130000006E+03  0.17130000000E+03 0.  1.
      622    1    1    2    0    0  0.12199650512E-02  0.19747264322E-02  0.39350628588E+01  0.39352668386E+01  0.40000000000E-01 0. -1.
</event>
<event>
 5   0  0.7212170E+07  0.9118800E+02  0.7818608E-02  0.1180000E+00
       11   -1    0    0    0    0  0.00000000000E+00  0.00000000000E+00  0.39999999673E+01  0.40000000000E+01  0.51109989000E-03 0. -1.
     -623   -1    0    0    0    0  0.00000000000E+00  0.00000000000E+00  0.12525980253E-10  0.17130000000E+03  0.17130000000E+03 0. -1.
       11    1    1    2    0    0  0.55723809565E-02 -0.15759996380E-01  0.16045100317E+01  0.16045971868E+01  0.51109989000E-03 0. -1.
     -623    1    1    2    0    0 -0.38136833157E-02 -0.37452599122E-02  0.50127466645E-03  0.17130000008E+03  0.17130000000E+03 0. -1.
      622    1    1    2    0    0 -0.17586976403E-02  0.19505256293E-01  0.23949886616E+01  0.23954027297E+01  0.40000000000E-01 0.  0.
</event>
<event>
 5   0  0.7212170E+07  0.9118800E+02  0.7818608E-02  0.1180000E+00
       11   -1    0    0    0    0  0.00000000000E+00  0.00000000000E+00  0.39999999673E+01  0.40000000000E+01  0.51109989000E-03 0. -1.
     -623   -1    0    0    0    0  0.00000000000E+00  0.00000000000E+00  0.12525980253E-10  0.17130000000E+03  0.17130000000E+03 0. -1.
       11    1    1    2    0    0  0.12762355818E-01  0.66438013790E-02  0.95094132151E+00  0.95105030151E+00  0.51109989000E-03 0. -1.
     -623    1    1    2    0    0 -0.19801785996E-01 -0.19756391159E-02  0.38420154177E-03  0.17130000116E+03  0.17130000000E+03 0. -1.
      622    1    1    2    0    0  0.70394301803E-02 -0.46681622629E-02  0.30486744448E+01  0.30489485426E+01  0.40000000000E-01 0. -1.
</event>
<event>
 5   0  0.7212170E+07  0.9118800E+02  0.7818608E-02  0.1180000E+00
       11   -1    0    0    0    0  0.00000000000E+00  0.00000000000E+00  0.39999999673E+01  0.40000000000E+01  0.51109989000E-03 0.  1.
     -623   -1    0    0    0    0  0.00000000000E+00  0.00000000000E+00  0.12525980253E-10  0.17130000000E+03  0.17130000000E+03 0. -1.
       11    1    1    2    0    0 -0.50585320871E-02  0.52128527318E-02  0.88940646218E-01  0.89238233697E-01  0.51109989000E-03 0.  1.
     -623    1    1    2    0    0  0.17262245742E-01 -0.16454131183E-01  0.53898424508E-03  0.17130000166E+03  0.17130000000E+03 0. -1.
      622    1    1    2    0    0 -0.12203713657E-01  0.11241278453E-01  0.39105203374E+01  0.39107601059E+01  0.40000000000E-01 0.  1.
</event>
<event>
 5   0  0.7212170E+07  0.9118800E+02  0.7818608E-02  0.1180000E+00
       11   -1    0    0    0    0  0.00000000000E+00  0.00000000000E+00  0.39999999673E+01  0.40000000000E+01  0.51109989000E-03 0. -1.
     -623   -1    0    0    0    0  0.00000000000E+00  0.00000000000E+00  0.12525980253E-10  0.17130000000E+03  0.17130000000E+03 0. -1.
       11    1    1    2    0    0  0.14305416272E-01  0.30956228259E-02  0.33619258433E+00  0.33651143041E+00  0.51109989000E-03 0. -1.
     -623    1    1    2    0    0 -0.24115838929E-03  0.36450560788E-03  0.56582496385E-03  0.17130000000E+03  0.17130000000E+03 0. -1.
      622    1    1    2    0    0 -0.14064257882E-01 -0.34601284338E-02  0.36632415584E+01  0.36634885684E+01  0.40000000000E-01 0. -1.
</event>
<event>
 5   0  0.7212170E+07  0.9118800E+02  0.7818608E-02  0.1180000E+00
       11   -1    0    0    0    0  0.00000000000E+00  0.00000000000E+00  0.39999999673E+01  0.40000000000E+01  0.51109989000E-03 0. -1.
     -623   -1    0    0    0    0  0.00000000000E+00  0.00000000000E+00  0.12525980253E-10  0.17130000000E+03  0.17130000000E+03 0.  1.
       11    1    1    2    0    0 -0.27159781756E-06 -0.77604189053E-03  0.16799741046E-01  0.16825420156E-01  0.51109989000E-03 0. -1.
     -623    1    1    2    0    0  0.42879004585E-03  0.37239833204E-03  0.22654095360E-03  0.17130000000E+03  0.17130000000E+03 0.  1.
      622    1    1    2    0    0 -0.42851844809E-03  0.40364355845E-03  0.39829736858E+01  0.39831745792E+01  0.40000000000E-01 0. -1.
</event>
<event>
 5   0  0.7212170E+07  0.9118800E+02  0.7818608E-02  0.1180000E+00
       11   -1    0    0    0    0  0.00000000000E+00  0.00000000000E+00  0.39999999673E+01  0.40000000000E+01  0.51109989000E-03 0. -1.
     -623   -1    0    0    0    0  0.00000000000E+00  0.00000000000E+00  0.12525980253E-10  0.17130000000E+03  0.17130000000E+03 0.  1.
       11    1    1    2    0    0 -0.22136449701E-02  0.12403814736E-02  0.64530017745E-01  0.64581910652E-01  0.51109989000E-03 0. -1.
     -623    1    1    2    0    0 -0.24709459190E-03 -0.10141108763E-02  0.25592684640E-03  0.17130000000E+03  0.17130000000E+03 0.  1.
      622    1    1    2    0    0  0.24607395621E-02 -0.22627059685E-03  0.39352140245E+01  0.39354180877E+01  0.40000000000E-01 0. -1.
</event>
<event>
 5   0  0.7212170E+07  0.9118800E+02  0.7818608E-02  0.1180000E+00
       11   -1    0    0    0    0  0.00000000000E+00  0.00000000000E+00  0.39999999673E+01  0.40000000000E+01  0.51109989000E-03 0.  1.
     -623   -1    0    0    0    0  0.00000000000E+00  0.00000000000E+00  0.12525980253E-10  0.17130000000E+03  0.17130000000E+03 0.  1.
       11    1    1    2    0    0 -0.10270474457E-02  0.10531904328E-02  0.17669891856E-01  0.17738385999E-01  0.51109989000E-03 0.  1.
     -623    1    1    2    0    0  0.20674453969E-04 -0.19368668305E-03  0.26957769082E-03  0.17130000000E+03  0.17130000000E+03 0.  1.
      622    1    1    2    0    0  0.10063729917E-02 -0.85950374972E-03  0.39820604987E+01  0.39822616146E+01  0.40000000000E-01 0.  1.
</event>
<event>
 5   0  0.7212170E+07  0.9118800E+02  0.7818608E-02  0.1180000E+00
       11   -1    0    0    0    0  0.00000000000E+00  0.00000000000E+00  0.39999999673E+01  0.40000000000E+01  0.51109989000E-03 0.  1.
     -623   -1    0    0    0    0  0.00000000000E+00  0.00000000000E+00  0.12525980253E-10  0.17130000000E+03  0.17130000000E+03 0. -1.
       11    1    1    2    0    0  0.32986171960E-02 -0.24311137464E-02 -0.36387442692E-04  0.41296170037E-02  0.51109989000E-03 0.  1.
     -623    1    1    2    0    0 -0.16089279233E-01 -0.13098965926E-01  0.44181501919E-02  0.17130000131E+03  0.17130000000E+03 0. -1.
      622    1    1    2    0    0  0.12790662037E-01  0.15530079673E-01  0.39956182047E+01  0.39958690697E+01  0.40000000000E-01 0.  1.
</event>
<event>
 5   0  0.7212170E+07  0.9118800E+02  0.7818608E-02  0.1180000E+00
       11   -1    0    0    0    0  0.00000000000E+00  0.00000000000E+00  0.39999999673E+01  0.40000000000E+01  0.51109989000E-03 0.  1.
     -623   -1    0    0    0    0  0.00000000000E+00  0.00000000000E+00  0.12525980253E-10  0.17130000000E+03  0.17130000000E+03 0. -1.
       11    1    1    2    0    0 -0.18512489068E-02  0.24972104909E-02  0.23060302456E-01  0.23274491514E-01  0.51109989000E-03 0.  1.
     -623    1    1    2    0    0  0.11313460860E-02 -0.28248602172E-03  0.41601842576E-03  0.17130000000E+03  0.17130000000E+03 0. -1.
      622    1    1    2    0    0  0.71990282061E-03 -0.22147244691E-02  0.39765236473E+01  0.39767255049E+01  0.40000000000E-01 0.  1.
</event>
<event>
 5   0  0.7212170E+07  0.9118800E+02  0.7818608E-02  0.1180000E+00
       11   -1    0    0    0    0  0.00000000000E+00  0.00000000000E+00  0.39999999673E+01  0.40000000000E+01  0.51109989000E-03 0. -1.
     -623   -1    0    0    0    0  0.00000000000E+00  0.00000000000E+00  0.12525980253E-10  0.17130000000E+03  0.17130000000E+03 0. -1.
       11    1    1    2    0    0  0.25757836201E-02  0.62102952233E-02  0.32546136550E+00  0.32553120293E+00  0.51109989000E-03 0. -1.
     -623    1    1    2    0    0 -0.27817905570E-02 -0.64925380385E-02  0.28769228178E-03  0.17130000015E+03  0.17130000000E+03 0. -1.
      622    1    1    2    0    0  0.20600693753E-03  0.28224281669E-03  0.36742509105E+01  0.36744686521E+01  0.40000000000E-01 0. -1.
</event>
<event>
 5   0  0.7212170E+07  0.9118800E+02  0.7818608E-02  0.1180000E+00
       11   -1    0    0    0    0  0.00000000000E+00  0.00000000000E+00  0.39999999673E+01  0.40000000000E+01  0.51109989000E-03 0.  1.
     -623   -1    0    0    0    0  0.00000000000E+00  0.00000000000E+00  0.12525980253E-10  0.17130000000E+03  0.17130000000E+03 0.  1.
       11    1    1    2    0    0 -0.46852955180E-02 -0.33228937383E-02  0.21302443201E+00  0.21310247177E+00  0.51109989000E-03 0.  1.
     -623    1    1    2    0    0  0.77494047979E-04 -0.18326890987E-02  0.29559097195E-03  0.17130000001E+03  0.17130000000E+03 0.  1.
      622    1    1    2    0    0  0.46078014700E-02  0.51555828372E-02  0.37866799449E+01  0.37868975187E+01  0.40000000000E-01 0.  1.
</event>
<event>
 5   0  0.7212170E+07  0.9118800E+02  0.7818608E-02  0.1180000E+00
       11   -1    0    0    0    0  0.00000000000E+00  0.00000000000E+00  0.39999999673E+01  0.40000000000E+01  0.51109989000E-03 0.  1.
     -623   -1    0    0    0    0  0.00000000000E+00  0.00000000000E+00  0.12525980253E-10  0.17130000000E+03  0.17130000000E+03 0. -1.
       11    1    1    2    0    0 -0.12743079838E-02  0.13308791834E-04  0.28554133641E+00  0.28554463759E+00  0.51109989000E-03 0.  1.
     -623    1    1    2    0    0 -0.26638285508E-02 -0.14157687396E-03  0.22076046278E-03  0.17130000002E+03  0.17130000000E+03 0. -1.
      622    1    1    2    0    0  0.39381365357E-02  0.12826808218E-03  0.37142378722E+01  0.37144553432E+01  0.40000000000E-01 0.  1.
</event>
<event>
 5   0  0.7212170E+07  0.9118800E+02  0.7818608E-02  0.1180000E+00
       11   -1    0    0    0    0  0.00000000000E+00  0.00000000000E+00  0.39999999673E+01  0.40000000000E+01  0.51109989000E-03 0.  1.
     -623   -1    0    0    0    0  0.00000000000E+00  0.00000000000E+00  0.12525980253E-10  0.17130000000E+03  0.17130000000E+03 0.  1.
       11    1    1    2    0    0  0.82240856470E-01 -0.41451557320E-01  0.24260868605E+01  0.24278343243E+01  0.51109989000E-03 0.  1.
     -623    1    1    2    0    0  0.86943585600E-02 -0.93529616230E-02  0.57126083903E-02  0.17130000057E+03  0.17130000000E+03 0.  1.
      622    1    1    2    0    0 -0.90935215030E-01  0.50804518943E-01  0.15682004985E+01  0.15721651045E+01  0.40000000000E-01 0. -1.
</event>
<event>
 5   0  0.7212170E+07  0.9118800E+02  0.7818608E-02  0.1180000E+00
       11   -1    0    0    0    0  0.00000000000E+00  0.00000000000E+00  0.39999999673E+01  0.40000000000E+01  0.51109989000E-03 0. -1.
     -623   -1    0    0    0    0  0.00000000000E+00  0.00000000000E+00  0.12525980253E-10  0.17130000000E+03  0.17130000000E+03 0.  1.
       11    1    1    2    0    0 -0.25972010649E-02  0.10959142143E-01  0.11019030559E+00  0.11076557641E+00  0.51109989000E-03 0. -1.
     -623    1    1    2    0    0  0.46785886297E-02 -0.51753930690E-02  0.78594128051E-03  0.17130000014E+03  0.17130000000E+03 0.  1.
      622    1    1    2    0    0 -0.20813875655E-02 -0.57837490728E-02  0.38890237211E+01  0.38892342803E+01  0.40000000000E-01 0. -1.
</event>
<event>
 5   0  0.7212170E+07  0.9118800E+02  0.7818608E-02  0.1180000E+00
       11   -1    0    0    0    0  0.00000000000E+00  0.00000000000E+00  0.39999999673E+01  0.40000000000E+01  0.51109989000E-03 0. -1.
     -623   -1    0    0    0    0  0.00000000000E+00  0.00000000000E+00  0.12525980253E-10  0.17130000000E+03  0.17130000000E+03 0. -1.
       11    1    1    2    0    0 -0.21285792960E-02  0.60315036889E-02  0.63489288774E-01  0.63812701703E-01  0.51109989000E-03 0. -1.
     -623    1    1    2    0    0  0.82746432207E-02 -0.63676690497E-02  0.53175986192E-03  0.17130000032E+03  0.17130000000E+03 0. -1.
      622    1    1    2    0    0 -0.61460639267E-02  0.33616536240E-03  0.39359789197E+01  0.39361869803E+01  0.40000000000E-01 0. -1.
</event>
<event>
 5   0  0.7212170E+07  0.9118800E+02  0.7818608E-02  0.1180000E+00
       11   -1    0    0    0    0  0.00000000000E+00  0.00000000000E+00  0.39999999673E+01  0.40000000000E+01  0.51109989000E-03 0. -1.
     -623   -1    0    0    0    0  0.00000000000E+00  0.00000000000E+00  0.12525980253E-10  0.17130000000E+03  0.17130000000E+03 0.  1.
       11    1    1    2    0    0  0.45537553257E-01 -0.45073563923E-01  0.16325054395E+01  0.16337623958E+01  0.51109989000E-03 0. -1.
     -623    1    1    2    0    0 -0.18246429990E-02 -0.39770001543E-02  0.25075783111E-02  0.17130000007E+03  0.17130000000E+03 0.  1.
      622    1    1    2    0    0 -0.43712910258E-01  0.49050564077E-01  0.23649869495E+01  0.23662375298E+01  0.40000000000E-01 0. -1.
</event>
<event>
 5   0  0.7212170E+07  0.9118800E+02  0.7818608E-02  0.1180000E+00
       11   -1    0    0    0    0  0.00000000000E+00  0.00000000000E+00  0.39999999673E+01  0.40000000000E+01  0.51109989000E-03 0. -1.
     -623   -1    0    0    0    0  0.00000000000E+00  0.00000000000E+00  0.12525980253E-10  0.17130000000E+03  0.17130000000E+03 0. -1.
       11    1    1    2    0    0 -0.29269865071E-01  0.35032054296E-01  0.16909634788E+01  0.16915796516E+01  0.51109989000E-03 0. -1.
     -623    1    1    2    0    0  0.40788514605E-02 -0.24074901217E-02  0.13308683808E-02  0.17130000007E+03  0.17130000000E+03 0. -1.
      622    1    1    2    0    0  0.25191013611E-01 -0.32624564174E-01  0.23077056204E+01  0.23084202780E+01  0.40000000000E-01 0. -1.
</event>
<event>
 5   0  0.7212170E+07  0.9118800E+02  0.7818608E-02  0.1180000E+00
       11   -1    0    0    0    0  0.00000000000E+00  0.00000000000E+00  0.39999999673E+01  0.40000000000E+01  0.51109989000E-03 0. -1.
     -623   -1    0    0    0    0  0.00000000000E+00  0.00000000000E+00  0.12525980253E-10  0.17130000000E+03  0.17130000000E+03 0.  1.
       11    1    1    2    0    0  0.39638968682E-02 -0.17354749628E-01  0.13619609699E+01  0.13620774004E+01  0.51109989000E-03 0. -1.
     -623    1    1    2    0    0  0.23585817142E-02 -0.22751935886E-02  0.50034104969E-03  0.17130000003E+03  0.17130000000E+03 0.  1.
      622    1    1    2    0    0 -0.63224785825E-02  0.19629943217E-01  0.26375386566E+01  0.26379225678E+01  0.40000000000E-01 0.  0.
</event>
<event>
 5   0  0.7212170E+07  0.9118800E+02  0.7818608E-02  0.1180000E+00
       11   -1    0    0    0    0  0.00000000000E+00  0.00000000000E+00  0.39999999673E+01  0.40000000000E+01  0.51109989000E-03 0. -1.
     -623   -1    0    0    0    0  0.00000000000E+00  0.00000000000E+00  0.12525980253E-10  0.17130000000E+03  0.17130000000E+03 0. -1.
       11    1    1    2    0    0 -0.24107766169E-02  0.19231210270E-02  0.60951348644E-02  0.68499730287E-02  0.51109989000E-03 0. -1.
     -623    1    1    2    0    0 -0.10297125212E-02 -0.27955428018E-02  0.95675975718E-03  0.17130000003E+03  0.17130000000E+03 0. -1.
      622    1    1    2    0    0  0.34404891381E-02  0.87242177469E-03  0.39929480726E+01  0.39931499983E+01  0.40000000000E-01 0. -1.
</event>
<event>
 5   0  0.7212170E+07  0.9118800E+02  0.7818608E-02  0.1180000E+00
       11   -1    0    0    0    0  0.00000000000E+00  0.00000000000E+00  0.39999999673E+01  0.40000000000E+01  0.51109989000E-03 0. -1.
     -623   -1    0    0    0    0  0.00000000000E+00  0.00000000000E+00  0.12525980253E-10  0.17130000000E+03  0.17130000000E+03 0.  1.
       11    1    1    2    0    0  0.40409329941E-03  0.39505146636E-05  0.27976801099E-02  0.28725501033E-02  0.51109989000E-03 0.  1.
     -623    1    1    2    0    0 -0.19236981096E-02  0.14446147767E-02  0.27555457665E-03  0.17130000002E+03  0.17130000000E+03 0.  1.
      622    1    1    2    0    0  0.15196048100E-02 -0.14485652912E-02  0.39969267324E+01  0.39971274325E+01  0.40000000000E-01 0. -1.
</event>
<event>
 5   0  0.7212170E+07  0.9118800E+02  0.7818608E-02  0.1180000E+00
       11   -1    0    0    0    0  0.00000000000E+00  0.00000000000E+00  0.39999999673E+01  0.40000000000E+01  0.51109989000E-03 0. -1.
     -623   -1    0    0    0    0  0.00000000000E+00  0.00000000000E+00  0.12525980253E-10  0.17130000000E+03  0.17130000000E+03 0.  1.
       11    1    1    2    0    0  0.66706201108E-02 -0.50689783230E-02  0.32659504336E+00  0.32670288533E+00  0.51109989000E-03 0. -1.
     -623    1    1    2    0    0  0.57670642534E-03  0.15999488024E-03  0.33603536403E-03  0.17130000000E+03  0.17130000000E+03 0.  1.
      622    1    1    2    0    0 -0.72473265361E-02  0.49089834428E-02  0.36730688884E+01  0.36732971131E+01  0.40000000000E-01 0. -1.
</event>
<event>
 5   0  0.7212170E+07  0.9118800E+02  0.7818608E-02  0.1180000E+00
       11   -1    0    0    0    0  0.00000000000E+00  0.00000000000E+00  0.39999999673E+01  0.40000000000E+01  0.51109989000E-03 0.  1.
     -623   -1    0    0    0    0  0.00000000000E+00  0.00000000000E+00  0.12525980253E-10  0.17130000000E+03  0.17130000000E+03 0. -1.
       11    1    1    2    0    0  0.22788441164E-01 -0.20952948162E-02  0.13514012471E+01  0.13515950929E+01  0.51109989000E-03 0.  1.
     -623    1    1    2    0    0 -0.52386930025E-02 -0.31320532922E-01  0.76784560917E-03  0.17130000295E+03  0.17130000000E+03 0. -1.
      622    1    1    2    0    0 -0.17549748161E-01  0.33415827744E-01  0.26478308753E+01  0.26484019625E+01  0.40000000000E-01 0.  1.
</event>
<event>
 5   0  0.7212170E+07  0.9118800E+02  0.7818608E-02  0.1180000E+00
       11   -1    0    0    0    0  0.00000000000E+00  0.00000000000E+00  0.39999999673E+01  0.40000000000E+01  0.51109989000E-03 0. -1.
     -623   -1    0    0    0    0  0.00000000000E+00  0.00000000000E+00  0.12525980253E-10  0.17130000000E+03  0.17130000000E+03 0.  1.
       11    1    1    2    0    0  0.35578333210E-01  0.73398767973E-03  0.71956600562E+00  0.72044559420E+00  0.51109989000E-03 0. -1.
     -623    1    1    2    0    0 -0.37288824885E-01 -0.18375364825E-02  0.11282047844E-02  0.17130000407E+03  0.17130000000E+03 0.  1.
      622    1    1    2    0    0  0.17104916755E-02  0.11035488027E-02  0.32793057569E+01  0.32795503337E+01  0.40000000000E-01 0. -1.
</event>
<event>
 5   0  0.7212170E+07  0.9118800E+02  0.7818608E-02  0.1180000E+00
       11   -1    0    0    0    0  0.00000000000E+00  0.00000000000E+00  0.39999999673E+01  0.40000000000E+01  0.51109989000E-03 0. -1.
     -623   -1    0    0    0    0  0.00000000000E+00  0.00000000000E+00  0.12525980253E-10  0.17130000000E+03  0.17130000000E+03 0. -1.
       11    1    1    2    0    0  0.25605819294E-02  0.43071059248E-02  0.43206123171E+00  0.43209058878E+00  0.51109989000E-03 0. -1.
     -623    1    1    2    0    0 -0.23588078026E-02 -0.11446363496E-02  0.25498001467E-03  0.17130000002E+03  0.17130000000E+03 0. -1.
      622    1    1    2    0    0 -0.20177412631E-03 -0.31624695750E-02  0.35676837565E+01  0.35679093918E+01  0.40000000000E-01 0. -1.
</event>
<event>
 5   0  0.7212170E+07  0.9118800E+02  0.7818608E-02  0.1180000E+00
       11   -1    0    0    0    0  0.00000000000E+00  0.00000000000E+00  0.39999999673E+01  0.40000000000E+01  0.51109989000E-03 0. -1.
     -623   -1    0    0    0    0  0.00000000000E+00  0.00000000000E+00  0.12525980253E-10  0.17130000000E+03  0.17130000000E+03 0.  1.
       11    1    1    2    0    0 -0.13585714792E-02 -0.16249389979E-02  0.34071411614E-01  0.34141008416E-01  0.51109989000E-03 0. -1.
     -623    1    1    2    0    0  0.28047261849E-02  0.11253969485E-02  0.27161306050E-03  0.17130000003E+03  0.17130000000E+03 0.  1.
      622    1    1    2    0    0 -0.14461547057E-02  0.49954204932E-03  0.39656569427E+01  0.39658589647E+01  0.40000000000E-01 0. -1.
</event>
<event>
 5   0  0.7212170E+07  0.9118800E+02  0.7818608E-02  0.1180000E+00
       11   -1    0    0    0    0  0.00000000000E+00  0.00000000000E+00  0.39999999673E+01  0.40000000000E+01  0.51109989000E-03 0. -1.
     -623   -1    0    0    0    0  0.00000000000E+00  0.00000000000E+00  0.12525980253E-10  0.17130000000E+03  0.17130000000E+03 0.  1.
       11    1    1    2    0    0 -0.34735165035E-02 -0.39206309414E-02  0.88072157485E-01  0.88229262782E-01  0.51109989000E-03 0. -1.
     -623    1    1    2    0    0  0.54806415089E-02  0.58088254461E-02  0.36274621332E-03  0.17130000019E+03  0.17130000000E+03 0.  1.
      622    1    1    2    0    0 -0.20071250054E-02 -0.18881945048E-02  0.39115650637E+01  0.39117705507E+01  0.40000000000E-01 0. -1.
</event>
<event>
 5   0  0.7212170E+07  0.9118800E+02  0.7818608E-02  0.1180000E+00
       11   -1    0    0    0    0  0.00000000000E+00  0.00000000000E+00  0.39999999673E+01  0.40000000000E+01  0.51109989000E-03 0.  1.
     -623   -1    0    0    0    0  0.00000000000E+00  0.00000000000E+00  0.12525980253E-10  0.17130000000E+03  0.17130000000E+03 0.  1.
       11    1    1    2    0    0  0.27674422993E-03  0.86714936864E-03  0.52806764879E-02  0.53828712286E-02  0.51109989000E-03 0.  1.
     -623    1    1    2    0    0 -0.98390592046E-03 -0.55323757760E-03  0.30251554554E-03  0.17130000000E+03  0.17130000000E+03 0.  1.
      622    1    1    2    0    0  0.70716169056E-03 -0.31391179103E-03  0.39944167755E+01  0.39946171249E+01  0.40000000000E-01 0.  1.
</event>
<event>
 5   0  0.7212170E+07  0.9118800E+02  0.7818608E-02  0.1180000E+00
       11   -1    0    0    0    0  0.00000000000E+00  0.00000000000E+00  0.39999999673E+01  0.40000000000E+01  0.51109989000E-03 0.  1.
     -623   -1    0    0    0    0  0.00000000000E+00  0.00000000000E+00  0.12525980253E-10  0.17130000000E+03  0.17130000000E+03 0.  1.
       11    1    1    2    0    0  0.27731569720E-02  0.50277748163E-03  0.12914082647E+00  0.12917258791E+00  0.51109989000E-03 0.  1.
     -623    1    1    2    0    0 -0.38644171354E-03  0.80494029321E-03  0.23936774168E-03  0.17130000000E+03  0.17130000000E+03 0.  1.
      622    1    1    2    0    0 -0.23867152584E-02 -0.13077177749E-02  0.38706197737E+01  0.38708274101E+01  0.40000000000E-01 0.  1.
</event>
<event>
 5   0  0.7212170E+07  0.9118800E+02  0.7818608E-02  0.1180000E+00
       11   -1    0    0    0    0  0.00000000000E+00  0.00000000000E+00  0.39999999673E+01  0.40000000000E+01  0.51109989000E-03 0. -1.
     -623   -1    0    0    0    0  0.00000000000E+00  0.00000000000E+00  0.12525980253E-10  0.17130000000E+03  0.17130000000E+03 0. -1.
       11    1    1    2    0    0 -0.35641015179E-02  0.18860626838E-02  0.76480602302E-04  0.40653566211E-02  0.51109989000E-03 0. -1.
     -623    1    1    2    0    0 -0.37383379754E-02  0.27529383902E-02  0.41985319828E-02  0.17130000011E+03  0.17130000000E+03 0. -1.
      622    1    1    2    0    0  0.73024394933E-02 -0.46390010740E-02  0.39957249548E+01  0.39959345290E+01  0.40000000000E-01 0. -1.
</event>
<event>
 5   0  0.7212170E+07  0.9118800E+02  0.7818608E-02  0.1180000E+00
       11   -1    0    0    0    0  0.00000000000E+00  0.00000000000E+00  0.39999999673E+01  0.40000000000E+01  0.51109989000E-03 0.  1.
     -623   -1    0    0    0    0  0.00000000000E+00  0.00000000000E+00  0.12525980253E-10  0.17130000000E+03  0.17130000000E+03 0.  1.
       11    1    1    2    0    0 -0.63239786829E-02 -0.43924708309E-02  0.48275427662E-01  0.48888287406E-01  0.51109989000E-03 0.  1.
     -623    1    1    2    0    0 -0.73627219875E-03  0.94780369274E-03  0.82312309978E-03  0.17130000001E+03  0.17130000000E+03 0.  1.
      622    1    1    2    0    0  0.70602508817E-02  0.34446671382E-02  0.39509014167E+01  0.39511117065E+01  0.40000000000E-01 0.  1.
</event>
<event>
 5   0  0.7212170E+07  0.9118800E+02  0.7818608E-02  0.1180000E+00
       11   -1    0    0    0    0  0.00000000000E+00  0.00000000000E+00  0.39999999673E+01  0.40000000000E+01  0.51109989000E-03 0.  1.
     -623   -1    0    0    0    0  0.00000000000E+00  0.00000000000E+00  0.12525980253E-10  0.17130000000E+03  0.17130000000E+03 0. -1.
       11    1    1    2    0    0  0.91776719132E-03  0.85971446615E-03  0.11779670746E-01  0.11857625039E-01  0.51109989000E-03 0.  1.
     -623    1    1    2    0    0 -0.79050716758E-03  0.12340896151E-02  0.27907952819E-03  0.17130000001E+03  0.17130000000E+03 0. -1.
      622    1    1    2    0    0 -0.12726002366E-03 -0.20938040814E-02  0.39879412175E+01  0.39881423689E+01  0.40000000000E-01 0.  1.
</event>
<event>
 5   0  0.7212170E+07  0.9118800E+02  0.7818608E-02  0.1180000E+00
       11   -1    0    0    0    0  0.00000000000E+00  0.00000000000E+00  0.39999999673E+01  0.40000000000E+01  0.51109989000E-03 0. -1.
     -623   -1    0    0    0    0  0.00000000000E+00  0.00000000000E+00  0.12525980253E-10  0.17130000000E+03  0.17130000000E+03 0.  1.
       11    1    1    2    0    0 -0.88952222886E-02  0.18043751451E-02  0.53642366188E+00  0.53650068686E+00  0.51109989000E-03 0. -1.
     -623    1    1    2    0    0  0.36880612649E-02 -0.31344332236E-02  0.31221896546E-03  0.17130000007E+03  0.17130000000E+03 0.  1.
      622    1    1    2    0    0  0.52071610224E-02  0.13300580795E-02  0.34632640879E+01  0.34634992459E+01  0.40000000000E-01 0. -1.
</event>
<event>
 5   0  0.7212170E+07  0.9118800E+02  0.7818608E-02  0.1180000E+00
       11   -1    0    0    0    0  0.00000000000E+00  0.00000000000E+00  0.39999999673E+01  0.40000000000E+01  0.51109989000E-03 0. -1.
     -623   -1    0    0    0    0  0.00000000000E+00  0.00000000000E+00  0.12525980253E-10  0.17130000000E+03  0.17130000000E+03 0.  1.
       11    1    1    2    0    0  0.30500836889E-02  0.23555145795E-02  0.21842008580E-01  0.22185265861E-01  0.51109989000E-03 0. -1.
     -623    1    1    2    0    0 -0.17687926169E-02  0.14247711363E-02  0.54636384754E-03  0.17130000002E+03  0.17130000000E+03 0.  1.
      622    1    1    2    0    0 -0.12812910720E-02 -0.37802857158E-02  0.39776115949E+01  0.39778147182E+01  0.40000000000E-01 0. -1.
</event>
<event>
 5   0  0.7212170E+07  0.9118800E+02  0.7818608E-02  0.1180000E+00
       11   -1    0    0    0    0  0.00000000000E+00  0.00000000000E+00  0.39999999673E+01  0.40000000000E+01  0.51109989000E-03 0.  1.
     -623   -1    0    0    0    0  0.00000000000E+00  0.00000000000E+00  0.12525980253E-10  0.17130000000E+03  0.17130000000E+03 0.  1.
       11    1    1    2    0    0  0.73244159488E-02  0.15821659378E-01  0.11839656037E+01  0.11840940773E+01  0.51109989000E-03 0.  1.
     -623    1    1    2    0    0  0.15294501876E-03 -0.65306636704E-03  0.46334567371E-03  0.17130000000E+03  0.17130000000E+03 0.  1.
      622    1    1    2    0    0 -0.74773609675E-02 -0.15168593011E-01  0.28155710181E+01  0.28159059208E+01  0.40000000000E-01 0.  1.
</event>
<event>
 5   0  0.7212170E+07  0.9118800E+02  0.7818608E-02  0.1180000E+00
       11   -1    0    0    0    0  0.00000000000E+00  0.00000000000E+00  0.39999999673E+01  0.40000000000E+01  0.51109989000E-03 0.  1.
     -623   -1    0    0    0    0  0.00000000000E+00  0.00000000000E+00  0.12525980253E-10  0.17130000000E+03  0.17130000000E+03 0. -1.
       11    1    1    2    0    0 -0.22575884107E-02  0.11322483293E-02  0.96366406999E-01  0.96400852241E-01  0.51109989000E-03 0.  1.
     -623    1    1    2    0    0 -0.11692446485E-03 -0.24730106878E-03  0.24017998970E-03  0.17130000000E+03  0.17130000000E+03 0. -1.
      622    1    1    2    0    0  0.23745128756E-02 -0.88494726054E-03  0.39033933805E+01  0.39035991475E+01  0.40000000000E-01 0.  1.
</event>
<event>
 5   0  0.7212170E+07  0.9118800E+02  0.7818608E-02  0.1180000E+00
       11   -1    0    0    0    0  0.00000000000E+00  0.00000000000E+00  0.39999999673E+01  0.40000000000E+01  0.51109989000E-03 0.  1.
     -623   -1    0    0    0    0  0.00000000000E+00  0.00000000000E+00  0.12525980253E-10  0.17130000000E+03  0.17130000000E+03 0. -1.
       11    1    1    2    0    0 -0.96958395170E-03 -0.95756858189E-03  0.48035280939E-01  0.48057324817E-01  0.51109989000E-03 0.  1.
     -623    1    1    2    0    0  0.11561440509E-02  0.63681708385E-03  0.22447116288E-03  0.17130000001E+03  0.17130000000E+03 0. -1.
      622    1    1    2    0    0 -0.18656009939E-03  0.32075149792E-03  0.39517402160E+01  0.39519426707E+01  0.40000000000E-01 0.  1.
</event>
<event>
 5   0  0.7212170E+07  0.9118800E+02  0.7818608E-02  0.1180000E+00
       11   -1    0    0    0    0  0.00000000000E+00  0.00000000000E+00  0.39999999673E+01  0.40000000000E+01  0.51109989000E-03 0. -1.
     -623   -1    0    0    0    0  0.00000000000E+00  0.00000000000E+00  0.12525980253E-10  0.17130000000E+03  0.17130000000E+03 0. -1.
       11    1    1    2    0    0  0.30534006367E-01  0.22419679832E-01  0.71725780448E+00  0.71825760483E+00  0.51109989000E-03 0. -1.
     -623    1    1    2    0    0 -0.30137702787E-01 -0.27585166875E-01  0.12525163691E-02  0.17130000488E+03  0.17130000000E+03 0. -1.
      622    1    1    2    0    0 -0.39630357959E-03  0.51654870433E-02  0.32814896466E+01  0.32817375184E+01  0.40000000000E-01 0.  0.
</event>
<event>
 5   0  0.7212170E+07  0.9118800E+02  0.7818608E-02  0.1180000E+00
       11   -1    0    0    0    0  0.00000000000E+00  0.00000000000E+00  0.39999999673E+01  0.40000000000E+01  0.51109989000E-03 0.  1.
     -623   -1    0    0    0    0  0.00000000000E+00  0.00000000000E+00  0.12525980253E-10  0.17130000000E+03  0.17130000000E+03 0.  1.
       11    1    1    2    0    0 -0.38799808670E-02  0.13052596805E-02  0.94301551421E-01  0.94391746344E-01  0.51109989000E-03 0.  1.
     -623    1    1    2    0    0 -0.57206453241E-02 -0.11420914542E-01  0.32037916665E-03  0.17130000048E+03  0.17130000000E+03 0.  1.
      622    1    1    2    0    0  0.96006261930E-02  0.10115654865E-01  0.39053780381E+01  0.39056077784E+01  0.40000000000E-01 0.  1.
</event>
<event>
 5   0  0.7212170E+07  0.9118800E+02  0.7818608E-02  0.1180000E+00
       11   -1    0    0    0    0  0.00000000000E+00  0.00000000000E+00  0.39999999673E+01  0.40000000000E+01  0.51109989000E-03 0. -1.
     -623   -1    0    0    0    0  0.00000000000E+00  0.00000000000E+00  0.12525980253E-10  0.17130000000E+03  0.17130000000E+03 0.  1.
       11    1    1    2    0    0  0.15021652732E-02 -0.36237056899E-01  0.66152942266E+00  0.66252307059E+00  0.51109989000E-03 0. -1.
     -623    1    1    2    0    0 -0.39293160259E-03 -0.19299786659E-01  0.16967485427E-02  0.17130000110E+03  0.17130000000E+03 0.  1.
      622    1    1    2    0    0 -0.11092336706E-02  0.55536843557E-01  0.33367737961E+01  0.33374758332E+01  0.40000000000E-01 0. -1.
</event>
<event>
 5   0  0.7212170E+07  0.9118800E+02  0.7818608E-02  0.1180000E+00
       11   -1    0    0    0    0  0.00000000000E+00  0.00000000000E+00  0.39999999673E+01  0.40000000000E+01  0.51109989000E-03 0. -1.
     -623   -1    0    0    0    0  0.00000000000E+00  0.00000000000E+00  0.12525980253E-10  0.17130000000E+03  0.17130000000E+03 0.  1.
       11    1    1    2    0    0 -0.15369797890E-02  0.74377850866E-02  0.48118892755E+00  0.48124913316E+00  0.51109989000E-03 0. -1.
     -623    1    1    2    0    0 -0.63987622852E-02 -0.47901104846E-04  0.30436318567E-03  0.17130000012E+03  0.17130000000E+03 0.  1.
      622    1    1    2    0    0  0.79357420726E-02 -0.73898839818E-02  0.35185066756E+01  0.35187507461E+01  0.40000000000E-01 0. -1.
</event>
<event>
 5   0  0.7212170E+07  0.9118800E+02  0.7818608E-02  0.1180000E+00
       11   -1    0    0    0    0  0.00000000000E+00  0.00000000000E+00  0.39999999673E+01  0.40000000000E+01  0.51109989000E-03 0. -1.
     -623   -1    0    0    0    0  0.00000000000E+00  0.00000000000E+00  0.12525980253E-10  0.17130000000E+03  0.17130000000E+03 0. -1.
       11    1    1    2    0    0 -0.18711495627E-02 -0.27805967544E-02  0.42603862344E-01  0.42738545000E-01  0.51109989000E-03 0. -1.
     -623    1    1    2    0    0  0.21074700405E-02  0.30370477155E-02  0.33687077245E-03  0.17130000004E+03  0.17130000000E+03 0. -1.
      622    1    1    2    0    0 -0.23632047823E-03 -0.25645096170E-03  0.39570592352E+01  0.39572614157E+01  0.40000000000E-01 0. -1.
</event>
<event>
 5   0  0.7212170E+07  0.9118800E+02  0.7818608E-02  0.1180000E+00
       11   -1    0    0    0    0  0.00000000000E+00  0.00000000000E+00  0.39999999673E+01  0.40000000000E+01  0.51109989000E-03 0.  1.
     -623   -1    0    0    0    0  0.00000000000E+00  0.00000000000E+00  0.12525980253E-10  0.17130000000E+03  0.17130000000E+03 0.  1.
       11    1    1    2    0    0 -0.82226518608E-02  0.48559281151E-02  0.10984724045E+00  0.11026272942E+00  0.51109989000E-03 0.  1.
     -623    1    1    2    0    0  0.83991673845E-02  0.50856472818E-03  0.62504240158E-03  0.17130000021E+03  0.17130000000E+03 0.  1.
      622    1    1    2    0    0 -0.17651552294E-03 -0.53644928432E-02  0.38895276842E+01  0.38897370624E+01  0.40000000000E-01 0.  1.
</event>
<event>
 5   0  0.7212170E+07  0.9118800E+02  0.7818608E-02  0.1180000E+00
       11   -1    0    0    0    0  0.00000000000E+00  0.00000000000E+00  0.39999999673E+01  0.40000000000E+01  0.51109989000E-03 0. -1.
     -623   -1    0    0    0    0  0.00000000000E+00  0.00000000000E+00  0.12525980253E-10  0.17130000000E+03  0.17130000000E+03 0.  1.
       11    1    1    2    0    0  0.13186940546E-02  0.15246802436E-03  0.90664700309E-02  0.91773799326E-02  0.51109989000E-03 0. -1.
     -623    1    1    2    0    0  0.15376992551E-01  0.10445116494E-02  0.34714076171E-03  0.17130000069E+03  0.17130000000E+03 0.  1.
      622    1    1    2    0    0 -0.16695686603E-01 -0.11969796736E-02  0.39905863557E+01  0.39908219255E+01  0.40000000000E-01 0. -1.
</event>
<event>
 5   0  0.7212170E+07  0.9118800E+02  0.7818608E-02  0.1180000E+00
       11   -1    0    0    0    0  0.00000000000E+00  0.00000000000E+00  0.39999999673E+01  0.40000000000E+01  0.51109989000E-03 0.  1.
     -623   -1    0    0    0    0  0.00000000000E+00  0.00000000000E+00  0.12525980253E-10  0.17130000000E+03  0.17130000000E+03 0.  1.
       11    1    1    2    0    0  0.35499013627E-03  0.36946409435E-03  0.50864017225E-02  0.51376285672E-02  0.51109989000E-03 0.  1.
     -623    1    1    2    0    0 -0.48412847857E-03  0.30985083138E-03  0.25151743293E-03  0.17130000000E+03  0.17130000000E+03 0.  1.
      622    1    1    2    0    0  0.12913834238E-03 -0.67931492578E-03  0.39946620489E+01  0.39948623710E+01  0.40000000000E-01 0.  1.
</event>
<event>
 5   0  0.7212170E+07  0.9118800E+02  0.7818608E-02  0.1180000E+00
       11   -1    0    0    0    0  0.00000000000E+00  0.00000000000E+00  0.39999999673E+01  0.40000000000E+01  0.51109989000E-03 0. -1.
     -623   -1    0    0    0    0  0.00000000000E+00  0.00000000000E+00  0.12525980253E-10  0.17130000000E+03  0.17130000000E+03 0.  1.
       11    1    1    2    0    0  0.61502774085E-02 -0.10327902857E-02  0.17986333451E+00  0.17997214477E+00  0.51109989000E-03 0. -1.
     -623    1    1    2    0    0 -0.42689888433E-03  0.15308553330E-02  0.32253384216E-03  0.17130000001E+03  0.17130000000E+03 0.  1.
      622    1    1    2    0    0 -0.57233785243E-02 -0.49806504717E-03  0.38198140986E+01  0.38200278471E+01  0.40000000000E-01 0. -1.
</event>
<event>
 5   0  0.7212170E+07  0.9118800E+02  0.7818608E-02  0.1180000E+00
       11   -1    0    0    0    0  0.00000000000E+00  0.00000000000E+00  0.39999999673E+01  0.40000000000E+01  0.51109989000E-03 0.  1.
     -623   -1    0    0    0    0  0.00000000000E+00  0.00000000000E+00  0.12525980253E-10  0.17130000000E+03  0.17130000000E+03 0. -1.
       11    1    1    2    0    0  0.79275101711E-03  0.57709554146E-02  0.21030746987E+00  0.21038874848E+00  0.51109989000E-03 0.  1.
     -623    1    1    2    0    0 -0.58095377547E-03  0.46864001995E-03  0.29750013746E-03  0.17130000000E+03  0.17130000000E+03 0. -1.
      622    1    1    2    0    0 -0.21179724139E-03 -0.62395954347E-02  0.37893949990E+01  0.37896112513E+01  0.40000000000E-01 0.  1.
</event>
<event>
 5   0  0.7212170E+07  0.9118800E+02  0.7818608E-02  0.1180000E+00
       11   -1    0    0    0    0  0.00000000000E+00  0.00000000000E+00  0.39999999673E+01  0.40000000000E+01  0.51109989000E-03 0.  1.
     -623   -1    0    0    0    0  0.00000000000E+00  0.00000000000E+00  0.12525980253E-10  0.17130000000E+03  0.17130000000E+03 0.  1.
       11    1    1    2    0    0  0.24457549550E-01  0.10207084047E-01  0.30452137004E-01  0.40372641305E-01  0.51109989000E-03 0.  1.
     -623    1    1    2    0    0 -0.62654453773E-01 -0.29653766604E-01  0.10368863558E-01  0.17130001434E+03  0.17130000000E+03 0.  1.
      622    1    1    2    0    0  0.38196904224E-01  0.19446682558E-01  0.39591789668E+01  0.39596130200E+01  0.40000000000E-01 0.  1.
</event>
<event>
 5   0  0.7212170E+07  0.9118800E+02  0.7818608E-02  0.1180000E+00
       11   -1    0    0    0    0  0.00000000000E+00  0.00000000000E+00  0.39999999673E+01  0.40000000000E+01  0.51109989000E-03 0.  1.
     -623   -1    0    0    0    0  0.00000000000E+00  0.00000000000E+00  0.12525980253E-10  0.17130000000E+03  0.17130000000E+03 0.  1.
       11    1    1    2    0    0 -0.22721173777E-02 -0.72971539606E-03  0.20038472003E-01  0.20186544658E-01  0.51109989000E-03 0.  1.
     -623    1    1    2    0    0  0.19925421549E-02  0.47801705052E-03  0.34908993043E-03  0.17130000001E+03  0.17130000000E+03 0.  1.
      622    1    1    2    0    0  0.27957522212E-03  0.25169834537E-03  0.39796124069E+01  0.39798134442E+01  0.40000000000E-01 0.  1.
</event>
<event>
 5   0  0.7212170E+07  0.9118800E+02  0.7818608E-02  0.1180000E+00
       11   -1    0    0    0    0  0.00000000000E+00  0.00000000000E+00  0.39999999673E+01  0.40000000000E+01  0.51109989000E-03 0.  1.
     -623   -1    0    0    0    0  0.00000000000E+00  0.00000000000E+00  0.12525980253E-10  0.17130000000E+03  0.17130000000E+03 0.  1.
       11    1    1    2    0    0  0.10508706823E-01  0.11126310939E-01  0.86683387227E+00  0.86696911770E+00  0.51109989000E-03 0.  1.
     -623    1    1    2    0    0 -0.51569166205E-02 -0.24757521516E-01  0.42666166575E-03  0.17130000187E+03  0.17130000000E+03 0.  1.
      622    1    1    2    0    0 -0.53517902008E-02  0.13631210584E-01  0.31327394346E+01  0.31330290162E+01  0.40000000000E-01 0.  1.
</event>
<event>
 5   0  0.7212170E+07  0.9118800E+02  0.7818608E-02  0.1180000E+00
       11   -1    0    0    0    0  0.00000000000E+00  0.00000000000E+00  0.39999999673E+01  0.40000000000E+01  0.51109989000E-03 0.  1.
     -623   -1    0    0    0    0  0.00000000000E+00  0.00000000000E+00  0.12525980253E-10  0.17130000000E+03  0.17130000000E+03 0. -1.
       11    1    1    2    0    0  0.52229537718E-03  0.38459609251E-03  0.71611736644E-02  0.72086294096E-02  0.51109989000E-03 0.  1.
     -623    1    1    2    0    0 -0.31914178444E-03 -0.10827570112E-02  0.24785932349E-03  0.17130000000E+03  0.17130000000E+03 0. -1.
      622    1    1    2    0    0 -0.20315359269E-03  0.69816091885E-03  0.39925909349E+01  0.39927913672E+01  0.40000000000E-01 0.  1.
</event>
<event>
 5   0  0.7212170E+07  0.9118800E+02  0.7818608E-02  0.1180000E+00
       11   -1    0    0    0    0  0.00000000000E+00  0.00000000000E+00  0.39999999673E+01  0.40000000000E+01  0.51109989000E-03 0. -1.
     -623   -1    0    0    0    0  0.00000000000E+00  0.00000000000E+00  0.12525980253E-10  0.17130000000E+03  0.17130000000E+03 0.  1.
       11    1    1    2    0    0 -0.65987674802E-02  0.12611289309E-02  0.50279301776E-02  0.84068712020E-02  0.51109989000E-03 0. -1.
     -623    1    1    2    0    0  0.27107178693E-02 -0.48115491639E-02  0.35829339202E-02  0.17130000013E+03  0.17130000000E+03 0.  1.
      622    1    1    2    0    0  0.38880496109E-02  0.35504202331E-02  0.39913891033E+01  0.39915930023E+01  0.40000000000E-01 0. -1.
</event>
<event>
 5   0  0.7212170E+07  0.9118800E+02  0.7818608E-02  0.1180000E+00
       11   -1    0    0    0    0  0.00000000000E+00  0.00000000000E+00  0.39999999673E+01  0.40000000000E+01  0.51109989000E-03 0. -1.
     -623   -1    0    0    0    0  0.00000000000E+00  0.00000000000E+00  0.12525980253E-10  0.17130000000E+03  0.17130000000E+03 0.  1.
       11    1    1    2    0    0 -0.44475739266E-02  0.17183168592E-02  0.27740444081E-01  0.28151855846E-01  0.51109989000E-03 0. -1.
     -623    1    1    2    0    0 -0.13318657292E-02  0.70424318422E-03  0.61775342835E-03  0.17130000001E+03  0.17130000000E+03 0.  1.
      622    1    1    2    0    0  0.57794396556E-02 -0.24225600433E-02  0.39716417692E+01  0.39718481357E+01  0.40000000000E-01 0. -1.
</event>
<event>
 5   0  0.7212170E+07  0.9118800E+02  0.7818608E-02  0.1180000E+00
       11   -1    0    0    0    0  0.00000000000E+00  0.00000000000E+00  0.39999999673E+01  0.40000000000E+01  0.51109989000E-03 0.  1.
     -623   -1    0    0    0    0  0.00000000000E+00  0.00000000000E+00  0.12525980253E-10  0.17130000000E+03  0.17130000000E+03 0. -1.
       11    1    1    2    0    0  0.13431129429E-02 -0.44887730203E-02  0.25486846742E-01  0.25918981762E-01  0.51109989000E-03 0.  1.
     -623    1    1    2    0    0 -0.68125026789E-03 -0.14020870795E-02  0.63784157127E-03  0.17130000001E+03  0.17130000000E+03 0. -1.
      622    1    1    2    0    0 -0.66186267485E-03  0.58908601001E-02  0.39738752798E+01  0.39740810108E+01  0.40000000000E-01 0.  1.
</event>
<event>
 5   0  0.7212170E+07  0.9118800E+02  0.7818608E-02  0.1180000E+00
       11   -1    0    0    0    0  0.00000000000E+00  0.00000000000E+00  0.39999999673E+01  0.40000000000E+01  0.51109989000E-03 0. -1.
     -623   -1    0    0    0    0  0.00000000000E+00  0.00000000000E+00  0.12525980253E-10  0.17130000000E+03  0.17130000000E+03 0. -1.
       11    1    1    2    0    0 -0.97166875974E-03 -0.10340336588E-02  0.42596954565E-01  0.42623645164E-01  0.51109989000E-03 0. -1.
     -623    1    1    2    0    0  0.10307523153E-02  0.12125249971E-03  0.22892627092E-03  0.17130000000E+03  0.17130000000E+03 0. -1.
      622    1    1    2    0    0 -0.59083555490E-04  0.91278115912E-03  0.39571740865E+01  0.39573763515E+01  0.40000000000E-01 0. -1.
</event>
<event>
 5   0  0.7212170E+07  0.9118800E+02  0.7818608E-02  0.1180000E+00
       11   -1    0    0    0    0  0.00000000000E+00  0.00000000000E+00  0.39999999673E+01  0.40000000000E+01  0.51109989000E-03 0.  1.
     -623   -1    0    0    0    0  0.00000000000E+00  0.00000000000E+00  0.12525980253E-10  0.17130000000E+03  0.17130000000E+03 0.  1.
       11    1    1    2    0    0  0.12734621858E-01  0.22083126375E-02  0.14170053333E+01  0.14170643680E+01  0.51109989000E-03 0.  1.
     -623    1    1    2    0    0 -0.11110745283E-01  0.19837177052E-01  0.46485877842E-03  0.17130000151E+03  0.17130000000E+03 0.  1.
      622    1    1    2    0    0 -0.16238765735E-02 -0.22045489692E-01  0.25825297759E+01  0.25829341230E+01  0.40000000000E-01 0.  0.
</event>
<event>
 5   0  0.7212170E+07  0.9118800E+02  0.7818608E-02  0.1180000E+00
       11   -1    0    0    0    0  0.00000000000E+00  0.00000000000E+00  0.39999999673E+01  0.40000000000E+01  0.51109989000E-03 0.  1.
     -623   -1    0    0    0    0  0.00000000000E+00  0.00000000000E+00  0.12525980253E-10  0.17130000000E+03  0.17130000000E+03 0. -1.
       11    1    1    2    0    0  0.41066666934E-02  0.53237380341E-02  0.49356052764E+00  0.49360658684E+00  0.51109989000E-03 0.  1.
     -623    1    1    2    0    0  0.18295626926E-04  0.33662355583E-02  0.28741744590E-03  0.17130000003E+03  0.17130000000E+03 0. -1.
      622    1    1    2    0    0 -0.41249623203E-02 -0.86899735924E-02  0.35061520222E+01  0.35063933798E+01  0.40000000000E-01 0.  1.
</event>
<event>
 5   0  0.7212170E+07  0.9118800E+02  0.7818608E-02  0.1180000E+00
       11   -1    0    0    0    0  0.00000000000E+00  0.00000000000E+00  0.39999999673E+01  0.40000000000E+01  0.51109989000E-03 0.  1.
     -623   -1    0    0    0    0  0.00000000000E+00  0.00000000000E+00  0.12525980253E-10  0.17130000000E+03  0.17130000000E+03 0. -1.
       11    1    1    2    0    0 -0.70227550102E-02  0.63311973170E-02  0.46997350456E-01  0.47941790959E-01  0.51109989000E-03 0.  1.
     -623    1    1    2    0    0  0.59833833024E-02 -0.21601720699E-02  0.11492990531E-02  0.17130000012E+03  0.17130000000E+03 0. -1.
      622    1    1    2    0    0  0.10393717080E-02 -0.41710252472E-02  0.39518533177E+01  0.39520580869E+01  0.40000000000E-01 0.  1.
</event>
<event>
 5   0  0.7212170E+07  0.9118800E+02  0.7818608E-02  0.1180000E+00
       11   -1    0    0    0    0  0.00000000000E+00  0.00000000000E+00  0.39999999673E+01  0.40000000000E+01  0.51109989000E-03 0. -1.
     -623   -1    0    0    0    0  0.00000000000E+00  0.00000000000E+00  0.12525980253E-10  0.17130000000E+03  0.17130000000E+03 0.  1.
       11    1    1    2    0    0 -0.29577272357E-02  0.95675639603E-02  0.39851507306E+00  0.39864120598E+00  0.51109989000E-03 0. -1.
     -623    1    1    2    0    0  0.90074261270E-03  0.19542494022E-03  0.36207003096E-03  0.17130000000E+03  0.17130000000E+03 0.  1.
      622    1    1    2    0    0  0.20569846230E-02 -0.97629889005E-02  0.36011228243E+01  0.36013587911E+01  0.40000000000E-01 0. -1.
</event>
<event>
 5   0  0.7212170E+07  0.9118800E+02  0.7818608E-02  0.1180000E+00
       11   -1    0    0    0    0  0.00000000000E+00  0.00000000000E+00  0.39999999673E+01  0.40000000000E+01  0.51109989000E-03 0. -1.
     -623   -1    0    0    0    0  0.00000000000E+00  0.00000000000E+00  0.12525980253E-10  0.17130000000E+03  0.17130000000E+03 0. -1.
       11    1    1    2    0    0 -0.33373993767E-02  0.55826785908E-02  0.10025107034E+01  0.10025319327E+01  0.51109989000E-03 0. -1.
     -623    1    1    2    0    0 -0.27181610519E-02  0.55449264549E-03  0.30052395066E-03  0.17130000002E+03  0.17130000000E+03 0. -1.
      622    1    1    2    0    0  0.60555604292E-02 -0.61371712364E-02  0.29971887410E+01  0.29974680455E+01  0.40000000000E-01 0. -1.
</event>
<event>
 5   0  0.7212170E+07  0.9118800E+02  0.7818608E-02  0.1180000E+00
       11   -1    0    0    0    0  0.00000000000E+00  0.00000000000E+00  0.39999999673E+01  0.40000000000E+01  0.51109989000E-03 0. -1.
     -623   -1    0    0    0    0  0.00000000000E+00  0.00000000000E+00  0.12525980253E-10  0.17130000000E+03  0.17130000000E+03 0. -1.
       11    1    1    2    0    0  0.56972314271E-02 -0.31404257527E-02  0.16936437443E+00  0.16949003885E+00  0.51109989000E-03 0. -1.
     -623    1    1    2    0    0 -0.74791393665E-03  0.65028357842E-04  0.33892119622E-03  0.17130000000E+03  0.17130000000E+03 0. -1.
      622    1    1    2    0    0 -0.49493174903E-02  0.30753973948E-02  0.38302966723E+01  0.38305099597E+01  0.40000000000E-01 0. -1.
</event>
<event>
 5   0  0.7212170E+07  0.9118800E+02  0.7818608E-02  0.1180000E+00
       11   -1    0    0    0    0  0.00000000000E+00  0.00000000000E+00  0.39999999673E+01  0.40000000000E+01  0.51109989000E-03 0. -1.
     -623   -1    0    0    0    0  0.00000000000E+00  0.00000000000E+00  0.12525980253E-10  0.17130000000E+03  0.17130000000E+03 0.  1.
       11    1    1    2    0    0  0.47525235488E-03 -0.20457222896E-02  0.88878425366E-01  0.88904704955E-01  0.51109989000E-03 0. -1.
     -623    1    1    2    0    0  0.29013566439E-02  0.21396162545E-02  0.23229545802E-03  0.17130000004E+03  0.17130000000E+03 0.  1.
      622    1    1    2    0    0 -0.33766090000E-02 -0.93893965800E-04  0.39108892482E+01  0.39110952586E+01  0.40000000000E-01 0. -1.
</event>
<event>
 5   0  0.7212170E+07  0.9118800E+02  0.7818608E-02  0.1180000E+00
       11   -1    0    0    0    0  0.00000000000E+00  0.00000000000E+00  0.39999999673E+01  0.40000000000E+01  0.51109989000E-03 0.  1.
     -623   -1    0    0    0    0  0.00000000000E+00  0.00000000000E+00  0.12525980253E-10  0.17130000000E+03  0.17130000000E+03 0.  1.
       11    1    1    2    0    0 -0.68680815384E-02  0.64023480528E-03  0.11216667577E+00  0.11237973492E+00  0.51109989000E-03 0.  1.
     -623    1    1    2    0    0 -0.71386625813E-02 -0.93352331382E-02  0.45417519568E-03  0.17130000040E+03  0.17130000000E+03 0.  1.
      622    1    1    2    0    0  0.14006744119E-01  0.86949983325E-02  0.38873791162E+01  0.38876198612E+01  0.40000000000E-01 0.  1.
</event>
<event>
 5   0  0.7212170E+07  0.9118800E+02  0.7818608E-02  0.1180000E+00
       11   -1    0    0    0    0  0.00000000000E+00  0.00000000000E+00  0.39999999673E+01  0.40000000000E+01  0.51109989000E-03 0.  1.
     -623   -1    0    0    0    0  0.00000000000E+00  0.00000000000E+00  0.12525980253E-10  0.17130000000E+03  0.17130000000E+03 0.  1.
       11    1    1    2    0    0 -0.49381544001E-02 -0.46640899944E-02  0.73423667843E-01  0.73738967493E-01  0.51109989000E-03 0.  1.
     -623    1    1    2    0    0  0.59592242546E-02 -0.36572313336E-02  0.52812336182E-03  0.17130000014E+03  0.17130000000E+03 0.  1.
      622    1    1    2    0    0 -0.10210698537E-02  0.83213213275E-02  0.39260481756E+01  0.39262608884E+01  0.40000000000E-01 0.  1.
</event>
<event>
 5   0  0.7212170E+07  0.9118800E+02  0.7818608E-02  0.1180000E+00
       11   -1    0    0    0    0  0.00000000000E+00  0.00000000000E+00  0.39999999673E+01  0.40000000000E+01  0.51109989000E-03 0.  1.
     -623   -1    0    0    0    0  0.00000000000E+00  0.00000000000E+00  0.12525980253E-10  0.17130000000E+03  0.17130000000E+03 0. -1.
       11    1    1    2    0    0 -0.14209693637E-03 -0.30266598317E-03  0.61761410320E-02  0.62062661385E-02  0.51109989000E-03 0.  1.
     -623    1    1    2    0    0  0.14863333787E-03  0.45756887595E-03  0.23041212555E-03  0.17130000000E+03  0.17130000000E+03 0. -1.
      622    1    1    2    0    0 -0.65364015235E-05 -0.15490289284E-03  0.39935934148E+01  0.39937937336E+01  0.40000000000E-01 0.  1.
</event>
<event>
 5   0  0.7212170E+07  0.9118800E+02  0.7818608E-02  0.1180000E+00
       11   -1    0    0    0    0  0.00000000000E+00  0.00000000000E+00  0.39999999673E+01  0.40000000000E+01  0.51109989000E-03 0.  1.
     -623   -1    0    0    0    0  0.00000000000E+00  0.00000000000E+00  0.12525980253E-10  0.17130000000E+03  0.17130000000E+03 0. -1.
       11    1    1    2    0    0 -0.59631805995E-02  0.90843844858E-02  0.85120575566E-01  0.85812931265E-01  0.51109989000E-03 0.  1.
     -623    1    1    2    0    0  0.40093760209E-02  0.11090984059E-02  0.91052755286E-03  0.17130000005E+03  0.17130000000E+03 0. -1.
      622    1    1    2    0    0  0.19538045784E-02 -0.10193482892E-01  0.39139688644E+01  0.39141870159E+01  0.40000000000E-01 0.  1.
</event>
<event>
 5   0  0.7212170E+07  0.9118800E+02  0.7818608E-02  0.1180000E+00
       11   -1    0    0    0    0  0.00000000000E+00  0.00000000000E+00  0.39999999673E+01  0.40000000000E+01  0.51109989000E-03 0. -1.
     -623   -1    0    0    0    0  0.00000000000E+00  0.00000000000E+00  0.12525980253E-10  0.17130000000E+03  0.17130000000E+03 0. -1.
       11    1    1    2    0    0  0.38050932170E-02 -0.95223930568E-02  0.31016201350E-01  0.32671404518E-01  0.51109989000E-03 0. -1.
     -623    1    1    2    0    0  0.56295206089E-02  0.13593426603E-01  0.18707723224E-02  0.17130000064E+03  0.17130000000E+03 0. -1.
      622    1    1    2    0    0 -0.94346138258E-02 -0.40710335455E-02  0.39671129936E+01  0.39673279533E+01  0.40000000000E-01 0. -1.
</event>
<event>
 5   0  0.7212170E+07  0.9118800E+02  0.7818608E-02  0.1180000E+00
       11   -1    0    0    0    0  0.00000000000E+00  0.00000000000E+00  0.39999999673E+01  0.40000000000E+01  0.51109989000E-03 0. -1.
     -623   -1    0    0    0    0  0.00000000000E+00  0.00000000000E+00  0.12525980253E-10  0.17130000000E+03  0.17130000000E+03 0.  1.
       11    1    1    2    0    0  0.22497881399E-01 -0.32256498329E-02  0.93534590895E-01  0.96257677103E-01  0.51109989000E-03 0. -1.
     -623    1    1    2    0    0 -0.36300189734E-01 -0.48695875570E-01  0.33085185388E-02  0.17130001080E+03  0.17130000000E+03 0.  1.
      622    1    1    2    0    0  0.13802308337E-01  0.51921525405E-01  0.39031568581E+01  0.39037315235E+01  0.40000000000E-01 0. -1.
</event>
<event>
 5   0  0.7212170E+07  0.9118800E+02  0.7818608E-02  0.1180000E+00
       11   -1    0    0    0    0  0.00000000000E+00  0.00000000000E+00  0.39999999673E+01  0.40000000000E+01  0.51109989000E-03 0. -1.
     -623   -1    0    0    0    0  0.00000000000E+00  0.00000000000E+00  0.12525980253E-10  0.17130000000E+03  0.17130000000E+03 0.  1.
       11    1    1    2    0    0 -0.50719118231E-02  0.22136450874E-02  0.15818048752E+00  0.15827808557E+00  0.51109989000E-03 0. -1.
     -623    1    1    2    0    0 -0.29215501070E-04  0.62669109047E-03  0.31024935832E-03  0.17130000000E+03  0.17130000000E+03 0.  1.
      622    1    1    2    0    0  0.51011273242E-02 -0.28403361779E-02  0.38415092303E+01  0.38417219128E+01  0.40000000000E-01 0. -1.
</event>
<event>
 5   0  0.7212170E+07  0.9118800E+02  0.7818608E-02  0.1180000E+00
       11   -1    0    0    0    0  0.00000000000E+00  0.00000000000E+00  0.39999999673E+01  0.40000000000E+01  0.51109989000E-03 0. -1.
     -623   -1    0    0    0    0  0.00000000000E+00  0.00000000000E+00  0.12525980253E-10  0.17130000000E+03  0.17130000000E+03 0. -1.
       11    1    1    2    0    0  0.24153605920E-01  0.29884611114E-01  0.11754392752E+01  0.11760672760E+01  0.51109989000E-03 0. -1.
     -623    1    1    2    0    0  0.19130753551E-01  0.39449624665E-02  0.14468563978E-02  0.17130000112E+03  0.17130000000E+03 0. -1.
      622    1    1    2    0    0 -0.43284359470E-01 -0.33829573580E-01  0.28231138357E+01  0.28239316042E+01  0.40000000000E-01 0. -1.
</event>
<event>
 5   0  0.7212170E+07  0.9118800E+02  0.7818608E-02  0.1180000E+00
       11   -1    0    0    0    0  0.00000000000E+00  0.00000000000E+00  0.39999999673E+01  0.40000000000E+01  0.51109989000E-03 0. -1.
     -623   -1    0    0    0    0  0.00000000000E+00  0.00000000000E+00  0.12525980253E-10  0.17130000000E+03  0.17130000000E+03 0.  1.
       11    1    1    2    0    0  0.89584634848E-02  0.96424246061E-02  0.26507304653E+00  0.26540009729E+00  0.51109989000E-03 0. -1.
     -623    1    1    2    0    0  0.89768225174E-03 -0.13639248811E-01  0.55692910647E-03  0.17130000055E+03  0.17130000000E+03 0.  1.
      622    1    1    2    0    0 -0.98561457369E-02  0.39968242094E-02  0.37343699930E+01  0.37345993578E+01  0.40000000000E-01 0. -1.
</event>
<event>
 5   0  0.7212170E+07  0.9118800E+02  0.7818608E-02  0.1180000E+00
       11   -1    0    0    0    0  0.00000000000E+00  0.00000000000E+00  0.39999999673E+01  0.40000000000E+01  0.51109989000E-03 0.  1.
     -623   -1    0    0    0    0  0.00000000000E+00  0.00000000000E+00  0.12525980253E-10  0.17130000000E+03  0.17130000000E+03 0. -1.
       11    1    1    2    0    0 -0.62382488085E-03 -0.78355662673E-02  0.29511517196E+00  0.29522027572E+00  0.51109989000E-03 0.  1.
     -623    1    1    2    0    0 -0.48628070658E-03 -0.67940815901E-04  0.32961291675E-03  0.17130000000E+03  0.17130000000E+03 0. -1.
      622    1    1    2    0    0  0.11101055875E-02  0.79035070832E-02  0.37045551827E+01  0.37047797235E+01  0.40000000000E-01 0.  1.
</event>
<event>
 5   0  0.7212170E+07  0.9118800E+02  0.7818608E-02  0.1180000E+00
       11   -1    0    0    0    0  0.00000000000E+00  0.00000000000E+00  0.39999999673E+01  0.40000000000E+01  0.51109989000E-03 0.  1.
     -623   -1    0    0    0    0  0.00000000000E+00  0.00000000000E+00  0.12525980253E-10  0.17130000000E+03  0.17130000000E+03 0.  1.
       11    1    1    2    0    0 -0.59398143105E-02 -0.30325892692E-02  0.28870852768E+00  0.28878599892E+00  0.51109989000E-03 0.  1.
     -623    1    1    2    0    0  0.10815438822E-01 -0.13113989099E-02  0.29909982488E-03  0.17130000035E+03  0.17130000000E+03 0.  1.
      622    1    1    2    0    0 -0.48756245144E-02  0.43439881795E-02  0.37109923410E+01  0.37112136555E+01  0.40000000000E-01 0.  1.
</event>
<event>
 5   0  0.7212170E+07  0.9118800E+02  0.7818608E-02  0.1180000E+00
       11   -1    0    0    0    0  0.00000000000E+00  0.00000000000E+00  0.39999999673E+01  0.40000000000E+01  0.51109989000E-03 0.  1.
     -623   -1    0    0    0    0  0.00000000000E+00  0.00000000000E+00  0.12525980253E-10  0.17130000000E+03  0.17130000000E+03 0. -1.
       11    1    1    2    0    0 -0.33897578599E-02 -0.70600675302E-02  0.54913275353E+00  0.54918883568E+00  0.51109989000E-03 0.  1.
     -623    1    1    2    0    0 -0.27493480017E-03 -0.89493686593E-03  0.29900550860E-03  0.17130000000E+03  0.17130000000E+03 0. -1.
      622    1    1    2    0    0  0.36646926601E-02  0.79550043961E-02  0.34505682084E+01  0.34508111616E+01  0.40000000000E-01 0.  1.
</event>
<event>
 5   0  0.7212170E+07  0.9118800E+02  0.7818608E-02  0.1180000E+00
       11   -1    0    0    0    0  0.00000000000E+00  0.00000000000E+00  0.39999999673E+01  0.40000000000E+01  0.51109989000E-03 0. -1.
     -623   -1    0    0    0    0  0.00000000000E+00  0.00000000000E+00  0.12525980253E-10  0.17130000000E+03  0.17130000000E+03 0.  1.
       11    1    1    2    0    0  0.15924791749E-02  0.22129936657E-02  0.16083638462E+00  0.16086030328E+00  0.51109989000E-03 0. -1.
     -623    1    1    2    0    0 -0.76344706136E-03 -0.22696048502E-02  0.23237852346E-03  0.17130000002E+03  0.17130000000E+03 0.  1.
      622    1    1    2    0    0 -0.82903211361E-03  0.56611184205E-04  0.38389312037E+01  0.38391396793E+01  0.40000000000E-01 0. -1.
</event>
<event>
 5   0  0.7212170E+07  0.9118800E+02  0.7818608E-02  0.1180000E+00
       11   -1    0    0    0    0  0.00000000000E+00  0.00000000000E+00  0.39999999673E+01  0.40000000000E+01  0.51109989000E-03 0. -1.
     -623   -1    0    0    0    0  0.00000000000E+00  0.00000000000E+00  0.12525980253E-10  0.17130000000E+03  0.17130000000E+03 0. -1.
       11    1    1    2    0    0 -0.42666103841E-02  0.51346301685E-02  0.62633485186E-01  0.62990341170E-01  0.51109989000E-03 0. -1.
     -623    1    1    2    0    0  0.70642221105E-03 -0.17585753369E-03  0.56476379394E-03  0.17130000000E+03  0.17130000000E+03 0. -1.
      622    1    1    2    0    0  0.35601881731E-02 -0.49587726348E-02  0.39368017180E+01  0.39370096559E+01  0.40000000000E-01 0. -1.
</event>
<event>
 5   0  0.7212170E+07  0.9118800E+02  0.7818608E-02  0.1180000E+00
       11   -1    0    0    0    0  0.00000000000E+00  0.00000000000E+00  0.39999999673E+01  0.40000000000E+01  0.51109989000E-03 0.  1.
     -623   -1    0    0    0    0  0.00000000000E+00  0.00000000000E+00  0.12525980253E-10  0.17130000000E+03  0.17130000000E+03 0. -1.
       11    1    1    2    0    0 -0.36384822576E-02  0.15328251138E-01  0.49674587005E+00  0.49699588979E+00  0.51109989000E-03 0.  1.
     -623    1    1    2    0    0  0.15894604465E-03 -0.19680199519E-02  0.50558960438E-03  0.17130000001E+03  0.17130000000E+03 0. -1.
      622    1    1    2    0    0  0.34795362130E-02 -0.13360231186E-01  0.35027485085E+01  0.35030040989E+01  0.40000000000E-01 0.  0.
</event>
<event>
 5   0  0.7212170E+07  0.9118800E+02  0.7818608E-02  0.1180000E+00
       11   -1    0    0    0    0  0.00000000000E+00  0.00000000000E+00  0.39999999673E+01  0.40000000000E+01  0.51109989000E-03 0.  1.
     -623   -1    0    0    0    0  0.00000000000E+00  0.00000000000E+00  0.12525980253E-10  0.17130000000E+03  0.17130000000E+03 0.  1.
       11    1    1    2    0    0 -0.10640035586E-01  0.13851128969E-01  0.19359552095E+01  0.19360340644E+01  0.51109989000E-03 0.  1.
     -623    1    1    2    0    0 -0.10506792332E-01 -0.35874090085E-01  0.69642518445E-03  0.17130000408E+03  0.17130000000E+03 0.  1.
      622    1    1    2    0    0  0.21146827918E-01  0.22022961117E-01  0.20633483327E+01  0.20639618556E+01  0.40000000000E-01 0.  0.
</event>
<event>
 5   0  0.7212170E+07  0.9118800E+02  0.7818608E-02  0.1180000E+00
       11   -1    0    0    0    0  0.00000000000E+00  0.00000000000E+00  0.39999999673E+01  0.40000000000E+01  0.51109989000E-03 0.  1.
     -623   -1    0    0    0    0  0.00000000000E+00  0.00000000000E+00  0.12525980253E-10  0.17130000000E+03  0.17130000000E+03 0. -1.
       11    1    1    2    0    0  0.29757718989E-02  0.60398170070E-03  0.45553419985E-01  0.45657368603E-01  0.51109989000E-03 0.  1.
     -623    1    1    2    0    0  0.85427416422E-03 -0.11408282115E-02  0.30812795314E-03  0.17130000001E+03  0.17130000000E+03 0. -1.
      622    1    1    2    0    0 -0.38300460631E-02  0.53684651068E-03  0.39541384191E+01  0.39543426249E+01  0.40000000000E-01 0.  1.
</event>
<event>
 5   0  0.7212170E+07  0.9118800E+02  0.7818608E-02  0.1180000E+00
       11   -1    0    0    0    0  0.00000000000E+00  0.00000000000E+00  0.39999999673E+01  0.40000000000E+01  0.51109989000E-03 0. -1.
     -623   -1    0    0    0    0  0.00000000000E+00  0.00000000000E+00  0.12525980253E-10  0.17130000000E+03  0.17130000000E+03 0. -1.
       11    1    1    2    0    0  0.29900415785E-03 -0.21853100742E-02  0.15747509218E+00  0.15749136759E+00  0.51109989000E-03 0. -1.
     -623    1    1    2    0    0 -0.97074328859E-03  0.49754632488E-03  0.22487874827E-03  0.17130000000E+03  0.17130000000E+03 0. -1.
      622    1    1    2    0    0  0.67173913080E-03  0.16877637493E-02  0.38422999967E+01  0.38425086290E+01  0.40000000000E-01 0. -1.
</event>
<event>
 5   0  0.7212170E+07  0.9118800E+02  0.7818608E-02  0.1180000E+00
       11   -1    0    0    0    0  0.00000000000E+00  0.00000000000E+00  0.39999999673E+01  0.40000000000E+01  0.51109989000E-03 0. -1.
     -623   -1    0    0    0    0  0.00000000000E+00  0.00000000000E+00  0.12525980253E-10  0.17130000000E+03  0.17130000000E+03 0. -1.
       11    1    1    2    0    0  0.13296851051E-01  0.59463727339E-02  0.31733093728E+00  0.31766546960E+00  0.51109989000E-03 0. -1.
     -623    1    1    2    0    0 -0.15501081001E-01 -0.12616180403E-01  0.55962712534E-03  0.17130000117E+03  0.17130000000E+03 0. -1.
      622    1    1    2    0    0  0.22042299496E-02  0.66698076689E-02  0.36821094028E+01  0.36823333634E+01  0.40000000000E-01 0. -1.
</event>
<event>
 5   0  0.7212170E+07  0.9118800E+02  0.7818608E-02  0.1180000E+00
       11   -1    0    0    0    0  0.00000000000E+00  0.00000000000E+00  0.39999999673E+01  0.40000000000E+01  0.51109989000E-03 0.  1.
     -623   -1    0    0    0    0  0.00000000000E+00  0.00000000000E+00  0.12525980253E-10  0.17130000000E+03  0.17130000000E+03 0. -1.
       11    1    1    2    0    0  0.45097662414E-02  0.98167389168E-02  0.15998597665E+01  0.15998963217E+01  0.51109989000E-03 0.  1.
     -623    1    1    2    0    0  0.22993422837E-02  0.25888612955E-02  0.41162587946E-03  0.17130000004E+03  0.17130000000E+03 0. -1.
      622    1    1    2    0    0 -0.68091085253E-02 -0.12405600212E-01  0.23997285753E+01  0.24001036432E+01  0.40000000000E-01 0.  0.
</event>
<event>
 5   0  0.7212170E+07  0.9118800E+02  0.7818608E-02  0.1180000E+00
       11   -1    0    0    0    0  0.00000000000E+00  0.00000000000E+00  0.39999999673E+01  0.40000000000E+01  0.51109989000E-03 0. -1.
     -623   -1    0    0    0    0  0.00000000000E+00  0.00000000000E+00  0.12525980253E-10  0.17130000000E+03  0.17130000000E+03 0.  1.
       11    1    1    2    0    0 -0.10672431386E-02  0.26402519384E-02  0.42875771258E-01  0.42973281493E-01  0.51109989000E-03 0. -1.
     -623    1    1    2    0    0  0.48217557906E-03  0.18092315254E-02  0.30221025553E-03  0.17130000001E+03  0.17130000000E+03 0.  1.
      622    1    1    2    0    0  0.58506755953E-03 -0.44494834639E-02  0.39568219861E+01  0.39570267083E+01  0.40000000000E-01 0. -1.
</event>
<event>
 5   0  0.7212170E+07  0.9118800E+02  0.7818608E-02  0.1180000E+00
       11   -1    0    0    0    0  0.00000000000E+00  0.00000000000E+00  0.39999999673E+01  0.40000000000E+01  0.51109989000E-03 0. -1.
     -623   -1    0    0    0    0  0.00000000000E+00  0.00000000000E+00  0.12525980253E-10  0.17130000000E+03  0.17130000000E+03 0. -1.
       11    1    1    2    0    0 -0.54051806540E-02 -0.10342366717E-01  0.48173433776E+00  0.48187593209E+00  0.51109989000E-03 0. -1.
     -623    1    1    2    0    0  0.59464348280E-02  0.15259751739E-01  0.37322475444E-03  0.17130000078E+03  0.17130000000E+03 0. -1.
      622    1    1    2    0    0 -0.54125417535E-03 -0.49173850250E-02  0.35178924058E+01  0.35181232855E+01  0.40000000000E-01 0. -1.
</event>
<event>
 5   0  0.7212170E+07  0.9118800E+02  0.7818608E-02  0.1180000E+00
       11   -1    0    0    0    0  0.00000000000E+00  0.00000000000E+00  0.39999999673E+01  0.40000000000E+01  0.51109989000E-03 0.  1.
     -623   -1    0    0    0    0  0.00000000000E+00  0.00000000000E+00  0.12525980253E-10  0.17130000000E+03  0.17130000000E+03 0.  1.
       11    1    1    2    0    0 -0.14101981402E-01  0.12523118331E-01  0.43371748407E+00  0.43412764434E+00  0.51109989000E-03 0.  1.
     -623    1    1    2    0    0  0.23483698540E-02 -0.64682301337E-04  0.67563838490E-03  0.17130000002E+03  0.17130000000E+03 0.  1.
      622    1    1    2    0    0  0.11753611548E-01 -0.12458436030E-01  0.35656068453E+01  0.35658723386E+01  0.40000000000E-01 0.  0.
</event>
<event>
 5   0  0.7212170E+07  0.9118800E+02  0.7818608E-02  0.1180000E+00
       11   -1    0    0    0    0  0.00000000000E+00  0.00000000000E+00  0.39999999673E+01  0.40000000000E+01  0.51109989000E-03 0.  1.
     -623   -1    0    0    0    0  0.00000000000E+00  0.00000000000E+00  0.12525980253E-10  0.17130000000E+03  0.17130000000E+03 0. -1.
       11    1    1    2    0    0 -0.46841966759E-02  0.12566851432E-02  0.91909576339E-02  0.10404608660E-01  0.51109989000E-03 0.  1.
     -623    1    1    2    0    0  0.50883992698E-02  0.99720441009E-03  0.14148865046E-02  0.17130000008E+03  0.17130000000E+03 0. -1.
      622    1    1    2    0    0 -0.40420259366E-03 -0.22538895533E-02  0.39893941230E+01  0.39895953068E+01  0.40000000000E-01 0.  1.
</event>
<event>
 5   0  0.7212170E+07  0.9118800E+02  0.7818608E-02  0.1180000E+00
       11   -1    0    0    0    0  0.00000000000E+00  0.00000000000E+00  0.39999999673E+01  0.40000000000E+01  0.51109989000E-03 0.  1.
     -623   -1    0    0    0    0  0.00000000000E+00  0.00000000000E+00  0.12525980253E-10  0.17130000000E+03  0.17130000000E+03 0.  1.
       11    1    1    2    0    0 -0.11468004624E-01  0.77770292664E-02  0.10489938513E+01  0.10490854868E+01  0.51109989000E-03 0.  1.
     -623    1    1    2    0    0  0.30966178746E-03  0.10827003063E-02  0.39712192636E-03  0.17130000000E+03  0.17130000000E+03 0.  1.
      622    1    1    2    0    0  0.11158342837E-01 -0.88597295725E-02  0.29506089936E+01  0.29509145085E+01  0.40000000000E-01 0.  1.
</event>
<event>
 5   0  0.7212170E+07  0.9118800E+02  0.7818608E-02  0.1180000E+00
       11   -1    0    0    0    0  0.00000000000E+00  0.00000000000E+00  0.39999999673E+01  0.40000000000E+01  0.51109989000E-03 0. -1.
     -623   -1    0    0    0    0  0.00000000000E+00  0.00000000000E+00  0.12525980253E-10  0.17130000000E+03  0.17130000000E+03 0. -1.
       11    1    1    2    0    0  0.85821874542E-03 -0.11441068949E-02  0.20693856852E-02  0.25669242711E-02  0.51109989000E-03 0. -1.
     -623    1    1    2    0    0 -0.11155091872E-02  0.65969745723E-03  0.69768334026E-03  0.17130000001E+03  0.17130000000E+03 0. -1.
      622    1    1    2    0    0  0.25729044175E-03  0.48440943768E-03  0.39972328981E+01  0.39974330692E+01  0.40000000000E-01 0. -1.
</event>
<event>
 5   0  0.7212170E+07  0.9118800E+02  0.7818608E-02  0.1180000E+00
       11   -1    0    0    0    0  0.00000000000E+00  0.00000000000E+00  0.39999999673E+01  0.40000000000E+01  0.51109989000E-03 0. -1.
     -623   -1    0    0    0    0  0.00000000000E+00  0.00000000000E+00  0.12525980253E-10  0.17130000000E+03  0.17130000000E+03 0.  1.
       11    1    1    2    0    0 -0.50514186578E-04 -0.16587690685E-02  0.12770952082E-01  0.12888464093E-01  0.51109989000E-03 0. -1.
     -623    1    1    2    0    0 -0.70700533274E-03  0.93729041791E-03  0.31827249063E-03  0.17130000000E+03  0.17130000000E+03 0.  1.
      622    1    1    2    0    0  0.75751951922E-03  0.72147865069E-03  0.39869107423E+01  0.39871115311E+01  0.40000000000E-01 0. -1.
</event>
<event>
 5   0  0.7212170E+07  0.9118800E+02  0.7818608E-02  0.1180000E+00
       11   -1    0    0    0    0  0.00000000000E+00  0.00000000000E+00  0.39999999673E+01  0.40000000000E+01  0.51109989000E-03 0.  1.
     -623   -1    0    0    0    0  0.00000000000E+00  0.00000000000E+00  0.12525980253E-10  0.17130000000E+03  0.17130000000E+03 0. -1.
       11    1    1    2    0    0  0.46507887978E-02  0.25614691314E-02  0.12579612177E+00  0.12590915946E+00  0.51109989000E-03 0.  1.
     -623    1    1    2    0    0 -0.10902178289E-02  0.18786531240E-02  0.32370555798E-03  0.17130000001E+03  0.17130000000E+03 0. -1.
      622    1    1    2    0    0 -0.35605709686E-02 -0.44401222560E-02  0.38738801413E+01  0.38740908277E+01  0.40000000000E-01 0.  1.
</event>
<event>
 5   0  0.7212170E+07  0.9118800E+02  0.7818608E-02  0.1180000E+00
       11   -1    0    0    0    0  0.00000000000E+00  0.00000000000E+00  0.39999999673E+01  0.40000000000E+01  0.51109989000E-03 0. -1.
     -623   -1    0    0    0    0  0.00000000000E+00  0.00000000000E+00  0.12525980253E-10  0.17130000000E+03  0.17130000000E+03 0.  1.
       11    1    1    2    0    0  0.89944434576E-02  0.48307251401E-02  0.21205415161E+00  0.21230040122E+00  0.51109989000E-03 0. -1.
     -623    1    1    2    0    0 -0.38377590243E-02 -0.11322749983E-01  0.46692504162E-03  0.17130000042E+03  0.17130000000E+03 0.  1.
      622    1    1    2    0    0 -0.51566844330E-02  0.64920248436E-02  0.37874788911E+01  0.37876991813E+01  0.40000000000E-01 0. -1.
</event>
<event>
 5   0  0.7212170E+07  0.9118800E+02  0.7818608E-02  0.1180000E+00
       11   -1    0    0    0    0  0.00000000000E+00  0.00000000000E+00  0.39999999673E+01  0.40000000000E+01  0.51109989000E-03 0.  1.
     -623   -1    0    0    0    0  0.00000000000E+00  0.00000000000E+00  0.12525980253E-10  0.17130000000E+03  0.17130000000E+03 0.  1.
       11    1    1    2    0    0  0.40696220883E-02 -0.29603652323E-02  0.26477858635E-01  0.26956702455E-01  0.51109989000E-03 0.  1.
     -623    1    1    2    0    0 -0.95404828551E-02  0.12560406347E-01  0.69626662750E-03  0.17130000073E+03  0.17130000000E+03 0.  1.
      622    1    1    2    0    0  0.54708607673E-02 -0.96000411150E-02  0.39728258423E+01  0.39730425702E+01  0.40000000000E-01 0.  1.
</event>
<event>
 5   0  0.7212170E+07  0.9118800E+02  0.7818608E-02  0.1180000E+00
       11   -1    0    0    0    0  0.00000000000E+00  0.00000000000E+00  0.39999999673E+01  0.40000000000E+01  0.51109989000E-03 0.  1.
     -623   -1    0    0    0    0  0.00000000000E+00  0.00000000000E+00  0.12525980253E-10  0.17130000000E+03  0.17130000000E+03 0.  1.
       11    1    1    2    0    0 -0.15441015208E-02 -0.74456802093E-02  0.13085968629E-01  0.15143520111E-01  0.51109989000E-03 0.  1.
     -623    1    1    2    0    0 -0.20578227833E-02  0.36405350809E-02  0.22617947728E-02  0.17130000007E+03  0.17130000000E+03 0.  1.
      622    1    1    2    0    0  0.36019243043E-02  0.38051451282E-02  0.39846522042E+01  0.39848564141E+01  0.40000000000E-01 0.  1.
</event>
<event>
 5   0  0.7212170E+07  0.9118800E+02  0.7818608E-02  0.1180000E+00
       11   -1    0    0    0    0  0.00000000000E+00  0.00000000000E+00  0.39999999673E+01  0.40000000000E+01  0.51109989000E-03 0. -1.
     -623   -1    0    0    0    0  0.00000000000E+00  0.00000000000E+00  0.12525980253E-10  0.17130000000E+03  0.17130000000E+03 0.  1.
       11    1    1    2    0    0 -0.53656914905E-01 -0.28077661397E-01  0.73438918133E+00  0.73688204650E+00  0.51109989000E-03 0. -1.
     -623    1    1    2    0    0  0.12754220850E-01  0.41754890305E-02  0.30824992038E-02  0.17130000055E+03  0.17130000000E+03 0.  1.
      622    1    1    2    0    0  0.40902694055E-01  0.23902172367E-01  0.32625282869E+01  0.32631174001E+01  0.40000000000E-01 0. -1.
</event>
<event>
 5   0  0.7212170E+07  0.9118800E+02  0.7818608E-02  0.1180000E+00
       11   -1    0    0    0    0  0.00000000000E+00  0.00000000000E+00  0.39999999673E+01  0.40000000000E+01  0.51109989000E-03 0.  1.
     -623   -1    0    0    0    0  0.00000000000E+00  0.00000000000E+00  0.12525980253E-10  0.17130000000E+03  0.17130000000E+03 0. -1.
       11    1    1    2    0    0 -0.32882816115E-03  0.73887975036E-03  0.55114403948E-02  0.55938599882E-02  0.51109989000E-03 0.  1.
     -623    1    1    2    0    0 -0.12384970746E-02 -0.11220091113E-02  0.28300632923E-03  0.17130000001E+03  0.17130000000E+03 0. -1.
      622    1    1    2    0    0  0.15673252360E-02  0.38312936119E-03  0.39942055216E+01  0.39944061326E+01  0.40000000000E-01 0.  1.
</event>
<event>
 5   0  0.7212170E+07  0.9118800E+02  0.7818608E-02  0.1180000E+00
       11   -1    0    0    0    0  0.00000000000E+00  0.00000000000E+00  0.39999999673E+01  0.40000000000E+01  0.51109989000E-03 0. -1.
     -623   -1    0    0    0    0  0.00000000000E+00  0.00000000000E+00  0.12525980253E-10  0.17130000000E+03  0.17130000000E+03 0. -1.
       11    1    1    2    0    0 -0.25398996245E-01 -0.75469448764E-02  0.46410968638E+00  0.46486570922E+00  0.51109989000E-03 0. -1.
     -623    1    1    2    0    0  0.18660187680E-01 -0.13562193049E-01  0.10533056689E-02  0.17130000156E+03  0.17130000000E+03 0. -1.
      622    1    1    2    0    0  0.67388085650E-02  0.21109137926E-01  0.35348369754E+01  0.35351327344E+01  0.40000000000E-01 0. -1.
</event>
<event>
 5   0  0.7212170E+07  0.9118800E+02  0.7818608E-02  0.1180000E+00
       11   -1    0    0    0    0  0.00000000000E+00  0.00000000000E+00  0.39999999673E+01  0.40000000000E+01  0.51109989000E-03 0. -1.
     -623   -1    0    0    0    0  0.00000000000E+00  0.00000000000E+00  0.12525980253E-10  0.17130000000E+03  0.17130000000E+03 0. -1.
       11    1    1    2    0    0 -0.71536383597E-03  0.98853898513E-03  0.27540694122E-02  0.30553356882E-02  0.51109989000E-03 0. -1.
     -623    1    1    2    0    0 -0.93287816045E-03 -0.12454246133E-02  0.50174745373E-03  0.17130000001E+03  0.17130000000E+03 0. -1.
      622    1    1    2    0    0  0.16482419965E-02  0.25688562828E-03  0.39967441508E+01  0.39969446569E+01  0.40000000000E-01 0. -1.
</event>
<event>
 5   0  0.7212170E+07  0.9118800E+02  0.7818608E-02  0.1180000E+00
       11   -1    0    0    0    0  0.00000000000E+00  0.00000000000E+00  0.39999999673E+01  0.40000000000E+01  0.51109989000E-03 0. -1.
     -623   -1    0    0    0    0  0.00000000000E+00  0.00000000000E+00  0.12525980253E-10  0.17130000000E+03  0.17130000000E+03 0. -1.
       11    1    1    2    0    0  0.18662083993E-01 -0.25384025099E-01  0.16629657796E+01  0.16632642807E+01  0.51109989000E-03 0. -1.
     -623    1    1    2    0    0 -0.16560614339E-01 -0.16595659671E-01  0.10205749170E-02  0.17130000161E+03  0.17130000000E+03 0. -1.
      622    1    1    2    0    0 -0.21014696545E-02  0.41979684770E-01  0.23360136128E+01  0.23367341118E+01  0.40000000000E-01 0.  0.
</event>
<event>
 5   0  0.7212170E+07  0.9118800E+02  0.7818608E-02  0.1180000E+00
       11   -1    0    0    0    0  0.00000000000E+00  0.00000000000E+00  0.39999999673E+01  0.40000000000E+01  0.51109989000E-03 0.  1.
     -623   -1    0    0    0    0  0.00000000000E+00  0.00000000000E+00  0.12525980253E-10  0.17130000000E+03  0.17130000000E+03 0. -1.
       11    1    1    2    0    0 -0.11101930503E-02 -0.90808568325E-03  0.57348527687E-03  0.16270392366E-02  0.51109989000E-03 0.  1.
     -623    1    1    2    0    0 -0.21684585498E-03  0.92877921245E-03  0.12538352384E-02  0.17130000001E+03  0.17130000000E+03 0. -1.
      622    1    1    2    0    0  0.13270389053E-02 -0.20693529215E-04  0.39981726469E+01  0.39983729536E+01  0.40000000000E-01 0.  1.
</event>
<event>
 5   0  0.7212170E+07  0.9118800E+02  0.7818608E-02  0.1180000E+00
       11   -1    0    0    0    0  0.00000000000E+00  0.00000000000E+00  0.39999999673E+01  0.40000000000E+01  0.51109989000E-03 0. -1.
     -623   -1    0    0    0    0  0.00000000000E+00  0.00000000000E+00  0.12525980253E-10  0.17130000000E+03  0.17130000000E+03 0. -1.
       11    1    1    2    0    0 -0.90738082435E-03 -0.45391576042E-02  0.61128186563E+00  0.61129960557E+00  0.51109989000E-03 0. -1.
     -623    1    1    2    0    0  0.88091189628E-04 -0.48960099299E-03  0.25762573316E-03  0.17130000000E+03  0.17130000000E+03 0. -1.
      622    1    1    2    0    0  0.81928963474E-03  0.50287585971E-02  0.33884604754E+01  0.33887003929E+01  0.40000000000E-01 0. -1.
</event>
<event>
 5   0  0.7212170E+07  0.9118800E+02  0.7818608E-02  0.1180000E+00
       11   -1    0    0    0    0  0.00000000000E+00  0.00000000000E+00  0.39999999673E+01  0.40000000000E+01  0.51109989000E-03 0.  1.
     -623   -1    0    0    0    0  0.00000000000E+00  0.00000000000E+00  0.12525980253E-10  0.17130000000E+03  0.17130000000E+03 0.  1.
       11    1    1    2    0    0  0.35703392324E-02  0.61989187852E-03  0.10030303825E-01  0.10677069172E-01  0.51109989000E-03 0.  1.
     -623    1    1    2    0    0 -0.25883034307E-02  0.26857290992E-02  0.84880623696E-03  0.17130000004E+03  0.17130000000E+03 0.  1.
      622    1    1    2    0    0 -0.98203580183E-03 -0.33056209775E-02  0.39891208570E+01  0.39893228878E+01  0.40000000000E-01 0.  1.
</event>
<event>
 5   0  0.7212170E+07  0.9118800E+02  0.7818608E-02  0.1180000E+00
       11   -1    0    0    0    0  0.00000000000E+00  0.00000000000E+00  0.39999999673E+01  0.40000000000E+01  0.51109989000E-03 0. -1.
     -623   -1    0    0    0    0  0.00000000000E+00  0.00000000000E+00  0.12525980253E-10  0.17130000000E+03  0.17130000000E+03 0.  1.
       11    1    1    2    0    0  0.80135569099E-02  0.67342663353E-02  0.33098510019E+00  0.33115097041E+00  0.51109989000E-03 0. -1.
     -623    1    1    2    0    0 -0.21900310173E-03  0.20444821281E-03  0.39873902100E-03  0.17130000000E+03  0.17130000000E+03 0.  1.
      622    1    1    2    0    0 -0.77945538081E-02 -0.69387145481E-02  0.36686161285E+01  0.36688490292E+01  0.40000000000E-01 0. -1.
</event>
<event>
 5   0  0.7212170E+07  0.9118800E+02  0.7818608E-02  0.1180000E+00
       11   -1    0    0    0    0  0.00000000000E+00  0.00000000000E+00  0.39999999673E+01  0.40000000000E+01  0.51109989000E-03 0.  1.
     -623   -1    0    0    0    0  0.00000000000E+00  0.00000000000E+00  0.12525980253E-10  0.17130000000E+03  0.17130000000E+03 0.  1.
       11    1    1    2    0    0 -0.24872684793E-01  0.50328036237E-02  0.49617530427E+00  0.49682408692E+00  0.51109989000E-03 0.  1.
     -623    1    1    2    0    0  0.95132309413E-02  0.28493353438E-02  0.91995373112E-03  0.17130000029E+03  0.17130000000E+03 0.  1.
      622    1    1    2    0    0  0.15359453851E-01 -0.78821389676E-02  0.35029047095E+01  0.35031756229E+01  0.40000000000E-01 0.  0.
</event>
<event>
 5   0  0.7212170E+07  0.9118800E+02  0.7818608E-02  0.1180000E+00
       11   -1    0    0    0    0  0.00000000000E+00  0.00000000000E+00  0.39999999673E+01  0.40000000000E+01  0.51109989000E-03 0. -1.
     -623   -1    0    0    0    0  0.00000000000E+00  0.00000000000E+00  0.12525980253E-10  0.17130000000E+03  0.17130000000E+03 0.  1.
       11    1    1    2    0    0 -0.66671436610E-03  0.23541757523E-02  0.26857061449E+00  0.26858224596E+00  0.51109989000E-03 0. -1.
     -623    1    1    2    0    0  0.22118937600E-03  0.79215614732E-03  0.22735600004E-03  0.17130000000E+03  0.17130000000E+03 0.  1.
      622    1    1    2    0    0  0.44552499011E-03 -0.31463318996E-02  0.37312019967E+01  0.37314177517E+01  0.40000000000E-01 0. -1.
</event>
<event>
 5   0  0.7212170E+07  0.9118800E+02  0.7818608E-02  0.1180000E+00
       11   -1    0    0    0    0  0.00000000000E+00  0.00000000000E+00  0.39999999673E+01  0.40000000000E+01  0.51109989000E-03 0. -1.
     -623   -1    0    0    0    0  0.00000000000E+00  0.00000000000E+00  0.12525980253E-10  0.17130000000E+03  0.17130000000E+03 0. -1.
       11    1    1    2    0    0 -0.10731948892E-01  0.32480177699E-02  0.41511500477E+00  0.41526672484E+00  0.51109989000E-03 0. -1.
     -623    1    1    2    0    0  0.87415666702E-02 -0.55654213095E-02  0.37647859335E-03  0.17130000031E+03  0.17130000000E+03 0. -1.
      622    1    1    2    0    0  0.19903822227E-02  0.23174035389E-02  0.35845084835E+01  0.35847329608E+01  0.40000000000E-01 0. -1.
</event>
<event>
 5   0  0.7212170E+07  0.9118800E+02  0.7818608E-02  0.1180000E+00
       11   -1    0    0    0    0  0.00000000000E+00  0.00000000000E+00  0.39999999673E+01  0.40000000000E+01  0.51109989000E-03 0.  1.
     -623   -1    0    0    0    0  0.00000000000E+00  0.00000000000E+00  0.12525980253E-10  0.17130000000E+03  0.17130000000E+03 0.  1.
       11    1    1    2    0    0  0.91421662849E-02 -0.81062387982E-02  0.12019858460E+01  0.12020480546E+01  0.51109989000E-03 0.  1.
     -623    1    1    2    0    0  0.10923139848E-02  0.22931971554E-02  0.37289254119E-03  0.17130000002E+03  0.17130000000E+03 0.  1.
      622    1    1    2    0    0 -0.10234480270E-01  0.58130416429E-02  0.27976412285E+01  0.27979519259E+01  0.40000000000E-01 0.  1.
</event>
<event>
 5   0  0.7212170E+07  0.9118800E+02  0.7818608E-02  0.1180000E+00
       11   -1    0    0    0    0  0.00000000000E+00  0.00000000000E+00  0.39999999673E+01  0.40000000000E+01  0.51109989000E-03 0.  1.
     -623   -1    0    0    0    0  0.00000000000E+00  0.00000000000E+00  0.12525980253E-10  0.17130000000E+03  0.17130000000E+03 0.  1.
       11    1    1    2    0    0 -0.12457542081E-02  0.34785408381E-02  0.24040535757E-01  0.24328188023E-01  0.51109989000E-03 0.  1.
     -623    1    1    2    0    0  0.29933956402E-02 -0.30560634845E-02  0.48930927368E-03  0.17130000005E+03  0.17130000000E+03 0.  1.
      622    1    1    2    0    0 -0.17476414319E-02 -0.42247735383E-03  0.39754701220E+01  0.39756717576E+01  0.40000000000E-01 0.  1.
</event>
<event>
 5   0  0.7212170E+07  0.9118800E+02  0.7818608E-02  0.1180000E+00
       11   -1    0    0    0    0  0.00000000000E+00  0.00000000000E+00  0.39999999673E+01  0.40000000000E+01  0.51109989000E-03 0.  1.
     -623   -1    0    0    0    0  0.00000000000E+00  0.00000000000E+00  0.12525980253E-10  0.17130000000E+03  0.17130000000E+03 0.  1.
       11    1    1    2    0    0 -0.89033086817E-03  0.40459124954E-02  0.19780469504E+00  0.19784873186E+00  0.51109989000E-03 0.  1.
     -623    1    1    2    0    0 -0.12412327192E-02 -0.64033339553E-03  0.25654589299E-03  0.17130000001E+03  0.17130000000E+03 0.  1.
      622    1    1    2    0    0  0.21315635880E-02 -0.34055790996E-02  0.38019387285E+01  0.38021512643E+01  0.40000000000E-01 0.  1.
</event>
<event>
 5   0  0.7212170E+07  0.9118800E+02  0.7818608E-02  0.1180000E+00
       11   -1    0    0    0    0  0.00000000000E+00  0.00000000000E+00  0.39999999673E+01  0.40000000000E+01  0.51109989000E-03 0.  1.
     -623   -1    0    0    0    0  0.00000000000E+00  0.00000000000E+00  0.12525980253E-10  0.17130000000E+03  0.17130000000E+03 0. -1.
       11    1    1    2    0    0 -0.12041853163E-01  0.34010025456E-02  0.47242113390E+00  0.47258709465E+00  0.51109989000E-03 0.  1.
     -623    1    1    2    0    0  0.15790132770E-01 -0.11521357166E-01  0.40518531886E-03  0.17130000112E+03  0.17130000000E+03 0. -1.
      622    1    1    2    0    0 -0.37482796125E-02  0.81203546248E-02  0.35271736495E+01  0.35274117911E+01  0.40000000000E-01 0.  1.
</event>
<event>
 5   0  0.7212170E+07  0.9118800E+02  0.7818608E-02  0.1180000E+00
       11   -1    0    0    0    0  0.00000000000E+00  0.00000000000E+00  0.39999999673E+01  0.40000000000E+01  0.51109989000E-03 0.  1.
     -623   -1    0    0    0    0  0.00000000000E+00  0.00000000000E+00  0.12525980253E-10  0.17130000000E+03  0.17130000000E+03 0.  1.
       11    1    1    2    0    0  0.10873723049E-02  0.17664713311E-02  0.12954279063E-01  0.13129256210E-01  0.51109989000E-03 0.  1.
     -623    1    1    2    0    0  0.23731125276E-03 -0.37581056545E-04  0.37620372668E-03  0.17130000000E+03  0.17130000000E+03 0.  1.
      622    1    1    2    0    0 -0.13246835577E-02 -0.17288902746E-02  0.39866694861E+01  0.39868707448E+01  0.40000000000E-01 0.  1.
</event>
<event>
 5   0  0.7212170E+07  0.9118800E+02  0.7818608E-02  0.1180000E+00
       11   -1    0    0    0    0  0.00000000000E+00  0.00000000000E+00  0.39999999673E+01  0.40000000000E+01  0.51109989000E-03 0. -1.
     -623   -1    0    0    0    0  0.00000000000E+00  0.00000000000E+00  0.12525980253E-10  0.17130000000E+03  0.17130000000E+03 0. -1.
       11    1    1    2    0    0 -0.70799759891E-02 -0.18372942062E-02  0.12235301381E+00  0.12257252107E+00  0.51109989000E-03 0. -1.
     -623    1    1    2    0    0  0.74670528307E-02  0.17157976813E-02  0.42599557593E-03  0.17130000017E+03  0.17130000000E+03 0. -1.
      622    1    1    2    0    0 -0.38707684324E-03  0.12149652452E-03  0.38772209589E+01  0.38774273080E+01  0.40000000000E-01 0. -1.
</event>
<event>
 5   0  0.7212170E+07  0.9118800E+02  0.7818608E-02  0.1180000E+00
       11   -1    0    0    0    0  0.00000000000E+00  0.00000000000E+00  0.39999999673E+01  0.40000000000E+01  0.51109989000E-03 0. -1.
     -623   -1    0    0    0    0  0.00000000000E+00  0.00000000000E+00  0.12525980253E-10  0.17130000000E+03  0.17130000000E+03 0.  1.
       11    1    1    2    0    0 -0.70482825236E-02  0.19838766172E-01  0.16152536520E+01  0.16153909361E+01  0.51109989000E-03 0. -1.
     -623    1    1    2    0    0  0.59617659221E-02 -0.30715955234E-01  0.50067745557E-03  0.17130000286E+03  0.17130000000E+03 0.  1.
      622    1    1    2    0    0  0.10865166001E-02  0.10877189069E-01  0.23842456388E+01  0.23846062064E+01  0.40000000000E-01 0. -1.
</event>
<event>
 5   0  0.7212170E+07  0.9118800E+02  0.7818608E-02  0.1180000E+00
       11   -1    0    0    0    0  0.00000000000E+00  0.00000000000E+00  0.39999999673E+01  0.40000000000E+01  0.51109989000E-03 0.  1.
     -623   -1    0    0    0    0  0.00000000000E+00  0.00000000000E+00  0.12525980253E-10  0.17130000000E+03  0.17130000000E+03 0.  1.
       11    1    1    2    0    0  0.50474546190E-02  0.43054553337E-02  0.86029756607E-01  0.86286696475E-01  0.51109989000E-03 0.  1.
     -623    1    1    2    0    0 -0.15296241781E-02 -0.32551428704E-03  0.46493462202E-03  0.17130000001E+03  0.17130000000E+03 0.  1.
      622    1    1    2    0    0 -0.35178304408E-02 -0.39799410466E-02  0.39135052763E+01  0.39137132959E+01  0.40000000000E-01 0.  1.
</event>
<event>
 5   0  0.7212170E+07  0.9118800E+02  0.7818608E-02  0.1180000E+00
       11   -1    0    0    0    0  0.00000000000E+00  0.00000000000E+00  0.39999999673E+01  0.40000000000E+01  0.51109989000E-03 0. -1.
     -623   -1    0    0    0    0  0.00000000000E+00  0.00000000000E+00  0.12525980253E-10  0.17130000000E+03  0.17130000000E+03 0. -1.
       11    1    1    2    0    0  0.43671602157E-03  0.68907099284E-03  0.10939308131E-02  0.14572053520E-02  0.51109989000E-03 0. -1.
     -623    1    1    2    0    0  0.10692478175E-02  0.26141081574E-02  0.56499205580E-03  0.17130000002E+03  0.17130000000E+03 0. -1.
      622    1    1    2    0    0 -0.15059638390E-02 -0.33031791500E-02  0.39983410442E+01  0.39985427701E+01  0.40000000000E-01 0. -1.
</event>
<event>
 5   0  0.7212170E+07  0.9118800E+02  0.7818608E-02  0.1180000E+00
       11   -1    0    0    0    0  0.00000000000E+00  0.00000000000E+00  0.39999999673E+01  0.40000000000E+01  0.51109989000E-03 0.  1.
     -623   -1    0    0    0    0  0.00000000000E+00  0.00000000000E+00  0.12525980253E-10  0.17130000000E+03  0.17130000000E+03 0.  1.
       11    1    1    2    0    0  0.26311492660E-02 -0.92840041866E-02  0.12157695158E+01  0.12158079175E+01  0.51109989000E-03 0.  1.
     -623    1    1    2    0    0  0.29762102149E-02 -0.30495811544E-02  0.35874209039E-03  0.17130000005E+03  0.17130000000E+03 0.  1.
      622    1    1    2    0    0 -0.56073594820E-02  0.12333585342E-01  0.27838717109E+01  0.27841920304E+01  0.40000000000E-01 0.  1.
</event>
<event>
 5   0  0.7212170E+07  0.9118800E+02  0.7818608E-02  0.1180000E+00
       11   -1    0    0    0    0  0.00000000000E+00  0.00000000000E+00  0.39999999673E+01  0.40000000000E+01  0.51109989000E-03 0.  1.
     -623   -1    0    0    0    0  0.00000000000E+00  0.00000000000E+00  0.12525980253E-10  0.17130000000E+03  0.17130000000E+03 0. -1.
       11    1    1    2    0    0 -0.42768792638E-01 -0.25353847124E-01  0.21872277360E+01  0.21877928187E+01  0.51109989000E-03 0.  1.
     -623    1    1    2    0    0  0.39520547763E-02 -0.68267220957E-02  0.17084967963E-02  0.17130000019E+03  0.17130000000E+03 0. -1.
      622    1    1    2    0    0  0.38816737862E-01  0.32180569220E-01  0.18110637346E+01  0.18122069912E+01  0.40000000000E-01 0.  1.
</event>
<event>
 5   0  0.7212170E+07  0.9118800E+02  0.7818608E-02  0.1180000E+00
       11   -1    0    0    0    0  0.00000000000E+00  0.00000000000E+00  0.39999999673E+01  0.40000000000E+01  0.51109989000E-03 0.  1.
     -623   -1    0    0    0    0  0.00000000000E+00  0.00000000000E+00  0.12525980253E-10  0.17130000000E+03  0.17130000000E+03 0.  1.
       11    1    1    2    0    0 -0.17307088480E-02 -0.18001217742E-03  0.41604141750E-02  0.45385048976E-02  0.51109989000E-03 0.  1.
     -623    1    1    2    0    0  0.54396772710E-02  0.72404911189E-04  0.58010069900E-03  0.17130000009E+03  0.17130000000E+03 0.  1.
      622    1    1    2    0    0 -0.37089684222E-02  0.10760726624E-03  0.39952594518E+01  0.39954614071E+01  0.40000000000E-01 0.  1.
</event>
<event>
 5   0  0.7212170E+07  0.9118800E+02  0.7818608E-02  0.1180000E+00
       11   -1    0    0    0    0  0.00000000000E+00  0.00000000000E+00  0.39999999673E+01  0.40000000000E+01  0.51109989000E-03 0. -1.
     -623   -1    0    0    0    0  0.00000000000E+00  0.00000000000E+00  0.12525980253E-10  0.17130000000E+03  0.17130000000E+03 0.  1.
       11    1    1    2    0    0  0.95915779985E-02 -0.14822175165E-01  0.13333897255E+00  0.13450367307E+00  0.51109989000E-03 0. -1.
     -623    1    1    2    0    0 -0.25943286387E-01  0.14247807857E-01  0.14088255792E-02  0.17130000256E+03  0.17130000000E+03 0.  1.
      622    1    1    2    0    0  0.16351708390E-01  0.57436730680E-03  0.38652521694E+01  0.38654937643E+01  0.40000000000E-01 0. -1.
</event>
<event>
 5   0  0.7212170E+07  0.9118800E+02  0.7818608E-02  0.1180000E+00
       11   -1    0    0    0    0  0.00000000000E+00  0.00000000000E+00  0.39999999673E+01  0.40000000000E+01  0.51109989000E-03 0.  1.
     -623   -1    0    0    0    0  0.00000000000E+00  0.00000000000E+00  0.12525980253E-10  0.17130000000E+03  0.17130000000E+03 0.  1.
       11    1    1    2    0    0 -0.17887460048E-02 -0.18721896195E-02  0.24948914069E-01  0.25088129515E-01  0.51109989000E-03 0.  1.
     -623    1    1    2    0    0  0.54584128850E-03 -0.17331668138E-03  0.34117219227E-03  0.17130000000E+03  0.17130000000E+03 0.  1.
      622    1    1    2    0    0  0.12429047162E-02  0.20455063009E-02  0.39747098812E+01  0.39749118693E+01  0.40000000000E-01 0.  1.
</event>
<event>
 5   0  0.7212170E+07  0.9118800E+02  0.7818608E-02  0.1180000E+00
       11   -1    0    0    0    0  0.00000000000E+00  0.00000000000E+00  0.39999999673E+01  0.40000000000E+01  0.51109989000E-03 0.  1.
     -623   -1    0    0    0    0  0.00000000000E+00  0.00000000000E+00  0.12525980253E-10  0.17130000000E+03  0.17130000000E+03 0. -1.
       11    1    1    2    0    0  0.11044525391E-01 -0.24482900389E-01  0.15249524657E+01  0.15251890630E+01  0.51109989000E-03 0.  1.
     -623    1    1    2    0    0 -0.11694837846E-04  0.10463076886E-02  0.69543415155E-03  0.17130000000E+03  0.17130000000E+03 0. -1.
      622    1    1    2    0    0 -0.11032830554E-01  0.23436592701E-01  0.24743520673E+01  0.24748109322E+01  0.40000000000E-01 0.  0.
</event>
<event>
 5   0  0.7212170E+07  0.9118800E+02  0.7818608E-02  0.1180000E+00
       11   -1    0    0    0    0  0.00000000000E+00  0.00000000000E+00  0.39999999673E+01  0.40000000000E+01  0.51109989000E-03 0.  1.
     -623   -1    0    0    0    0  0.00000000000E+00  0.00000000000E+00  0.12525980253E-10  0.17130000000E+03  0.17130000000E+03 0. -1.
       11    1    1    2    0    0 -0.19343020075E-03  0.17015434861E-01  0.15634143697E+01  0.15635070563E+01  0.51109989000E-03 0.  1.
     -623    1    1    2    0    0  0.43310555646E-03  0.26349486616E-04  0.48063707989E-03  0.17130000000E+03  0.17130000000E+03 0. -1.
      622    1    1    2    0    0 -0.23967535578E-03 -0.17041784347E-01  0.24361049611E+01  0.24364929431E+01  0.40000000000E-01 0.  1.
</event>
<event>
 5   0  0.7212170E+07  0.9118800E+02  0.7818608E-02  0.1180000E+00
       11   -1    0    0    0    0  0.00000000000E+00  0.00000000000E+00  0.39999999673E+01  0.40000000000E+01  0.51109989000E-03 0. -1.
     -623   -1    0    0    0    0  0.00000000000E+00  0.00000000000E+00  0.12525980253E-10  0.17130000000E+03  0.17130000000E+03 0.  1.
       11    1    1    2    0    0 -0.85678938469E-03  0.24490495425E-02  0.73795452394E-01  0.73842819210E-01  0.51109989000E-03 0. -1.
     -623    1    1    2    0    0  0.11508897413E-03 -0.79267333629E-04  0.25188657346E-03  0.17130000000E+03  0.17130000000E+03 0.  1.
      622    1    1    2    0    0  0.74170041057E-03 -0.23697822088E-02  0.39259526279E+01  0.39261571801E+01  0.40000000000E-01 0. -1.
</event>
<event>
 5   0  0.7212170E+07  0.9118800E+02  0.7818608E-02  0.1180000E+00
       11   -1    0    0    0    0  0.00000000000E+00  0.00000000000E+00  0.39999999673E+01  0.40000000000E+01  0.51109989000E-03 0. -1.
     -623   -1    0    0    0    0  0.00000000000E+00  0.00000000000E+00  0.12525980253E-10  0.17130000000E+03  0.17130000000E+03 0.  1.
       11    1    1    2    0    0 -0.18592452976E-02  0.74978261643E-03  0.44074849622E-02  0.48688924653E-02  0.51109989000E-03 0. -1.
     -623    1    1    2    0    0  0.16590241222E-02  0.33391284826E-03  0.66178526397E-03  0.17130000001E+03  0.17130000000E+03 0.  1.
      622    1    1    2    0    0  0.20022117535E-03 -0.10836954647E-02  0.39949306972E+01  0.39951310980E+01  0.40000000000E-01 0. -1.
</event>
<event>
 5   0  0.7212170E+07  0.9118800E+02  0.7818608E-02  0.1180000E+00
       11   -1    0    0    0    0  0.00000000000E+00  0.00000000000E+00  0.39999999673E+01  0.40000000000E+01  0.51109989000E-03 0. -1.
     -623   -1    0    0    0    0  0.00000000000E+00  0.00000000000E+00  0.12525980253E-10  0.17130000000E+03  0.17130000000E+03 0. -1.
       11    1    1    2    0    0  0.78335983921E-02 -0.17391466228E-01  0.16067946776E+00  0.16180846994E+00  0.51109989000E-03 0. -1.
     -623    1    1    2    0    0 -0.34608333202E-02 -0.51495503749E-02  0.14062097693E-02  0.17130000012E+03  0.17130000000E+03 0. -1.
      622    1    1    2    0    0 -0.43727650720E-02  0.22541016603E-01  0.38379142898E+01  0.38381914119E+01  0.40000000000E-01 0. -1.
</event>
<event>
 5   0  0.7212170E+07  0.9118800E+02  0.7818608E-02  0.1180000E+00
       11   -1    0    0    0    0  0.00000000000E+00  0.00000000000E+00  0.39999999673E+01  0.40000000000E+01  0.51109989000E-03 0. -1.
     -623   -1    0    0    0    0  0.00000000000E+00  0.00000000000E+00  0.12525980253E-10  0.17130000000E+03  0.17130000000E+03 0.  1.
       11    1    1    2    0    0  0.24479256544E-02  0.32301129251E-04  0.26662400252E-01  0.26779436023E-01  0.51109989000E-03 0. -1.
     -623    1    1    2    0    0 -0.63267985976E-02 -0.10571491407E-02  0.32050229370E-03  0.17130000012E+03  0.17130000000E+03 0.  1.
      622    1    1    2    0    0  0.38788729438E-02  0.10248480115E-02  0.39730170652E+01  0.39732204439E+01  0.40000000000E-01 0. -1.
</event>
<event>
 5   0  0.7212170E+07  0.9118800E+02  0.7818608E-02  0.1180000E+00
       11   -1    0    0    0    0  0.00000000000E+00  0.00000000000E+00  0.39999999673E+01  0.40000000000E+01  0.51109989000E-03 0. -1.
     -623   -1    0    0    0    0  0.00000000000E+00  0.00000000000E+00  0.12525980253E-10  0.17130000000E+03  0.17130000000E+03 0.  1.
       11    1    1    2    0    0 -0.35635780211E-02  0.86912557646E-02  0.15705374091E+01  0.15705655833E+01  0.51109989000E-03 0. -1.
     -623    1    1    2    0    0  0.22575089794E-02 -0.35539871293E-02  0.36329430475E-03  0.17130000005E+03  0.17130000000E+03 0.  1.
      622    1    1    2    0    0  0.13060690414E-02 -0.51372686349E-02  0.24290992643E+01  0.24294343649E+01  0.40000000000E-01 0. -1.
</event>
<event>
 5   0  0.7212170E+07  0.9118800E+02  0.7818608E-02  0.1180000E+00
       11   -1    0    0    0    0  0.00000000000E+00  0.00000000000E+00  0.39999999673E+01  0.40000000000E+01  0.51109989000E-03 0. -1.
     -623   -1    0    0    0    0  0.00000000000E+00  0.00000000000E+00  0.12525980253E-10  0.17130000000E+03  0.17130000000E+03 0. -1.
       11    1    1    2    0    0 -0.10712043775E-01 -0.32655470351E-01  0.64587112341E+00  0.64678504691E+00  0.51109989000E-03 0. -1.
     -623    1    1    2    0    0 -0.17330080210E-02  0.17840229686E-03  0.13328781643E-02  0.17130000001E+03  0.17130000000E+03 0. -1.
      622    1    1    2    0    0  0.12445051796E-01  0.32477068055E-01  0.33527959661E+01  0.33532149394E+01  0.40000000000E-01 0. -1.
</event>
<event>
 5   0  0.7212170E+07  0.9118800E+02  0.7818608E-02  0.1180000E+00
       11   -1    0    0    0    0  0.00000000000E+00  0.00000000000E+00  0.39999999673E+01  0.40000000000E+01  0.51109989000E-03 0. -1.
     -623   -1    0    0    0    0  0.00000000000E+00  0.00000000000E+00  0.12525980253E-10  0.17130000000E+03  0.17130000000E+03 0.  1.
       11    1    1    2    0    0 -0.10730515300E-01  0.25957135643E-01  0.26020450370E+01  0.26021966783E+01  0.51109989000E-03 0. -1.
     -623    1    1    2    0    0  0.59862489079E-02 -0.70481929783E-03  0.96042981002E-03  0.17130000011E+03  0.17130000000E+03 0.  1.
      622    1    1    2    0    0  0.47442663920E-02 -0.25252316345E-01  0.13969945006E+01  0.13978032130E+01  0.40000000000E-01 0. -1.
</event>
<event>
 5   0  0.7212170E+07  0.9118800E+02  0.7818608E-02  0.1180000E+00
       11   -1    0    0    0    0  0.00000000000E+00  0.00000000000E+00  0.39999999673E+01  0.40000000000E+01  0.51109989000E-03 0. -1.
     -623   -1    0    0    0    0  0.00000000000E+00  0.00000000000E+00  0.12525980253E-10  0.17130000000E+03  0.17130000000E+03 0.  1.
       11    1    1    2    0    0 -0.14896128893E-01 -0.16491677962E-01  0.22717379281E+01  0.22718466817E+01  0.51109989000E-03 0. -1.
     -623    1    1    2    0    0  0.23968454951E-02 -0.48230480127E-02  0.74849559859E-03  0.17130000009E+03  0.17130000000E+03 0.  1.
      622    1    1    2    0    0  0.12499283398E-01  0.21314725974E-01  0.17275135437E+01  0.17281532320E+01  0.40000000000E-01 0. -1.
</event>
<event>
 5   0  0.7212170E+07  0.9118800E+02  0.7818608E-02  0.1180000E+00
       11   -1    0    0    0    0  0.00000000000E+00  0.00000000000E+00  0.39999999673E+01  0.40000000000E+01  0.51109989000E-03 0. -1.
     -623   -1    0    0    0    0  0.00000000000E+00  0.00000000000E+00  0.12525980253E-10  0.17130000000E+03  0.17130000000E+03 0. -1.
       11    1    1    2    0    0  0.73685898766E-03  0.13965418194E-02  0.20578760749E+00  0.20579429999E+00  0.51109989000E-03 0. -1.
     -623    1    1    2    0    0 -0.28642493647E-03 -0.47033554660E-03  0.21765435859E-03  0.17130000000E+03  0.17130000000E+03 0. -1.
      622    1    1    2    0    0 -0.45043405116E-03 -0.92620627273E-03  0.37939947059E+01  0.37942056994E+01  0.40000000000E-01 0. -1.
</event>
<event>
 5   0  0.7212170E+07  0.9118800E+02  0.7818608E-02  0.1180000E+00
       11   -1    0    0    0    0  0.00000000000E+00  0.00000000000E+00  0.39999999673E+01  0.40000000000E+01  0.51109989000E-03 0.  1.
     -623   -1    0    0    0    0  0.00000000000E+00  0.00000000000E+00  0.12525980253E-10  0.17130000000E+03  0.17130000000E+03 0.  1.
       11    1    1    2    0    0 -0.12359737501E-01  0.28264210117E-01  0.83824971270E+00  0.83881730475E+00  0.51109989000E-03 0.  1.
     -623    1    1    2    0    0  0.61088464868E-02 -0.33340324967E-02  0.92527757712E-03  0.17130000014E+03  0.17130000000E+03 0.  1.
      622    1    1    2    0    0  0.62508910132E-02 -0.24930177619E-01  0.31608249777E+01  0.31611825520E+01  0.40000000000E-01 0.  1.
</event>
<event>
 5   0  0.7212170E+07  0.9118800E+02  0.7818608E-02  0.1180000E+00
       11   -1    0    0    0    0  0.00000000000E+00  0.00000000000E+00  0.39999999673E+01  0.40000000000E+01  0.51109989000E-03 0.  1.
     -623   -1    0    0    0    0  0.00000000000E+00  0.00000000000E+00  0.12525980253E-10  0.17130000000E+03  0.17130000000E+03 0. -1.
       11    1    1    2    0    0  0.17278026417E-02 -0.76524617458E-03  0.58997590066E-02  0.62160504430E-02  0.51109989000E-03 0.  1.
     -623    1    1    2    0    0 -0.43472318315E-03 -0.90714410192E-03  0.51713835601E-03  0.17130000000E+03  0.17130000000E+03 0. -1.
      622    1    1    2    0    0 -0.12930794585E-02  0.16723902766E-02  0.39935830703E+01  0.39937839461E+01  0.40000000000E-01 0.  1.
</event>
<event>
 5   0  0.7212170E+07  0.9118800E+02  0.7818608E-02  0.1180000E+00
       11   -1    0    0    0    0  0.00000000000E+00  0.00000000000E+00  0.39999999673E+01  0.40000000000E+01  0.51109989000E-03 0.  1.
     -623   -1    0    0    0    0  0.00000000000E+00  0.00000000000E+00  0.12525980253E-10  0.17130000000E+03  0.17130000000E+03 0. -1.
       11    1    1    2    0    0  0.21361001568E-02 -0.81313656512E-02  0.10677659440E+01  0.10677991639E+01  0.51109989000E-03 0.  1.
     -623    1    1    2    0    0 -0.71742319893E-02  0.50791143069E-02  0.31217584153E-03  0.17130000023E+03  0.17130000000E+03 0. -1.
      622    1    1    2    0    0  0.50381318338E-02  0.30522513434E-02  0.29319218482E+01  0.29322006110E+01  0.40000000000E-01 0.  1.
</event>
<event>
 5   0  0.7212170E+07  0.9118800E+02  0.7818608E-02  0.1180000E+00
       11   -1    0    0    0    0  0.00000000000E+00  0.00000000000E+00  0.39999999673E+01  0.40000000000E+01  0.51109989000E-03 0.  1.
     -623   -1    0    0    0    0  0.00000000000E+00  0.00000000000E+00  0.12525980253E-10  0.17130000000E+03  0.17130000000E+03 0.  1.
       11    1    1    2    0    0 -0.37420137378E-02  0.88660741607E-02  0.72611303163E-01  0.73248020505E-01  0.51109989000E-03 0.  1.
     -623    1    1    2    0    0  0.12847284131E-02 -0.14113674385E-02  0.84827887450E-03  0.17130000001E+03  0.17130000000E+03 0.  1.
      622    1    1    2    0    0  0.24572853249E-02 -0.74547067223E-02  0.39265403849E+01  0.39267519664E+01  0.40000000000E-01 0.  1.
</event>
<event>
 5   0  0.7212170E+07  0.9118800E+02  0.7818608E-02  0.1180000E+00
       11   -1    0    0    0    0  0.00000000000E+00  0.00000000000E+00  0.39999999673E+01  0.40000000000E+01  0.51109989000E-03 0.  1.
     -623   -1    0    0    0    0  0.00000000000E+00  0.00000000000E+00  0.12525980253E-10  0.17130000000E+03  0.17130000000E+03 0. -1.
       11    1    1    2    0    0 -0.66525764073E-02 -0.13304936578E-02  0.55915596939E-02  0.88064606475E-02  0.51109989000E-03 0.  1.
     -623    1    1    2    0    0  0.62250434662E-02  0.43703573135E-02  0.34166981883E-02  0.17130000020E+03  0.17130000000E+03 0. -1.
      622    1    1    2    0    0  0.42753294114E-03 -0.30398636557E-02  0.39909917094E+01  0.39911933364E+01  0.40000000000E-01 0.  1.
</event>
<event>
 5   0  0.7212170E+07  0.9118800E+02  0.7818608E-02  0.1180000E+00
       11   -1    0    0    0    0  0.00000000000E+00  0.00000000000E+00  0.39999999673E+01  0.40000000000E+01  0.51109989000E-03 0.  1.
     -623   -1    0    0    0    0  0.00000000000E+00  0.00000000000E+00  0.12525980253E-10  0.17130000000E+03  0.17130000000E+03 0. -1.
       11    1    1    2    0    0 -0.65422529937E-02 -0.10191045354E-01  0.11686318290E+01  0.11686946870E+01  0.51109989000E-03 0.  1.
     -623    1    1    2    0    0 -0.20026718398E-02  0.59795169304E-02  0.36153942446E-03  0.17130000012E+03  0.17130000000E+03 0. -1.
      622    1    1    2    0    0  0.85449248336E-02  0.42115284236E-02  0.28310065991E+01  0.28313051967E+01  0.40000000000E-01 0.  1.
</event>
<event>
 5   0  0.7212170E+07  0.9118800E+02  0.7818608E-02  0.1180000E+00
       11   -1    0    0    0    0  0.00000000000E+00  0.00000000000E+00  0.39999999673E+01  0.40000000000E+01  0.51109989000E-03 0. -1.
     -623   -1    0    0    0    0  0.00000000000E+00  0.00000000000E+00  0.12525980253E-10  0.17130000000E+03  0.17130000000E+03 0.  1.
       11    1    1    2    0    0 -0.45207419613E-02  0.41368392229E-02  0.35631299549E-01  0.36158004333E-01  0.51109989000E-03 0. -1.
     -623    1    1    2    0    0 -0.14064277236E-02 -0.65391072322E-03  0.73447223486E-03  0.17130000001E+03  0.17130000000E+03 0.  1.
      622    1    1    2    0    0  0.59271696849E-02 -0.34829284998E-02  0.39636341954E+01  0.39638419869E+01  0.40000000000E-01 0. -1.
</event>
<event>
 5   0  0.7212170E+07  0.9118800E+02  0.7818608E-02  0.1180000E+00
       11   -1    0    0    0    0  0.00000000000E+00  0.00000000000E+00  0.39999999673E+01  0.40000000000E+01  0.51109989000E-03 0. -1.
     -623   -1    0    0    0    0  0.00000000000E+00  0.00000000000E+00  0.12525980253E-10  0.17130000000E+03  0.17130000000E+03 0.  1.
       11    1    1    2    0    0  0.62383781585E-03 -0.26946307109E-02  0.62486380380E-01  0.62549653591E-01  0.51109989000E-03 0. -1.
     -623    1    1    2    0    0  0.74074384002E-03  0.36124190424E-02  0.26680632010E-03  0.17130000004E+03  0.17130000000E+03 0.  1.
      622    1    1    2    0    0 -0.13645816562E-02 -0.91778833317E-03  0.39372467825E+01  0.39374503084E+01  0.40000000000E-01 0. -1.
</event>
<event>
 5   0  0.7212170E+07  0.9118800E+02  0.7818608E-02  0.1180000E+00
       11   -1    0    0    0    0  0.00000000000E+00  0.00000000000E+00  0.39999999673E+01  0.40000000000E+01  0.51109989000E-03 0. -1.
     -623   -1    0    0    0    0  0.00000000000E+00  0.00000000000E+00  0.12525980253E-10  0.17130000000E+03  0.17130000000E+03 0. -1.
       11    1    1    2    0    0  0.36820695679E-02 -0.15351299359E-03  0.25230153264E-01  0.25503000988E-01  0.51109989000E-03 0. -1.
     -623    1    1    2    0    0 -0.19301970856E-02 -0.17059073528E-02  0.47494463017E-03  0.17130000002E+03  0.17130000000E+03 0. -1.
      622    1    1    2    0    0 -0.17518724824E-02  0.18594203463E-02  0.39742948692E+01  0.39744969787E+01  0.40000000000E-01 0. -1.
</event>
<event>
 5   0  0.7212170E+07  0.9118800E+02  0.7818608E-02  0.1180000E+00
       11   -1    0    0    0    0  0.00000000000E+00  0.00000000000E+00  0.39999999673E+01  0.40000000000E+01  0.51109989000E-03 0.  1.
     -623   -1    0    0    0    0  0.00000000000E+00  0.00000000000E+00  0.12525980253E-10  0.17130000000E+03  0.17130000000E+03 0. -1.
       11    1    1    2    0    0 -0.32962272623E-02 -0.17620406040E-02  0.15271624133E-01  0.15730658855E-01  0.51109989000E-03 0.  1.
     -623    1    1    2    0    0  0.17353717170E-02 -0.18327488808E-02  0.66174417875E-03  0.17130000002E+03  0.17130000000E+03 0. -1.
      622    1    1    2    0    0  0.15608555451E-02  0.35947894849E-02  0.39840665994E+01  0.39842693216E+01  0.40000000000E-01 0.  1.
</event>
<event>
 5   0  0.7212170E+07  0.9118800E+02  0.7818608E-02  0.1180000E+00
       11   -1    0    0    0    0  0.00000000000E+00  0.00000000000E+00  0.39999999673E+01  0.40000000000E+01  0.51109989000E-03 0. -1.
     -623   -1    0    0    0    0  0.00000000000E+00  0.00000000000E+00  0.12525980253E-10  0.17130000000E+03  0.17130000000E+03 0.  1.
       11    1    1    2    0    0 -0.62272980946E-03 -0.10625192276E-02  0.12588578062E-02  0.18337626887E-02  0.51109989000E-03 0. -1.
     -623    1    1    2    0    0  0.95770453458E-03 -0.12343313807E-02  0.77565166958E-03  0.17130000001E+03  0.17130000000E+03 0.  1.
      622    1    1    2    0    0 -0.33497472506E-03  0.22968506083E-02  0.39979654576E+01  0.39981662282E+01  0.40000000000E-01 0. -1.
</event>
<event>
 5   0  0.7212170E+07  0.9118800E+02  0.7818608E-02  0.1180000E+00
       11   -1    0    0    0    0  0.00000000000E+00  0.00000000000E+00  0.39999999673E+01  0.40000000000E+01  0.51109989000E-03 0. -1.
     -623   -1    0    0    0    0  0.00000000000E+00  0.00000000000E+00  0.12525980253E-10  0.17130000000E+03  0.17130000000E+03 0. -1.
       11    1    1    2    0    0  0.77873742530E-02 -0.24659920667E-02  0.11357167959E+00  0.11386620193E+00  0.51109989000E-03 0. -1.
     -623    1    1    2    0    0 -0.18309205641E-01  0.44066657264E-02  0.51612075563E-03  0.17130000104E+03  0.17130000000E+03 0. -1.
      622    1    1    2    0    0  0.10521831388E-01 -0.19406736599E-02  0.38859121672E+01  0.38861327623E+01  0.40000000000E-01 0. -1.
</event>
<event>
 5   0  0.7212170E+07  0.9118800E+02  0.7818608E-02  0.1180000E+00
       11   -1    0    0    0    0  0.00000000000E+00  0.00000000000E+00  0.39999999673E+01  0.40000000000E+01  0.51109989000E-03 0.  1.
     -623   -1    0    0    0    0  0.00000000000E+00  0.00000000000E+00  0.12525980253E-10  0.17130000000E+03  0.17130000000E+03 0. -1.
       11    1    1    2    0    0 -0.44024414965E-03  0.18948063215E-02  0.40194268368E-01  0.40244559119E-01  0.51109989000E-03 0.  1.
     -623    1    1    2    0    0  0.16942449731E-02 -0.16751702266E-02  0.25251736426E-03  0.17130000002E+03  0.17130000000E+03 0. -1.
      622    1    1    2    0    0 -0.12540008236E-02 -0.21963609481E-03  0.39595531818E+01  0.39597554243E+01  0.40000000000E-01 0.  1.
</event>
<event>
 5   0  0.7212170E+07  0.9118800E+02  0.7818608E-02  0.1180000E+00
       11   -1    0    0    0    0  0.00000000000E+00  0.00000000000E+00  0.39999999673E+01  0.40000000000E+01  0.51109989000E-03 0. -1.
     -623   -1    0    0    0    0  0.00000000000E+00  0.00000000000E+00  0.12525980253E-10  0.17130000000E+03  0.17130000000E+03 0. -1.
       11    1    1    2    0    0  0.15108514939E-01 -0.31392922583E-01  0.40536333161E+00  0.40685805222E+00  0.51109989000E-03 0. -1.
     -623    1    1    2    0    0 -0.63445224966E-03  0.27844965990E-02  0.18604288656E-02  0.17130000003E+03  0.17130000000E+03 0. -1.
      622    1    1    2    0    0 -0.14474062689E-01  0.28608425984E-01  0.35927762069E+01  0.35931419139E+01  0.40000000000E-01 0. -1.
</event>
<event>
 5   0  0.7212170E+07  0.9118800E+02  0.7818608E-02  0.1180000E+00
       11   -1    0    0    0    0  0.00000000000E+00  0.00000000000E+00  0.39999999673E+01  0.40000000000E+01  0.51109989000E-03 0. -1.
     -623   -1    0    0    0    0  0.00000000000E+00  0.00000000000E+00  0.12525980253E-10  0.17130000000E+03  0.17130000000E+03 0. -1.
       11    1    1    2    0    0 -0.53956428507E-02  0.85805937198E-03  0.44355576971E+00  0.44358971054E+00  0.51109989000E-03 0. -1.
     -623    1    1    2    0    0  0.36251061219E-02  0.47422086106E-02  0.26381583105E-03  0.17130000010E+03  0.17130000000E+03 0. -1.
      622    1    1    2    0    0  0.17705367276E-02 -0.56002679841E-02  0.35561803831E+01  0.35564101866E+01  0.40000000000E-01 0. -1.
</event>
<event>
 5   0  0.7212170E+07  0.9118800E+02  0.7818608E-02  0.1180000E+00
       11   -1    0    0    0    0  0.00000000000E+00  0.00000000000E+00  0.39999999673E+01  0.40000000000E+01  0.51109989000E-03 0. -1.
     -623   -1    0    0    0    0  0.00000000000E+00  0.00000000000E+00  0.12525980253E-10  0.17130000000E+03  0.17130000000E+03 0. -1.
       11    1    1    2    0    0 -0.36147139944E-02 -0.44471543330E-02  0.66151522605E-01  0.66401268850E-01  0.51109989000E-03 0. -1.
     -623    1    1    2    0    0  0.60245176682E-02  0.39447672239E-02  0.45401721018E-03  0.17130000015E+03  0.17130000000E+03 0. -1.
      622    1    1    2    0    0 -0.24098036746E-02  0.50238710855E-03  0.39333944281E+01  0.39335985797E+01  0.40000000000E-01 0. -1.
</event>
<event>
 5   0  0.7212170E+07  0.9118800E+02  0.7818608E-02  0.1180000E+00
       11   -1    0    0    0    0  0.00000000000E+00  0.00000000000E+00  0.39999999673E+01  0.40000000000E+01  0.51109989000E-03 0. -1.
     -623   -1    0    0    0    0  0.00000000000E+00  0.00000000000E+00  0.12525980253E-10  0.17130000000E+03  0.17130000000E+03 0.  1.
       11    1    1    2    0    0 -0.16356408669E-01  0.75532721012E-02  0.61523585520E+00  0.61549979917E+00  0.51109989000E-03 0. -1.
     -623    1    1    2    0    0 -0.56634450856E-02  0.18826899975E-01  0.67587807028E-03  0.17130000113E+03  0.17130000000E+03 0.  1.
      622    1    1    2    0    0  0.22019853755E-01 -0.26380172077E-01  0.33840882343E+01  0.33844990715E+01  0.40000000000E-01 0. -1.
</event>
<event>
 5   0  0.7212170E+07  0.9118800E+02  0.7818608E-02  0.1180000E+00
       11   -1    0    0    0    0  0.00000000000E+00  0.00000000000E+00  0.39999999673E+01  0.40000000000E+01  0.51109989000E-03 0.  1.
     -623   -1    0    0    0    0  0.00000000000E+00  0.00000000000E+00  0.12525980253E-10  0.17130000000E+03  0.17130000000E+03 0. -1.
       11    1    1    2    0    0  0.80420681437E-03  0.12685807728E-02  0.63602632505E-02  0.65551672359E-02  0.51109989000E-03 0.  1.
     -623    1    1    2    0    0  0.10245097945E-02 -0.28186328408E-04  0.39581957053E-03  0.17130000000E+03  0.17130000000E+03 0. -1.
      622    1    1    2    0    0 -0.18287166088E-02 -0.12403944444E-02  0.39932438843E+01  0.39934448290E+01  0.40000000000E-01 0.  1.
</event>
<event>
 5   0  0.7212170E+07  0.9118800E+02  0.7818608E-02  0.1180000E+00
       11   -1    0    0    0    0  0.00000000000E+00  0.00000000000E+00  0.39999999673E+01  0.40000000000E+01  0.51109989000E-03 0.  1.
     -623   -1    0    0    0    0  0.00000000000E+00  0.00000000000E+00  0.12525980253E-10  0.17130000000E+03  0.17130000000E+03 0. -1.
       11    1    1    2    0    0 -0.61489720786E-02  0.44573013675E-02  0.99676764026E-01  0.99966974061E-01  0.51109989000E-03 0.  1.
     -623    1    1    2    0    0 -0.11778431532E-02 -0.14134876232E-02  0.50339037448E-03  0.17130000001E+03  0.17130000000E+03 0. -1.
      622    1    1    2    0    0  0.73268152320E-02 -0.30438137440E-02  0.38998198138E+01  0.39000330162E+01  0.40000000000E-01 0.  1.
</event>
<event>
 5   0  0.7212170E+07  0.9118800E+02  0.7818608E-02  0.1180000E+00
       11   -1    0    0    0    0  0.00000000000E+00  0.00000000000E+00  0.39999999673E+01  0.40000000000E+01  0.51109989000E-03 0.  1.
     -623   -1    0    0    0    0  0.00000000000E+00  0.00000000000E+00  0.12525980253E-10  0.17130000000E+03  0.17130000000E+03 0. -1.
       11    1    1    2    0    0 -0.18178059716E-02  0.13705466213E-01  0.69153222725E+00  0.69167060569E+00  0.51109989000E-03 0.  1.
     -623    1    1    2    0    0  0.43921322183E-02 -0.26542329017E-03  0.40852930066E-03  0.17130000006E+03  0.17130000000E+03 0. -1.
      622    1    1    2    0    0 -0.25743262478E-02 -0.13440042923E-01  0.33080592118E+01  0.33083293383E+01  0.40000000000E-01 0.  1.
</event>
<event>
 5   0  0.7212170E+07  0.9118800E+02  0.7818608E-02  0.1180000E+00
       11   -1    0    0    0    0  0.00000000000E+00  0.00000000000E+00  0.39999999673E+01  0.40000000000E+01  0.51109989000E-03 0.  1.
     -623   -1    0    0    0    0  0.00000000000E+00  0.00000000000E+00  0.12525980253E-10  0.17130000000E+03  0.17130000000E+03 0. -1.
       11    1    1    2    0    0  0.40260750152E-02  0.17425525791E-02  0.21057613548E+00  0.21062244853E+00  0.51109989000E-03 0.  1.
     -623    1    1    2    0    0 -0.96851678732E-03  0.14655716414E-02  0.26000366222E-03  0.17130000001E+03  0.17130000000E+03 0. -1.
      622    1    1    2    0    0 -0.30575582280E-02 -0.32081242204E-02  0.37891638276E+01  0.37893775416E+01  0.40000000000E-01 0.  1.
</event>
<event>
 5   0  0.7212170E+07  0.9118800E+02  0.7818608E-02  0.1180000E+00
       11   -1    0    0    0    0  0.00000000000E+00  0.00000000000E+00  0.39999999673E+01  0.40000000000E+01  0.51109989000E-03 0.  1.
     -623   -1    0    0    0    0  0.00000000000E+00  0.00000000000E+00  0.12525980253E-10  0.17130000000E+03  0.17130000000E+03 0.  1.
       11    1    1    2    0    0  0.17320794471E-02  0.19772356936E-02  0.72682384573E-02  0.77458423408E-02  0.51109989000E-03 0.  1.
     -623    1    1    2    0    0 -0.21282759263E-02 -0.18527242303E-02  0.67801050205E-03  0.17130000002E+03  0.17130000000E+03 0.  1.
      622    1    1    2    0    0  0.39619647912E-03 -0.12451146337E-03  0.39920537182E+01  0.39922541328E+01  0.40000000000E-01 0.  1.
</event>
<event>
 5   0  0.7212170E+07  0.9118800E+02  0.7818608E-02  0.1180000E+00
       11   -1    0    0    0    0  0.00000000000E+00  0.00000000000E+00  0.39999999673E+01  0.40000000000E+01  0.51109989000E-03 0.  1.
     -623   -1    0    0    0    0  0.00000000000E+00  0.00000000000E+00  0.12525980253E-10  0.17130000000E+03  0.17130000000E+03 0. -1.
       11    1    1    2    0    0  0.30710185321E-02  0.15359542600E-02  0.68960761804E-02  0.77205828858E-02  0.51109989000E-03 0.  1.
     -623    1    1    2    0    0 -0.90515447729E-02 -0.17786809998E-02  0.10296044444E-02  0.17130000025E+03  0.17130000000E+03 0. -1.
      622    1    1    2    0    0  0.59805262407E-02  0.24272673974E-03  0.39920742867E+01  0.39922791656E+01  0.40000000000E-01 0.  1.
</event>
<event>
 5   0  0.7212170E+07  0.9118800E+02  0.7818608E-02  0.1180000E+00
       11   -1    0    0    0    0  0.00000000000E+00  0.00000000000E+00  0.39999999673E+01  0.40000000000E+01  0.51109989000E-03 0.  1.
     -623   -1    0    0    0    0  0.00000000000E+00  0.00000000000E+00  0.12525980253E-10  0.17130000000E+03  0.17130000000E+03 0. -1.
       11    1    1    2    0    0  0.13867184355E-02  0.94149641621E-03  0.37181441192E-01  0.37222710752E-01  0.51109989000E-03 0.  1.
     -623    1    1    2    0    0 -0.48324471504E-03 -0.30613845701E-02  0.24381893506E-03  0.17130000003E+03  0.17130000000E+03 0. -1.
      622    1    1    2    0    0 -0.90347372048E-03  0.21198881536E-02  0.39625747069E+01  0.39627772607E+01  0.40000000000E-01 0.  1.
</event>
<event>
 5   0  0.7212170E+07  0.9118800E+02  0.7818608E-02  0.1180000E+00
       11   -1    0    0    0    0  0.00000000000E+00  0.00000000000E+00  0.39999999673E+01  0.40000000000E+01  0.51109989000E-03 0.  1.
     -623   -1    0    0    0    0  0.00000000000E+00  0.00000000000E+00  0.12525980253E-10  0.17130000000E+03  0.17130000000E+03 0.  1.
       11    1    1    2    0    0  0.28590705975E-03 -0.36478976400E-03  0.22312534566E-02  0.23354934177E-02  0.51109989000E-03 0.  1.
     -623    1    1    2    0    0 -0.17585988460E-03  0.20449481611E-03  0.30433438421E-03  0.17130000000E+03  0.17130000000E+03 0.  1.
      622    1    1    2    0    0 -0.11004717517E-03  0.16029494791E-03  0.39974643790E+01  0.39976645056E+01  0.40000000000E-01 0.  1.
</event>
<event>
 5   0  0.7212170E+07  0.9118800E+02  0.7818608E-02  0.1180000E+00
       11   -1    0    0    0    0  0.00000000000E+00  0.00000000000E+00  0.39999999673E+01  0.40000000000E+01  0.51109989000E-03 0.  1.
     -623   -1    0    0    0    0  0.00000000000E+00  0.00000000000E+00  0.12525980253E-10  0.17130000000E+03  0.17130000000E+03 0.  1.
       11    1    1    2    0    0 -0.13122133786E-02 -0.22755725666E-02  0.15664679127E-01  0.15891618222E-01  0.51109989000E-03 0.  1.
     -623    1    1    2    0    0 -0.29501206273E-03  0.14505462075E-02  0.42812582431E-03  0.17130000001E+03  0.17130000000E+03 0.  1.
      622    1    1    2    0    0  0.16072254414E-02  0.82502635883E-03  0.39839071633E+01  0.39841083757E+01  0.40000000000E-01 0.  1.
</event>
<event>
 5   0  0.7212170E+07  0.9118800E+02  0.7818608E-02  0.1180000E+00
       11   -1    0    0    0    0  0.00000000000E+00  0.00000000000E+00  0.39999999673E+01  0.40000000000E+01  0.51109989000E-03 0. -1.
     -623   -1    0    0    0    0  0.00000000000E+00  0.00000000000E+00  0.12525980253E-10  0.17130000000E+03  0.17130000000E+03 0. -1.
       11    1    1    2    0    0 -0.17370788402E-01  0.94539063078E-02  0.13593043590E+01  0.13594483154E+01  0.51109989000E-03 0. -1.
     -623    1    1    2    0    0  0.93724689656E-02 -0.78837102844E-03  0.47350268577E-03  0.17130000026E+03  0.17130000000E+03 0. -1.
      622    1    1    2    0    0  0.79983194354E-02 -0.86655352793E-02  0.26402221063E+01  0.26405514264E+01  0.40000000000E-01 0. -1.
</event>
<event>
 5   0  0.7212170E+07  0.9118800E+02  0.7818608E-02  0.1180000E+00
       11   -1    0    0    0    0  0.00000000000E+00  0.00000000000E+00  0.39999999673E+01  0.40000000000E+01  0.51109989000E-03 0.  1.
     -623   -1    0    0    0    0  0.00000000000E+00  0.00000000000E+00  0.12525980253E-10  0.17130000000E+03  0.17130000000E+03 0. -1.
       11    1    1    2    0    0 -0.22401344029E-01  0.44695275407E-01  0.14762160330E+01  0.14770624649E+01  0.51109989000E-03 0.  1.
     -623    1    1    2    0    0  0.10535793098E-01 -0.35198625425E-01  0.12132367332E-02  0.17130000394E+03  0.17130000000E+03 0. -1.
      622    1    1    2    0    0  0.11865550931E-01 -0.94966499819E-02  0.25225706976E+01  0.25229335905E+01  0.40000000000E-01 0.  0.
</event>
<event>
 5   0  0.7212170E+07  0.9118800E+02  0.7818608E-02  0.1180000E+00
       11   -1    0    0    0    0  0.00000000000E+00  0.00000000000E+00  0.39999999673E+01  0.40000000000E+01  0.51109989000E-03 0.  1.
     -623   -1    0    0    0    0  0.00000000000E+00  0.00000000000E+00  0.12525980253E-10  0.17130000000E+03  0.17130000000E+03 0.  1.
       11    1    1    2    0    0 -0.38165077523E-01 -0.61480459134E-01  0.60293862509E+00  0.60726573001E+00  0.51109989000E-03 0.  1.
     -623    1    1    2    0    0  0.15931025816E-01 -0.19530578355E-02  0.52296809499E-02  0.17130000083E+03  0.17130000000E+03 0.  1.
      622    1    1    2    0    0  0.22234051708E-01  0.63433516969E-01  0.33918316613E+01  0.33927334382E+01  0.40000000000E-01 0.  1.
</event>
<event>
 5   0  0.7212170E+07  0.9118800E+02  0.7818608E-02  0.1180000E+00
       11   -1    0    0    0    0  0.00000000000E+00  0.00000000000E+00  0.39999999673E+01  0.40000000000E+01  0.51109989000E-03 0. -1.
     -623   -1    0    0    0    0  0.00000000000E+00  0.00000000000E+00  0.12525980253E-10  0.17130000000E+03  0.17130000000E+03 0.  1.
       11    1    1    2    0    0 -0.61596415654E-02 -0.84487401787E-02  0.56435767076E+00  0.56445474944E+00  0.51109989000E-03 0. -1.
     -623    1    1    2    0    0 -0.40642304554E-03 -0.15752393576E-03  0.34696992927E-03  0.17130000000E+03  0.17130000000E+03 0.  1.
      622    1    1    2    0    0  0.65660646109E-02  0.86062641145E-02  0.34352953267E+01  0.34355452496E+01  0.40000000000E-01 0. -1.
</event>
<event>
 5   0  0.7212170E+07  0.9118800E+02  0.7818608E-02  0.1180000E+00
       11   -1    0    0    0    0  0.00000000000E+00  0.00000000000E+00  0.39999999673E+01  0.40000000000E+01  0.51109989000E-03 0. -1.
     -623   -1    0    0    0    0  0.00000000000E+00  0.00000000000E+00  0.12525980253E-10  0.17130000000E+03  0.17130000000E+03 0.  1.
       11    1    1    2    0    0  0.13132900024E-01 -0.72832290674E-02  0.20575463578E+01  0.20576012233E+01  0.51109989000E-03 0. -1.
     -623    1    1    2    0    0 -0.87886343854E-03  0.42574206669E-03  0.51751193499E-03  0.17130000000E+03  0.17130000000E+03 0.  1.
      622    1    1    2    0    0 -0.12254036585E-01  0.68574870006E-02  0.19419360988E+01  0.19423987743E+01  0.40000000000E-01 0.  0.
</event>
<event>
 5   0  0.7212170E+07  0.9118800E+02  0.7818608E-02  0.1180000E+00
       11   -1    0    0    0    0  0.00000000000E+00  0.00000000000E+00  0.39999999673E+01  0.40000000000E+01  0.51109989000E-03 0.  1.
     -623   -1    0    0    0    0  0.00000000000E+00  0.00000000000E+00  0.12525980253E-10  0.17130000000E+03  0.17130000000E+03 0. -1.
       11    1    1    2    0    0  0.37050265156E-04 -0.70823622476E-03  0.19918645872E-02  0.21752514576E-02  0.51109989000E-03 0. -1.
     -623    1    1    2    0    0 -0.21133337381E-03 -0.20005520827E-03  0.38357572152E-03  0.17130000000E+03  0.17130000000E+03 0. -1.
      622    1    1    2    0    0  0.17428310868E-03  0.90829143305E-03  0.39976245275E+01  0.39978247483E+01  0.40000000000E-01 0.  1.
</event>
<event>
 5   0  0.7212170E+07  0.9118800E+02  0.7818608E-02  0.1180000E+00
       11   -1    0    0    0    0  0.00000000000E+00  0.00000000000E+00  0.39999999673E+01  0.40000000000E+01  0.51109989000E-03 0.  1.
     -623   -1    0    0    0    0  0.00000000000E+00  0.00000000000E+00  0.12525980253E-10  0.17130000000E+03  0.17130000000E+03 0.  1.
       11    1    1    2    0    0  0.34799767717E-02  0.19632445073E-02  0.11305216788E+00  0.11312390752E+00  0.51109989000E-03 0.  1.
     -623    1    1    2    0    0  0.37541470007E-03  0.41446391891E-03  0.28017388230E-03  0.17130000000E+03  0.17130000000E+03 0.  1.
      622    1    1    2    0    0 -0.38553914718E-02 -0.23777084262E-02  0.38866676258E+01  0.38868760915E+01  0.40000000000E-01 0.  1.
</event>
<event>
 5   0  0.7212170E+07  0.9118800E+02  0.7818608E-02  0.1180000E+00
       11   -1    0    0    0    0  0.00000000000E+00  0.00000000000E+00  0.39999999673E+01  0.40000000000E+01  0.51109989000E-03 0. -1.
     -623   -1    0    0    0    0  0.00000000000E+00  0.00000000000E+00  0.12525980253E-10  0.17130000000E+03  0.17130000000E+03 0.  1.
       11    1    1    2    0    0 -0.14433326854E-01 -0.71385448459E-02  0.68725147717E+00  0.68744027657E+00  0.51109989000E-03 0. -1.
     -623    1    1    2    0    0  0.33741287230E-01  0.16834066550E-01  0.50489704317E-03  0.17130000415E+03  0.17130000000E+03 0.  1.
      622    1    1    2    0    0 -0.19307960383E-01 -0.96955217074E-02  0.33122435939E+01  0.33125555733E+01  0.40000000000E-01 0. -1.
</event>
<event>
 5   0  0.7212170E+07  0.9118800E+02  0.7818608E-02  0.1180000E+00
       11   -1    0    0    0    0  0.00000000000E+00  0.00000000000E+00  0.39999999673E+01  0.40000000000E+01  0.51109989000E-03 0.  1.
     -623   -1    0    0    0    0  0.00000000000E+00  0.00000000000E+00  0.12525980253E-10  0.17130000000E+03  0.17130000000E+03 0. -1.
       11    1    1    2    0    0 -0.39058412518E-01 -0.37856552359E-02  0.31160616446E+01  0.31163087660E+01  0.51109989000E-03 0.  1.
     -623    1    1    2    0    0  0.67505082991E-02 -0.47573417761E-02  0.17858159229E-02  0.17130000021E+03  0.17130000000E+03 0. -1.
      622    1    1    2    0    0  0.32307904219E-01  0.85429970119E-02  0.88215250683E+00  0.88369102563E+00  0.40000000000E-01 0.  1.
</event>
<event>
 5   0  0.7212170E+07  0.9118800E+02  0.7818608E-02  0.1180000E+00
       11   -1    0    0    0    0  0.00000000000E+00  0.00000000000E+00  0.39999999673E+01  0.40000000000E+01  0.51109989000E-03 0. -1.
     -623   -1    0    0    0    0  0.00000000000E+00  0.00000000000E+00  0.12525980253E-10  0.17130000000E+03  0.17130000000E+03 0. -1.
       11    1    1    2    0    0  0.59670445935E-02  0.29984280130E-02  0.59342526976E-01  0.59719284345E-01  0.51109989000E-03 0. -1.
     -623    1    1    2    0    0 -0.82847042357E-02 -0.34248978608E-02  0.58070148923E-03  0.17130000024E+03  0.17130000000E+03 0. -1.
      622    1    1    2    0    0  0.23176596434E-02  0.42646984825E-03  0.39400767394E+01  0.39402804806E+01  0.40000000000E-01 0. -1.
</event>
<event>
 5   0  0.7212170E+07  0.9118800E+02  0.7818608E-02  0.1180000E+00
       11   -1    0    0    0    0  0.00000000000E+00  0.00000000000E+00  0.39999999673E+01  0.40000000000E+01  0.51109989000E-03 0.  1.
     -623   -1    0    0    0    0  0.00000000000E+00  0.00000000000E+00  0.12525980253E-10  0.17130000000E+03  0.17130000000E+03 0. -1.
       11    1    1    2    0    0 -0.37760792113E-02  0.30158124727E-02  0.71722532895E-02  0.86635061856E-02  0.51109989000E-03 0.  1.
     -623    1    1    2    0    0  0.55317392108E-02 -0.17583336415E-03  0.16931537575E-02  0.17130000010E+03  0.17130000000E+03 0. -1.
      622    1    1    2    0    0 -0.17556599996E-02 -0.28399791086E-02  0.39911345604E+01  0.39913363961E+01  0.40000000000E-01 0.  1.
</event>
<event>
 5   0  0.7212170E+07  0.9118800E+02  0.7818608E-02  0.1180000E+00
       11   -1    0    0    0    0  0.00000000000E+00  0.00000000000E+00  0.39999999673E+01  0.40000000000E+01  0.51109989000E-03 0. -1.
     -623   -1    0    0    0    0  0.00000000000E+00  0.00000000000E+00  0.12525980253E-10  0.17130000000E+03  0.17130000000E+03 0. -1.
       11    1    1    2    0    0  0.71764971596E-02  0.13947014996E-01  0.97642845439E+00  0.97655456023E+00  0.51109989000E-03 0. -1.
     -623    1    1    2    0    0 -0.41861250293E-02  0.33458201906E-02  0.44170555518E-03  0.17130000008E+03  0.17130000000E+03 0. -1.
      622    1    1    2    0    0 -0.29903721291E-02 -0.17292835188E-01  0.30231298085E+01  0.30234453565E+01  0.40000000000E-01 0. -1.
</event>
<event>
 5   0  0.7212170E+07  0.9118800E+02  0.7818608E-02  0.1180000E+00
       11   -1    0    0    0    0  0.00000000000E+00  0.00000000000E+00  0.39999999673E+01  0.40000000000E+01  0.51109989000E-03 0.  1.
     -623   -1    0    0    0    0  0.00000000000E+00  0.00000000000E+00  0.12525980253E-10  0.17130000000E+03  0.17130000000E+03 0.  1.
       11    1    1    2    0    0  0.53470918340E-02 -0.87777297772E-04  0.35286652810E-01  0.35693251261E-01  0.51109989000E-03 0.  1.
     -623    1    1    2    0    0 -0.45892545705E-02 -0.12570119529E-02  0.60873939393E-03  0.17130000007E+03  0.17130000000E+03 0.  1.
      622    1    1    2    0    0 -0.75783726275E-03  0.13447892508E-02  0.39641045758E+01  0.39643066822E+01  0.40000000000E-01 0.  1.
</event>
<event>
 5   0  0.7212170E+07  0.9118800E+02  0.7818608E-02  0.1180000E+00
       11   -1    0    0    0    0  0.00000000000E+00  0.00000000000E+00  0.39999999673E+01  0.40000000000E+01  0.51109989000E-03 0. -1.
     -623   -1    0    0    0    0  0.00000000000E+00  0.00000000000E+00  0.12525980253E-10  0.17130000000E+03  0.17130000000E+03 0.  1.
       11    1    1    2    0    0  0.11964989293E-01  0.75405017658E-02  0.13536247625E+00  0.13610026207E+00  0.51109989000E-03 0. -1.
     -623    1    1    2    0    0 -0.32067713201E-02 -0.50562132304E-02  0.95563600103E-03  0.17130000011E+03  0.17130000000E+03 0.  1.
      622    1    1    2    0    0 -0.87582179723E-02 -0.24842885351E-02  0.38636818554E+01  0.38638996309E+01  0.40000000000E-01 0. -1.
</event>
<event>
 5   0  0.7212170E+07  0.9118800E+02  0.7818608E-02  0.1180000E+00
       11   -1    0    0    0    0  0.00000000000E+00  0.00000000000E+00  0.39999999673E+01  0.40000000000E+01  0.51109989000E-03 0.  1.
     -623   -1    0    0    0    0  0.00000000000E+00  0.00000000000E+00  0.12525980253E-10  0.17130000000E+03  0.17130000000E+03 0. -1.
       11    1    1    2    0    0  0.25569577554E-02 -0.20958549703E-02  0.94047189727E-02  0.99820139788E-02  0.51109989000E-03 0.  1.
     -623    1    1    2    0    0  0.10975894833E-02 -0.20699569986E-02  0.78163407203E-03  0.17130000002E+03  0.17130000000E+03 0. -1.
      622    1    1    2    0    0 -0.36545472387E-02  0.41658119690E-02  0.39898136144E+01  0.39900179683E+01  0.40000000000E-01 0.  1.
</event>
<event>
 5   0  0.7212170E+07  0.9118800E+02  0.7818608E-02  0.1180000E+00
       11   -1    0    0    0    0  0.00000000000E+00  0.00000000000E+00  0.39999999673E+01  0.40000000000E+01  0.51109989000E-03 0.  1.
     -623   -1    0    0    0    0  0.00000000000E+00  0.00000000000E+00  0.12525980253E-10  0.17130000000E+03  0.17130000000E+03 0.  1.
       11    1    1    2    0    0 -0.76007114746E-04 -0.91575242787E-03  0.71022573106E-02  0.71796700199E-02  0.51109989000E-03 0.  1.
     -623    1    1    2    0    0  0.16762465311E-03  0.11387898816E-02  0.27775609882E-03  0.17130000000E+03  0.17130000000E+03 0.  1.
      622    1    1    2    0    0 -0.91617538429E-04 -0.22303745414E-03  0.39926199555E+01  0.39928203274E+01  0.40000000000E-01 0.  1.
</event>
<event>
 5   0  0.7212170E+07  0.9118800E+02  0.7818608E-02  0.1180000E+00
       11   -1    0    0    0    0  0.00000000000E+00  0.00000000000E+00  0.39999999673E+01  0.40000000000E+01  0.51109989000E-03 0. -1.
     -623   -1    0    0    0    0  0.00000000000E+00  0.00000000000E+00  0.12525980253E-10  0.17130000000E+03  0.17130000000E+03 0. -1.
       11    1    1    2    0    0 -0.73433923241E-02 -0.66782199369E-02  0.20323072789E-01  0.22623274366E-01  0.51109989000E-03 0. -1.
     -623    1    1    2    0    0 -0.74596340523E-02  0.54612485823E-03  0.25337694858E-02  0.17130000018E+03  0.17130000000E+03 0. -1.
      622    1    1    2    0    0  0.14803026376E-01  0.61320950786E-02  0.39771431251E+01  0.39773765436E+01  0.40000000000E-01 0. -1.
</event>
<event>
 5   0  0.7212170E+07  0.9118800E+02  0.7818608E-02  0.1180000E+00
       11   -1    0    0    0    0  0.00000000000E+00  0.00000000000E+00  0.39999999673E+01  0.40000000000E+01  0.51109989000E-03 0. -1.
     -623   -1    0    0    0    0  0.00000000000E+00  0.00000000000E+00  0.12525980253E-10  0.17130000000E+03  0.17130000000E+03 0.  1.
       11    1    1    2    0    0  0.21623752784E-03 -0.12674041558E-02  0.10396992497E+00  0.10397913057E+00  0.51109989000E-03 0. -1.
     -623    1    1    2    0    0 -0.13183354790E-02  0.14188936438E-02  0.21468599419E-03  0.17130000001E+03  0.17130000000E+03 0.  1.
      622    1    1    2    0    0  0.11020979516E-02 -0.15148948852E-03  0.38958153578E+01  0.38960208598E+01  0.40000000000E-01 0. -1.
</event>
<event>
 5   0  0.7212170E+07  0.9118800E+02  0.7818608E-02  0.1180000E+00
       11   -1    0    0    0    0  0.00000000000E+00  0.00000000000E+00  0.39999999673E+01  0.40000000000E+01  0.51109989000E-03 0. -1.
     -623   -1    0    0    0    0  0.00000000000E+00  0.00000000000E+00  0.12525980253E-10  0.17130000000E+03  0.17130000000E+03 0. -1.
       11    1    1    2    0    0  0.18154056789E-01 -0.11009130372E-01  0.25114530064E+01  0.25115427998E+01  0.51109989000E-03 0. -1.
     -623    1    1    2    0    0  0.15416222013E-02 -0.63717154102E-03  0.80328314608E-03  0.17130000001E+03  0.17130000000E+03 0. -1.
      622    1    1    2    0    0 -0.19695678990E-01  0.11646301913E-01  0.14877436778E+01  0.14884571902E+01  0.40000000000E-01 0.  0.
</event>
<event>
 5   0  0.7212170E+07  0.9118800E+02  0.7818608E-02  0.1180000E+00
       11   -1    0    0    0    0  0.00000000000E+00  0.00000000000E+00  0.39999999673E+01  0.40000000000E+01  0.51109989000E-03 0. -1.
     -623   -1    0    0    0    0  0.00000000000E+00  0.00000000000E+00  0.12525980253E-10  0.17130000000E+03  0.17130000000E+03 0. -1.
       11    1    1    2    0    0  0.44410346450E-02  0.17666963620E-01  0.17613356878E+00  0.17707382547E+00  0.51109989000E-03 0. -1.
     -623    1    1    2    0    0 -0.16904344695E-04  0.10185359450E-02  0.11977286700E-02  0.17130000001E+03  0.17130000000E+03 0. -1.
      622    1    1    2    0    0 -0.44241303003E-02 -0.18685499565E-01  0.38226686699E+01  0.38229261673E+01  0.40000000000E-01 0. -1.
</event>
<event>
 5   0  0.7212170E+07  0.9118800E+02  0.7818608E-02  0.1180000E+00
       11   -1    0    0    0    0  0.00000000000E+00  0.00000000000E+00  0.39999999673E+01  0.40000000000E+01  0.51109989000E-03 0.  1.
     -623   -1    0    0    0    0  0.00000000000E+00  0.00000000000E+00  0.12525980253E-10  0.17130000000E+03  0.17130000000E+03 0. -1.
       11    1    1    2    0    0 -0.59835054294E-03  0.28246239797E-03  0.13354425630E-01  0.13380572311E-01  0.51109989000E-03 0.  1.
     -623    1    1    2    0    0  0.83325646449E-04 -0.18138150103E-02  0.22712753832E-03  0.17130000001E+03  0.17130000000E+03 0. -1.
      622    1    1    2    0    0  0.51502489646E-03  0.15313526131E-02  0.39864184158E+01  0.39866194196E+01  0.40000000000E-01 0.  1.
</event>
<event>
 5   0  0.7212170E+07  0.9118800E+02  0.7818608E-02  0.1180000E+00
       11   -1    0    0    0    0  0.00000000000E+00  0.00000000000E+00  0.39999999673E+01  0.40000000000E+01  0.51109989000E-03 0.  1.
     -623   -1    0    0    0    0  0.00000000000E+00  0.00000000000E+00  0.12525980253E-10  0.17130000000E+03  0.17130000000E+03 0.  1.
       11    1    1    2    0    0 -0.72730417506E-03 -0.14852078236E-02  0.48276384604E-02  0.51285602117E-02  0.51109989000E-03 0.  1.
     -623    1    1    2    0    0  0.11731470305E-02  0.67923430856E-03  0.50126317278E-03  0.17130000001E+03  0.17130000000E+03 0.  1.
      622    1    1    2    0    0 -0.44584285579E-03  0.80597351489E-03  0.39946710668E+01  0.39948714348E+01  0.40000000000E-01 0.  1.
</event>
<event>
 5   0  0.7212170E+07  0.9118800E+02  0.7818608E-02  0.1180000E+00
       11   -1    0    0    0    0  0.00000000000E+00  0.00000000000E+00  0.39999999673E+01  0.40000000000E+01  0.51109989000E-03 0.  1.
     -623   -1    0    0    0    0  0.00000000000E+00  0.00000000000E+00  0.12525980253E-10  0.17130000000E+03  0.17130000000E+03 0. -1.
       11    1    1    2    0    0 -0.20830171507E-02 -0.19375654929E-02  0.96574226033E+00  0.96574658567E+00  0.51109989000E-03 0.  1.
     -623    1    1    2    0    0 -0.16595670505E-03 -0.18841471735E-04  0.26942505019E-03  0.17130000000E+03  0.17130000000E+03 0. -1.
      622    1    1    2    0    0  0.22489738558E-02  0.19564069646E-02  0.30339882830E+01  0.30342534150E+01  0.40000000000E-01 0.  1.
</event>
<event>
 5   0  0.7212170E+07  0.9118800E+02  0.7818608E-02  0.1180000E+00
       11   -1    0    0    0    0  0.00000000000E+00  0.00000000000E+00  0.39999999673E+01  0.40000000000E+01  0.51109989000E-03 0.  1.
     -623   -1    0    0    0    0  0.00000000000E+00  0.00000000000E+00  0.12525980253E-10  0.17130000000E+03  0.17130000000E+03 0. -1.
       11    1    1    2    0    0  0.11733536354E-01 -0.87632051122E-02  0.19611318458E+00  0.19665988922E+00  0.51109989000E-03 0.  1.
     -623    1    1    2    0    0  0.23109267674E-01 -0.19261797523E-01  0.10225387491E-02  0.17130000264E+03  0.17130000000E+03 0. -1.
      622    1    1    2    0    0 -0.34842804029E-01  0.28025002635E-01  0.38028642441E+01  0.38033374661E+01  0.40000000000E-01 0.  1.
</event>
<event>
 5   0  0.7212170E+07  0.9118800E+02  0.7818608E-02  0.1180000E+00
       11   -1    0    0    0    0  0.00000000000E+00  0.00000000000E+00  0.39999999673E+01  0.40000000000E+01  0.51109989000E-03 0.  1.
     -623   -1    0    0    0    0  0.00000000000E+00  0.00000000000E+00  0.12525980253E-10  0.17130000000E+03  0.17130000000E+03 0. -1.
       11    1    1    2    0    0  0.21831370345E-01 -0.82971800185E-02  0.62681555774E-01  0.66893128083E-01  0.51109989000E-03 0.  1.
     -623    1    1    2    0    0 -0.56739486643E-02  0.14621463958E-01  0.44539969662E-02  0.17130000078E+03  0.17130000000E+03 0. -1.
      622    1    1    2    0    0 -0.16157421681E-01 -0.63242839397E-02  0.39328644146E+01  0.39331060960E+01  0.40000000000E-01 0.  1.
</event>
<event>
 5   0  0.7212170E+07  0.9118800E+02  0.7818608E-02  0.1180000E+00
       11   -1    0    0    0    0  0.00000000000E+00  0.00000000000E+00  0.39999999673E+01  0.40000000000E+01  0.51109989000E-03 0. -1.
     -623   -1    0    0    0    0  0.00000000000E+00  0.00000000000E+00  0.12525980253E-10  0.17130000000E+03  0.17130000000E+03 0. -1.
       11    1    1    2    0    0  0.11008322238E-01 -0.14916278998E-01  0.10315367772E+01  0.10317034761E+01  0.51109989000E-03 0. -1.
     -623    1    1    2    0    0 -0.20571493099E-02  0.39859827486E-03  0.48521055345E-03  0.17130000001E+03  0.17130000000E+03 0. -1.
      622    1    1    2    0    0 -0.89511729286E-02  0.14517680723E-01  0.29679779794E+01  0.29682965103E+01  0.40000000000E-01 0. -1.
</event>
<event>
 5   0  0.7212170E+07  0.9118800E+02  0.7818608E-02  0.1180000E+00
       11   -1    0    0    0    0  0.00000000000E+00  0.00000000000E+00  0.39999999673E+01  0.40000000000E+01  0.51109989000E-03 0.  1.
     -623   -1    0    0    0    0  0.00000000000E+00  0.00000000000E+00  0.12525980253E-10  0.17130000000E+03  0.17130000000E+03 0.  1.
       11    1    1    2    0    0  0.18927388526E-02 -0.23201946979E-02  0.31593173075E-01  0.31738865320E-01  0.51109989000E-03 0.  1.
     -623    1    1    2    0    0 -0.28943351333E-02 -0.49816177253E-03  0.34841718736E-03  0.17130000003E+03  0.17130000000E+03 0.  1.
      622    1    1    2    0    0  0.10015962800E-02  0.28183564703E-02  0.39680583761E+01  0.39682611081E+01  0.40000000000E-01 0.  1.
</event>
<event>
 5   0  0.7212170E+07  0.9118800E+02  0.7818608E-02  0.1180000E+00
       11   -1    0    0    0    0  0.00000000000E+00  0.00000000000E+00  0.39999999673E+01  0.40000000000E+01  0.51109989000E-03 0. -1.
     -623   -1    0    0    0    0  0.00000000000E+00  0.00000000000E+00  0.12525980253E-10  0.17130000000E+03  0.17130000000E+03 0. -1.
       11    1    1    2    0    0  0.82143561491E-02  0.19875603790E-02  0.56414221910E+00  0.56420575204E+00  0.51109989000E-03 0. -1.
     -623    1    1    2    0    0 -0.36141098937E-03  0.12578817815E-02  0.30686428006E-03  0.17130000001E+03  0.17130000000E+03 0. -1.
      622    1    1    2    0    0 -0.78529451597E-02 -0.32454421608E-02  0.34355508846E+01  0.34357942433E+01  0.40000000000E-01 0. -1.
</event>
<event>
 5   0  0.7212170E+07  0.9118800E+02  0.7818608E-02  0.1180000E+00
       11   -1    0    0    0    0  0.00000000000E+00  0.00000000000E+00  0.39999999673E+01  0.40000000000E+01  0.51109989000E-03 0.  1.
     -623   -1    0    0    0    0  0.00000000000E+00  0.00000000000E+00  0.12525980253E-10  0.17130000000E+03  0.17130000000E+03 0.  1.
       11    1    1    2    0    0 -0.30919980054E-03  0.36561845665E-04 -0.12146788510E-02  0.13541082283E-02  0.51109989000E-03 0.  1.
     -623    1    1    2    0    0  0.19583180971E-02 -0.19801617135E-02  0.27696846671E-02  0.17130000005E+03  0.17130000000E+03 0.  1.
      622    1    1    2    0    0 -0.16491182966E-02  0.19435998678E-02  0.39984449616E+01  0.39986458468E+01  0.40000000000E-01 0.  1.
</event>
<event>
 5   0  0.7212170E+07  0.9118800E+02  0.7818608E-02  0.1180000E+00
       11   -1    0    0    0    0  0.00000000000E+00  0.00000000000E+00  0.39999999673E+01  0.40000000000E+01  0.51109989000E-03 0.  1.
     -623   -1    0    0    0    0  0.00000000000E+00  0.00000000000E+00  0.12525980253E-10  0.17130000000E+03  0.17130000000E+03 0. -1.
       11    1    1    2    0    0 -0.28239324743E-02  0.86258719530E-02  0.94440755749E+00  0.94445130956E+00  0.51109989000E-03 0.  1.
     -623    1    1    2    0    0 -0.55836508687E-02 -0.98626825212E-02  0.31774308712E-03  0.17130000038E+03  0.17130000000E+03 0. -1.
      622    1    1    2    0    0  0.84075833444E-02  0.12368105707E-02  0.30552746678E+01  0.30555483162E+01  0.40000000000E-01 0.  1.
</event>
<event>
 5   0  0.7212170E+07  0.9118800E+02  0.7818608E-02  0.1180000E+00
       11   -1    0    0    0    0  0.00000000000E+00  0.00000000000E+00  0.39999999673E+01  0.40000000000E+01  0.51109989000E-03 0.  1.
     -623   -1    0    0    0    0  0.00000000000E+00  0.00000000000E+00  0.12525980253E-10  0.17130000000E+03  0.17130000000E+03 0.  1.
       11    1    1    2    0    0 -0.56937949808E-02  0.44733462913E-03  0.32980536177E+00  0.32985520654E+00  0.51109989000E-03 0.  1.
     -623    1    1    2    0    0  0.53820631516E-02 -0.23404616600E-02  0.26839593716E-03  0.17130000010E+03  0.17130000000E+03 0.  1.
      622    1    1    2    0    0  0.31173182803E-03  0.18931270314E-02  0.36699262105E+01  0.36701446936E+01  0.40000000000E-01 0.  1.
</event>
<event>
 5   0  0.7212170E+07  0.9118800E+02  0.7818608E-02  0.1180000E+00
       11   -1    0    0    0    0  0.00000000000E+00  0.00000000000E+00  0.39999999673E+01  0.40000000000E+01  0.51109989000E-03 0. -1.
     -623   -1    0    0    0    0  0.00000000000E+00  0.00000000000E+00  0.12525980253E-10  0.17130000000E+03  0.17130000000E+03 0.  1.
       11    1    1    2    0    0 -0.39844049012E-03  0.23059365565E-01  0.11701335209E+01  0.11703608892E+01  0.51109989000E-03 0. -1.
     -623    1    1    2    0    0  0.34069402612E-02  0.71512013908E-02  0.67314734347E-03  0.17130000018E+03  0.17130000000E+03 0.  1.
      622    1    1    2    0    0 -0.30084997715E-02 -0.30210566957E-01  0.28291932997E+01  0.28296389269E+01  0.40000000000E-01 0.  0.
</event>
<event>
 5   0  0.7212170E+07  0.9118800E+02  0.7818608E-02  0.1180000E+00
       11   -1    0    0    0    0  0.00000000000E+00  0.00000000000E+00  0.39999999673E+01  0.40000000000E+01  0.51109989000E-03 0.  1.
     -623   -1    0    0    0    0  0.00000000000E+00  0.00000000000E+00  0.12525980253E-10  0.17130000000E+03  0.17130000000E+03 0.  1.
       11    1    1    2    0    0  0.28635778293E-03 -0.14956816074E-02  0.15876352389E-02  0.22585112353E-02  0.51109989000E-03 0.  1.
     -623    1    1    2    0    0 -0.97006198490E-03  0.12822869675E-02  0.87103527857E-03  0.17130000001E+03  0.17130000000E+03 0.  1.
      622    1    1    2    0    0  0.68370420190E-03  0.21339464002E-03  0.39975412966E+01  0.39977414787E+01  0.40000000000E-01 0.  1.
</event>
<event>
 5   0  0.7212170E+07  0.9118800E+02  0.7818608E-02  0.1180000E+00
       11   -1    0    0    0    0  0.00000000000E+00  0.00000000000E+00  0.39999999673E+01  0.40000000000E+01  0.51109989000E-03 0. -1.
     -623   -1    0    0    0    0  0.00000000000E+00  0.00000000000E+00  0.12525980253E-10  0.17130000000E+03  0.17130000000E+03 0. -1.
       11    1    1    2    0    0  0.18101231262E-02 -0.27099801788E-02  0.11187573699E+00  0.11192435967E+00  0.51109989000E-03 0. -1.
     -623    1    1    2    0    0 -0.61455661541E-03 -0.34846604831E-03  0.25574126046E-03  0.17130000000E+03  0.17130000000E+03 0. -1.
      622    1    1    2    0    0 -0.11955665108E-02  0.30584462271E-02  0.38878684890E+01  0.38880756386E+01  0.40000000000E-01 0. -1.
</event>
<event>
 5   0  0.7212170E+07  0.9118800E+02  0.7818608E-02  0.1180000E+00
       11   -1    0    0    0    0  0.00000000000E+00  0.00000000000E+00  0.39999999673E+01  0.40000000000E+01  0.51109989000E-03 0. -1.
     -623   -1    0    0    0    0  0.00000000000E+00  0.00000000000E+00  0.12525980253E-10  0.17130000000E+03  0.17130000000E+03 0.  1.
       11    1    1    2    0    0  0.40219341405E-02  0.66778896070E-02  0.70132794673E-01  0.70566566273E-01  0.51109989000E-03 0. -1.
     -623    1    1    2    0    0  0.10527330797E-03 -0.29473347312E-02  0.64130106074E-03  0.17130000003E+03  0.17130000000E+03 0.  1.
      622    1    1    2    0    0 -0.41272074484E-02 -0.37305548758E-02  0.39292258716E+01  0.39294334071E+01  0.40000000000E-01 0. -1.
</event>
<event>
 5   0  0.7212170E+07  0.9118800E+02  0.7818608E-02  0.1180000E+00
       11   -1    0    0    0    0  0.00000000000E+00  0.00000000000E+00  0.39999999673E+01  0.40000000000E+01  0.51109989000E-03 0. -1.
     -623   -1    0    0    0    0  0.00000000000E+00  0.00000000000E+00  0.12525980253E-10  0.17130000000E+03  0.17130000000E+03 0. -1.
       11    1    1    2    0    0 -0.68730750004E-03  0.71032594627E-02  0.32458705330E-01  0.33237891952E-01  0.51109989000E-03 0. -1.
     -623    1    1    2    0    0  0.44590484418E-02 -0.13646052572E-01  0.98862876333E-03  0.17130000060E+03  0.17130000000E+03 0. -1.
      622    1    1    2    0    0 -0.37717409416E-02  0.65427931089E-02  0.39665526331E+01  0.39667615035E+01  0.40000000000E-01 0. -1.
</event>
<event>
 5   0  0.7212170E+07  0.9118800E+02  0.7818608E-02  0.1180000E+00
       11   -1    0    0    0    0  0.00000000000E+00  0.00000000000E+00  0.39999999673E+01  0.40000000000E+01  0.51109989000E-03 0. -1.
     -623   -1    0    0    0    0  0.00000000000E+00  0.00000000000E+00  0.12525980253E-10  0.17130000000E+03  0.17130000000E+03 0.  1.
       11    1    1    2    0    0  0.13203029680E-01  0.10859617730E-01  0.14645218394E+01  0.14646217022E+01  0.51109989000E-03 0. -1.
     -623    1    1    2    0    0  0.21344763220E-02 -0.89455184586E-03  0.48138465692E-03  0.17130000002E+03  0.17130000000E+03 0.  1.
      622    1    1    2    0    0 -0.15337506002E-01 -0.99650658836E-02  0.25349967438E+01  0.25353782820E+01  0.40000000000E-01 0. -1.
</event>
<event>
 5   0  0.7212170E+07  0.9118800E+02  0.7818608E-02  0.1180000E+00
       11   -1    0    0    0    0  0.00000000000E+00  0.00000000000E+00  0.39999999673E+01  0.40000000000E+01  0.51109989000E-03 0. -1.
     -623   -1    0    0    0    0  0.00000000000E+00  0.00000000000E+00  0.12525980253E-10  0.17130000000E+03  0.17130000000E+03 0.  1.
       11    1    1    2    0    0 -0.96465830446E-03  0.16460758951E-03  0.10942384166E-01  0.10997938699E-01  0.51109989000E-03 0. -1.
     -623    1    1    2    0    0 -0.17649018606E-03 -0.21832042101E-03  0.25624236571E-03  0.17130000000E+03  0.17130000000E+03 0.  1.
      622    1    1    2    0    0  0.11411484906E-02  0.53712831613E-04  0.39888013429E+01  0.39890020630E+01  0.40000000000E-01 0. -1.
</event>
<event>
 5   0  0.7212170E+07  0.9118800E+02  0.7818608E-02  0.1180000E+00
       11   -1    0    0    0    0  0.00000000000E+00  0.00000000000E+00  0.39999999673E+01  0.40000000000E+01  0.51109989000E-03 0.  1.
     -623   -1    0    0    0    0  0.00000000000E+00  0.00000000000E+00  0.12525980253E-10  0.17130000000E+03  0.17130000000E+03 0. -1.
       11    1    1    2    0    0  0.22135699045E-02 -0.59075800425E-02  0.36885101094E+00  0.36890531155E+00  0.51109989000E-03 0.  1.
     -623    1    1    2    0    0 -0.66750150701E-02  0.55198946351E-02  0.27757481558E-03  0.17130000022E+03  0.17130000000E+03 0. -1.
      622    1    1    2    0    0  0.44614451685E-02  0.38768540497E-03  0.36308713833E+01  0.36310944710E+01  0.40000000000E-01 0.  1.
</event>
<event>
 5   0  0.7212170E+07  0.9118800E+02  0.7818608E-02  0.1180000E+00
       11   -1    0    0    0    0  0.00000000000E+00  0.00000000000E+00  0.39999999673E+01  0.40000000000E+01  0.51109989000E-03 0.  1.
     -623   -1    0    0    0    0  0.00000000000E+00  0.00000000000E+00  0.12525980253E-10  0.17130000000E+03  0.17130000000E+03 0.  1.
       11    1    1    2    0    0 -0.17430818461E-01 -0.40193712567E-02  0.21634421413E+00  0.21708309236E+00  0.51109989000E-03 0.  1.
     -623    1    1    2    0    0  0.11569183647E-01  0.95471167158E-02  0.95956844448E-03  0.17130000066E+03  0.17130000000E+03 0.  1.
      622    1    1    2    0    0  0.58616348135E-02 -0.55277454591E-02  0.37826961848E+01  0.37829162482E+01  0.40000000000E-01 0.  1.
</event>
<event>
 5   0  0.7212170E+07  0.9118800E+02  0.7818608E-02  0.1180000E+00
       11   -1    0    0    0    0  0.00000000000E+00  0.00000000000E+00  0.39999999673E+01  0.40000000000E+01  0.51109989000E-03 0.  1.
     -623   -1    0    0    0    0  0.00000000000E+00  0.00000000000E+00  0.12525980253E-10  0.17130000000E+03  0.17130000000E+03 0.  1.
       11    1    1    2    0    0 -0.22777988239E-02  0.59201035207E-02  0.20936611857E+00  0.20946281011E+00  0.51109989000E-03 0.  1.
     -623    1    1    2    0    0  0.72986882833E-02  0.31116763963E-03  0.31632031150E-03  0.17130000016E+03  0.17130000000E+03 0.  1.
      622    1    1    2    0    0 -0.50208894577E-02 -0.62312711603E-02  0.37903175276E+01  0.37905370329E+01  0.40000000000E-01 0.  1.
</event>
<event>
 5   0  0.7212170E+07  0.9118800E+02  0.7818608E-02  0.1180000E+00
       11   -1    0    0    0    0  0.00000000000E+00  0.00000000000E+00  0.39999999673E+01  0.40000000000E+01  0.51109989000E-03 0. -1.
     -623   -1    0    0    0    0  0.00000000000E+00  0.00000000000E+00  0.12525980253E-10  0.17130000000E+03  0.17130000000E+03 0. -1.
       11    1    1    2    0    0  0.17559270939E-02  0.33713920643E-02  0.11869140632E+00  0.11875336089E+00  0.51109989000E-03 0. -1.
     -623    1    1    2    0    0 -0.27089237747E-02 -0.41311942320E-02  0.26830956847E-03  0.17130000007E+03  0.17130000000E+03 0. -1.
      622    1    1    2    0    0  0.95299668115E-03  0.75980216818E-03  0.38810402519E+01  0.38812465681E+01  0.40000000000E-01 0. -1.
</event>
<event>
 5   0  0.7212170E+07  0.9118800E+02  0.7818608E-02  0.1180000E+00
       11   -1    0    0    0    0  0.00000000000E+00  0.00000000000E+00  0.39999999673E+01  0.40000000000E+01  0.51109989000E-03 0. -1.
     -623   -1    0    0    0    0  0.00000000000E+00  0.00000000000E+00  0.12525980253E-10  0.17130000000E+03  0.17130000000E+03 0. -1.
       11    1    1    2    0    0 -0.10221041293E-01 -0.88553532635E-02  0.70816863716E+00  0.70829793650E+00  0.51109989000E-03 0. -1.
     -623    1    1    2    0    0  0.60936159209E-02  0.88426362337E-02  0.37523596379E-03  0.17130000034E+03  0.17130000000E+03 0. -1.
      622    1    1    2    0    0  0.41274253735E-02  0.12717031611E-04  0.32914560934E+01  0.32917017256E+01  0.40000000000E-01 0. -1.
</event>
<event>
 5   0  0.7212170E+07  0.9118800E+02  0.7818608E-02  0.1180000E+00
       11   -1    0    0    0    0  0.00000000000E+00  0.00000000000E+00  0.39999999673E+01  0.40000000000E+01  0.51109989000E-03 0.  1.
     -623   -1    0    0    0    0  0.00000000000E+00  0.00000000000E+00  0.12525980253E-10  0.17130000000E+03  0.17130000000E+03 0. -1.
       11    1    1    2    0    0  0.14650659812E-01 -0.88809194167E-02  0.58951319309E-01  0.61392441179E-01  0.51109989000E-03 0.  1.
     -623    1    1    2    0    0 -0.17475998468E-01 -0.20865842561E-02  0.26614212001E-02  0.17130000092E+03  0.17130000000E+03 0. -1.
      622    1    1    2    0    0  0.28253386565E-02  0.10967503673E-01  0.39383872268E+01  0.39386066339E+01  0.40000000000E-01 0.  1.
</event>
<event>
 5   0  0.7212170E+07  0.9118800E+02  0.7818608E-02  0.1180000E+00
       11   -1    0    0    0    0  0.00000000000E+00  0.00000000000E+00  0.39999999673E+01  0.40000000000E+01  0.51109989000E-03 0. -1.
     -623   -1    0    0    0    0  0.00000000000E+00  0.00000000000E+00  0.12525980253E-10  0.17130000000E+03  0.17130000000E+03 0. -1.
       11    1    1    2    0    0 -0.68785041734E-02  0.67570594147E-02  0.33111427781E-01  0.34490571819E-01  0.51109989000E-03 0. -1.
     -623    1    1    2    0    0  0.24589434128E-02  0.21932987199E-02  0.15934593291E-02  0.17130000004E+03  0.17130000000E+03 0. -1.
      622    1    1    2    0    0  0.44195607607E-02 -0.89503581345E-02  0.39652950802E+01  0.39655093890E+01  0.40000000000E-01 0. -1.
</event>
<event>
 5   0  0.7212170E+07  0.9118800E+02  0.7818608E-02  0.1180000E+00
       11   -1    0    0    0    0  0.00000000000E+00  0.00000000000E+00  0.39999999673E+01  0.40000000000E+01  0.51109989000E-03 0. -1.
     -623   -1    0    0    0    0  0.00000000000E+00  0.00000000000E+00  0.12525980253E-10  0.17130000000E+03  0.17130000000E+03 0.  1.
       11    1    1    2    0    0  0.12125846616E-01 -0.12066364109E-02  0.11665303213E+01  0.11665940785E+01  0.51109989000E-03 0. -1.
     -623    1    1    2    0    0 -0.30001493044E-03 -0.84753719948E-03  0.37151314491E-03  0.17130000000E+03  0.17130000000E+03 0.  1.
      622    1    1    2    0    0 -0.11825831686E-01  0.20541736106E-02  0.28330981337E+01  0.28334059196E+01  0.40000000000E-01 0. -1.
</event>
<event>
 5   0  0.7212170E+07  0.9118800E+02  0.7818608E-02  0.1180000E+00
       11   -1    0    0    0    0  0.00000000000E+00  0.00000000000E+00  0.39999999673E+01  0.40000000000E+01  0.51109989000E-03 0. -1.
     -623   -1    0    0    0    0  0.00000000000E+00  0.00000000000E+00  0.12525980253E-10  0.17130000000E+03  0.17130000000E+03 0.  1.
       11    1    1    2    0    0 -0.60786581153E-02 -0.10902849413E-01  0.12325117461E+00  0.12388274890E+00  0.51109989000E-03 0. -1.
     -623    1    1    2    0    0 -0.92883380141E-03  0.79055912184E-03  0.85747195692E-03  0.17130000001E+03  0.17130000000E+03 0.  1.
      622    1    1    2    0    0  0.70074919168E-02  0.10112290291E-01  0.38758913213E+01  0.38761172451E+01  0.40000000000E-01 0. -1.
</event>
<event>
 5   0  0.7212170E+07  0.9118800E+02  0.7818608E-02  0.1180000E+00
       11   -1    0    0    0    0  0.00000000000E+00  0.00000000000E+00  0.39999999673E+01  0.40000000000E+01  0.51109989000E-03 0. -1.
     -623   -1    0    0    0    0  0.00000000000E+00  0.00000000000E+00  0.12525980253E-10  0.17130000000E+03  0.17130000000E+03 0. -1.
       11    1    1    2    0    0 -0.28520877146E-03  0.69307352143E-03  0.11256370965E-01  0.11292865241E-01  0.51109989000E-03 0. -1.
     -623    1    1    2    0    0 -0.27352797072E-04 -0.87367511530E-03  0.23705165067E-03  0.17130000000E+03  0.17130000000E+03 0. -1.
      622    1    1    2    0    0  0.31256156854E-03  0.18060159392E-03  0.39885065449E+01  0.39887071326E+01  0.40000000000E-01 0. -1.
</event>
<event>
 5   0  0.7212170E+07  0.9118800E+02  0.7818608E-02  0.1180000E+00
       11   -1    0    0    0    0  0.00000000000E+00  0.00000000000E+00  0.39999999673E+01  0.40000000000E+01  0.51109989000E-03 0. -1.
     -623   -1    0    0    0    0  0.00000000000E+00  0.00000000000E+00  0.12525980253E-10  0.17130000000E+03  0.17130000000E+03 0.  1.
       11    1    1    2    0    0  0.13246939255E-02 -0.25681660903E-02  0.15083796206E-02  0.32995034840E-02  0.51109989000E-03 0. -1.
     -623    1    1    2    0    0 -0.52804862502E-02 -0.10598304232E-02  0.19949621223E-02  0.17130000010E+03  0.17130000000E+03 0.  1.
      622    1    1    2    0    0  0.39557923246E-02  0.36279965136E-02  0.39964966256E+01  0.39967004002E+01  0.40000000000E-01 0. -1.
</event>
<event>
 5   0  0.7212170E+07  0.9118800E+02  0.7818608E-02  0.1180000E+00
       11   -1    0    0    0    0  0.00000000000E+00  0.00000000000E+00  0.39999999673E+01  0.40000000000E+01  0.51109989000E-03 0. -1.
     -623   -1    0    0    0    0  0.00000000000E+00  0.00000000000E+00  0.12525980253E-10  0.17130000000E+03  0.17130000000E+03 0.  1.
       11    1    1    2    0    0  0.33392361732E-02 -0.15703693080E-01  0.94173546267E+00  0.94187244324E+00  0.51109989000E-03 0. -1.
     -623    1    1    2    0    0  0.21272455570E-02  0.22667093420E-01  0.41288539330E-03  0.17130000151E+03  0.17130000000E+03 0.  1.
      622    1    1    2    0    0 -0.54664817310E-02 -0.69634003490E-02  0.30578516209E+01  0.30581260449E+01  0.40000000000E-01 0. -1.
</event>
<event>
 5   0  0.7212170E+07  0.9118800E+02  0.7818608E-02  0.1180000E+00
       11   -1    0    0    0    0  0.00000000000E+00  0.00000000000E+00  0.39999999673E+01  0.40000000000E+01  0.51109989000E-03 0.  1.
     -623   -1    0    0    0    0  0.00000000000E+00  0.00000000000E+00  0.12525980253E-10  0.17130000000E+03  0.17130000000E+03 0.  1.
       11    1    1    2    0    0 -0.37779493400E-02 -0.45172900621E-01  0.37791505075E+01  0.37794224008E+01  0.51109989000E-03 0.  1.
     -623    1    1    2    0    0  0.17044429551E-01  0.16773415297E-01  0.62075230462E-02  0.17130000178E+03  0.17130000000E+03 0.  1.
      622    1    1    2    0    0 -0.13266480211E-01  0.28399485324E-01  0.21464193684E+00  0.22057581761E+00  0.40000000000E-01 0. -1.
</event>
<event>
 5   0  0.7212170E+07  0.9118800E+02  0.7818608E-02  0.1180000E+00
       11   -1    0    0    0    0  0.00000000000E+00  0.00000000000E+00  0.39999999673E+01  0.40000000000E+01  0.51109989000E-03 0.  1.
     -623   -1    0    0    0    0  0.00000000000E+00  0.00000000000E+00  0.12525980253E-10  0.17130000000E+03  0.17130000000E+03 0. -1.
       11    1    1    2    0    0  0.12115095545E-01  0.44854644882E-02  0.26537683473E+00  0.26569158919E+00  0.51109989000E-03 0.  1.
     -623    1    1    2    0    0  0.10473728504E-02 -0.48659230467E-02  0.55224886186E-03  0.17130000007E+03  0.17130000000E+03 0. -1.
      622    1    1    2    0    0 -0.13162468395E-01  0.38045855839E-03  0.37340708837E+01  0.37343083375E+01  0.40000000000E-01 0.  1.
</event>
<event>
 5   0  0.7212170E+07  0.9118800E+02  0.7818608E-02  0.1180000E+00
       11   -1    0    0    0    0  0.00000000000E+00  0.00000000000E+00  0.39999999673E+01  0.40000000000E+01  0.51109989000E-03 0. -1.
     -623   -1    0    0    0    0  0.00000000000E+00  0.00000000000E+00  0.12525980253E-10  0.17130000000E+03  0.17130000000E+03 0.  1.
       11    1    1    2    0    0 -0.64184648140E-01  0.74103814742E-01  0.70147073230E+00  0.70828842565E+00  0.51109989000E-03 0. -1.
     -623    1    1    2    0    0 -0.73508738906E-02  0.13295982403E-01  0.89999311405E-02  0.17130000091E+03  0.17130000000E+03 0.  1.
      622    1    1    2    0    0  0.71535522031E-01 -0.87399797145E-01  0.32895293040E+01  0.32917106643E+01  0.40000000000E-01 0. -1.
</event>
<event>
 5   0  0.7212170E+07  0.9118800E+02  0.7818608E-02  0.1180000E+00
       11   -1    0    0    0    0  0.00000000000E+00  0.00000000000E+00  0.39999999673E+01  0.40000000000E+01  0.51109989000E-03 0. -1.
     -623   -1    0    0    0    0  0.00000000000E+00  0.00000000000E+00  0.12525980253E-10  0.17130000000E+03  0.17130000000E+03 0.  1.
       11    1    1    2    0    0 -0.46197262976E-02  0.11282769820E-01  0.78183541498E+00  0.78193063638E+00  0.51109989000E-03 0. -1.
     -623    1    1    2    0    0  0.45996382634E-02 -0.25472697126E-02  0.35573301317E-03  0.17130000008E+03  0.17130000000E+03 0.  1.
      622    1    1    2    0    0  0.20088033781E-04 -0.87355001071E-02  0.32178088197E+01  0.32180692829E+01  0.40000000000E-01 0. -1.
</event>
<event>
 5   0  0.7212170E+07  0.9118800E+02  0.7818608E-02  0.1180000E+00
       11   -1    0    0    0    0  0.00000000000E+00  0.00000000000E+00  0.39999999673E+01  0.40000000000E+01  0.51109989000E-03 0. -1.
     -623   -1    0    0    0    0  0.00000000000E+00  0.00000000000E+00  0.12525980253E-10  0.17130000000E+03  0.17130000000E+03 0.  1.
       11    1    1    2    0    0 -0.98654292843E-02 -0.16568711275E-01  0.48229562664E+00  0.48268124222E+00  0.51109989000E-03 0. -1.
     -623    1    1    2    0    0  0.24063972595E-02  0.21868736291E-02  0.65038269486E-03  0.17130000003E+03  0.17130000000E+03 0.  1.
      622    1    1    2    0    0  0.74590320248E-02  0.14381837645E-01  0.35170539582E+01  0.35173187258E+01  0.40000000000E-01 0.  0.
</event>
<event>
 5   0  0.7212170E+07  0.9118800E+02  0.7818608E-02  0.1180000E+00
       11   -1    0    0    0    0  0.00000000000E+00  0.00000000000E+00  0.39999999673E+01  0.40000000000E+01  0.51109989000E-03 0.  1.
     -623   -1    0    0    0    0  0.00000000000E+00  0.00000000000E+00  0.12525980253E-10  0.17130000000E+03  0.17130000000E+03 0. -1.
       11    1    1    2    0    0  0.11959169203E-01 -0.36746322024E-01  0.22086653322E+01  0.22090034235E+01  0.51109989000E-03 0.  1.
     -623    1    1    2    0    0  0.50388277854E-02  0.18427799086E-01  0.96025769358E-03  0.17130000107E+03  0.17130000000E+03 0. -1.
      622    1    1    2    0    0 -0.16997996988E-01  0.18318522939E-01  0.17903743770E+01  0.17909955081E+01  0.40000000000E-01 0.  1.
</event>
<event>
 5   0  0.7212170E+07  0.9118800E+02  0.7818608E-02  0.1180000E+00
       11   -1    0    0    0    0  0.00000000000E+00  0.00000000000E+00  0.39999999673E+01  0.40000000000E+01  0.51109989000E-03 0.  1.
     -623   -1    0    0    0    0  0.00000000000E+00  0.00000000000E+00  0.12525980253E-10  0.17130000000E+03  0.17130000000E+03 0. -1.
       11    1    1    2    0    0  0.11614958700E-03  0.14566258828E-01  0.41370383356E+00  0.41396052048E+00  0.51109989000E-03 0.  1.
     -623    1    1    2    0    0  0.18183003532E-02  0.80215313946E-03  0.51321645421E-03  0.17130000001E+03  0.17130000000E+03 0. -1.
      622    1    1    2    0    0 -0.19344499400E-02 -0.15368411967E-01  0.35857829170E+01  0.35860394668E+01  0.40000000000E-01 0.  1.
</event>
<event>
 5   0  0.7212170E+07  0.9118800E+02  0.7818608E-02  0.1180000E+00
       11   -1    0    0    0    0  0.00000000000E+00  0.00000000000E+00  0.39999999673E+01  0.40000000000E+01  0.51109989000E-03 0.  1.
     -623   -1    0    0    0    0  0.00000000000E+00  0.00000000000E+00  0.12525980253E-10  0.17130000000E+03  0.17130000000E+03 0. -1.
       11    1    1    2    0    0  0.48213893672E-02 -0.21599611108E-02  0.92374579615E-02  0.10653782432E-01  0.51109989000E-03 0.  1.
     -623    1    1    2    0    0  0.10278304621E-02 -0.11444418700E-02  0.16225024852E-02  0.17130000001E+03  0.17130000000E+03 0. -1.
      622    1    1    2    0    0 -0.58492198292E-02  0.33044029807E-02  0.39891400067E+01  0.39893462028E+01  0.40000000000E-01 0.  1.
</event>
<event>
 5   0  0.7212170E+07  0.9118800E+02  0.7818608E-02  0.1180000E+00
       11   -1    0    0    0    0  0.00000000000E+00  0.00000000000E+00  0.39999999673E+01  0.40000000000E+01  0.51109989000E-03 0.  1.
     -623   -1    0    0    0    0  0.00000000000E+00  0.00000000000E+00  0.12525980253E-10  0.17130000000E+03  0.17130000000E+03 0.  1.
       11    1    1    2    0    0 -0.29631414675E-01  0.33757528069E-03  0.23754532778E+01  0.23756381608E+01  0.51109989000E-03 0.  1.
     -623    1    1    2    0    0  0.27968129699E-01  0.19213438861E-02  0.68214512350E-03  0.17130000230E+03  0.17130000000E+03 0.  1.
      622    1    1    2    0    0  0.16632849785E-02 -0.22589191666E-02  0.16238645441E+01  0.16243595436E+01  0.40000000000E-01 0.  1.
</event>
<event>
 5   0  0.7212170E+07  0.9118800E+02  0.7818608E-02  0.1180000E+00
       11   -1    0    0    0    0  0.00000000000E+00  0.00000000000E+00  0.39999999673E+01  0.40000000000E+01  0.51109989000E-03 0.  1.
     -623   -1    0    0    0    0  0.00000000000E+00  0.00000000000E+00  0.12525980253E-10  0.17130000000E+03  0.17130000000E+03 0. -1.
       11    1    1    2    0    0 -0.62060222829E-02  0.10229951450E-01  0.62160949782E+00  0.62172485524E+00  0.51109989000E-03 0.  1.
     -623    1    1    2    0    0  0.57668187383E-02 -0.30902236389E-03  0.36683498988E-03  0.17130000010E+03  0.17130000000E+03 0. -1.
      622    1    1    2    0    0  0.43920354424E-03 -0.99209290865E-02  0.33780236348E+01  0.33782750473E+01  0.40000000000E-01 0.  1.
</event>
<event>
 5   0  0.7212170E+07  0.9118800E+02  0.7818608E-02  0.1180000E+00
       11   -1    0    0    0    0  0.00000000000E+00  0.00000000000E+00  0.39999999673E+01  0.40000000000E+01  0.51109989000E-03 0. -1.
     -623   -1    0    0    0    0  0.00000000000E+00  0.00000000000E+00  0.12525980253E-10  0.17130000000E+03  0.17130000000E+03 0.  1.
       11    1    1    2    0    0  0.36577392588E-02 -0.79962798030E-04  0.16813955930E-01  0.17214987297E-01  0.51109989000E-03 0. -1.
     -623    1    1    2    0    0 -0.92419382546E-02 -0.18251624606E-02  0.60649901183E-03  0.17130000026E+03  0.17130000000E+03 0.  1.
      622    1    1    2    0    0  0.55841989962E-02  0.19051252587E-02  0.39825795126E+01  0.39827847528E+01  0.40000000000E-01 0. -1.
</event>
<event>
 5   0  0.7212170E+07  0.9118800E+02  0.7818608E-02  0.1180000E+00
       11   -1    0    0    0    0  0.00000000000E+00  0.00000000000E+00  0.39999999673E+01  0.40000000000E+01  0.51109989000E-03 0.  1.
     -623   -1    0    0    0    0  0.00000000000E+00  0.00000000000E+00  0.12525980253E-10  0.17130000000E+03  0.17130000000E+03 0.  1.
       11    1    1    2    0    0  0.10499448810E-02  0.16467598350E-02  0.34814209435E-01  0.34872691377E-01  0.51109989000E-03 0.  1.
     -623    1    1    2    0    0 -0.41661425040E-02 -0.58334497430E-02  0.26379860808E-03  0.17130000015E+03  0.17130000000E+03 0.  1.
      622    1    1    2    0    0  0.31161976228E-02  0.41866899078E-02  0.39649219592E+01  0.39651271583E+01  0.40000000000E-01 0.  1.
</event>
<event>
 5   0  0.7212170E+07  0.9118800E+02  0.7818608E-02  0.1180000E+00
       11   -1    0    0    0    0  0.00000000000E+00  0.00000000000E+00  0.39999999673E+01  0.40000000000E+01  0.51109989000E-03 0.  1.
     -623   -1    0    0    0    0  0.00000000000E+00  0.00000000000E+00  0.12525980253E-10  0.17130000000E+03  0.17130000000E+03 0. -1.
       11    1    1    2    0    0 -0.19484032394E-02 -0.30420480624E-02  0.12759941731E+00  0.12765156815E+00  0.51109989000E-03 0.  1.
     -623    1    1    2    0    0 -0.35863485491E-02  0.10542681821E-02  0.26322353101E-03  0.17130000004E+03  0.17130000000E+03 0. -1.
      622    1    1    2    0    0  0.55347517901E-02  0.19877798799E-02  0.38721373283E+01  0.38723483926E+01  0.40000000000E-01 0.  0.
</event>
<event>
 5   0  0.7212170E+07  0.9118800E+02  0.7818608E-02  0.1180000E+00
       11   -1    0    0    0    0  0.00000000000E+00  0.00000000000E+00  0.39999999673E+01  0.40000000000E+01  0.51109989000E-03 0. -1.
     -623   -1    0    0    0    0  0.00000000000E+00  0.00000000000E+00  0.12525980253E-10  0.17130000000E+03  0.17130000000E+03 0. -1.
       11    1    1    2    0    0 -0.23896766323E-01  0.32797020731E-01  0.16360746260E+01  0.16365778757E+01  0.51109989000E-03 0. -1.
     -623    1    1    2    0    0  0.90563253459E-02  0.18244580855E-02  0.11422245966E-02  0.17130000025E+03  0.17130000000E+03 0. -1.
      622    1    1    2    0    0  0.14840440977E-01 -0.34621478816E-01  0.23627831170E+01  0.23634218717E+01  0.40000000000E-01 0. -1.
</event>
<event>
 5   0  0.7212170E+07  0.9118800E+02  0.7818608E-02  0.1180000E+00
       11   -1    0    0    0    0  0.00000000000E+00  0.00000000000E+00  0.39999999673E+01  0.40000000000E+01  0.51109989000E-03 0.  1.
     -623   -1    0    0    0    0  0.00000000000E+00  0.00000000000E+00  0.12525980253E-10  0.17130000000E+03  0.17130000000E+03 0.  1.
       11    1    1    2    0    0 -0.13995876838E-03 -0.72004602227E-03  0.33573370435E+00  0.33573489470E+00  0.51109989000E-03 0.  1.
     -623    1    1    2    0    0 -0.11227938830E-03  0.58381363293E-03  0.21950140915E-03  0.17130000000E+03  0.17130000000E+03 0.  1.
      622    1    1    2    0    0  0.25223815666E-03  0.13623238942E-03  0.36640467611E+01  0.36642651036E+01  0.40000000000E-01 0.  1.
</event>
<event>
 5   0  0.7212170E+07  0.9118800E+02  0.7818608E-02  0.1180000E+00
       11   -1    0    0    0    0  0.00000000000E+00  0.00000000000E+00  0.39999999673E+01  0.40000000000E+01  0.51109989000E-03 0. -1.
     -623   -1    0    0    0    0  0.00000000000E+00  0.00000000000E+00  0.12525980253E-10  0.17130000000E+03  0.17130000000E+03 0. -1.
       11    1    1    2    0    0  0.10327326790E-03 -0.52127237848E-01  0.10133976538E+01  0.10147375649E+01  0.51109989000E-03 0. -1.
     -623    1    1    2    0    0 -0.13506311377E-01  0.91461645038E-02  0.19482147521E-02  0.17130000079E+03  0.17130000000E+03 0. -1.
      622    1    1    2    0    0  0.13403038109E-01  0.42981073344E-01  0.29846540989E+01  0.29852616475E+01  0.40000000000E-01 0. -1.
</event>
<event>
 5   0  0.7212170E+07  0.9118800E+02  0.7818608E-02  0.1180000E+00
       11   -1    0    0    0    0  0.00000000000E+00  0.00000000000E+00  0.39999999673E+01  0.40000000000E+01  0.51109989000E-03 0.  1.
     -623   -1    0    0    0    0  0.00000000000E+00  0.00000000000E+00  0.12525980253E-10  0.17130000000E+03  0.17130000000E+03 0. -1.
       11    1    1    2    0    0  0.23787081450E-01 -0.54493230852E-01  0.19201016060E+01  0.19210220655E+01  0.51109989000E-03 0.  1.
     -623    1    1    2    0    0 -0.39406170489E-02  0.97279336209E-02  0.18824667423E-02  0.17130000033E+03  0.17130000000E+03 0. -1.
      622    1    1    2    0    0 -0.19846464401E-01  0.44765297231E-01  0.20780158946E+01  0.20789776026E+01  0.40000000000E-01 0.  0.
</event>
<event>
 5   0  0.7212170E+07  0.9118800E+02  0.7818608E-02  0.1180000E+00
       11   -1    0    0    0    0  0.00000000000E+00  0.00000000000E+00  0.39999999673E+01  0.40000000000E+01  0.51109989000E-03 0.  1.
     -623   -1    0    0    0    0  0.00000000000E+00  0.00000000000E+00  0.12525980253E-10  0.17130000000E+03  0.17130000000E+03 0. -1.
       11    1    1    2    0    0 -0.44663649561E-02 -0.22589424510E-02  0.77657773355E-01  0.77820577115E-01  0.51109989000E-03 0.  1.
     -623    1    1    2    0    0  0.51758932300E-03 -0.72011291484E-03  0.36986664645E-03  0.17130000000E+03  0.17130000000E+03 0. -1.
      622    1    1    2    0    0  0.39487756330E-02  0.29790553659E-02  0.39219723275E+01  0.39221794204E+01  0.40000000000E-01 0.  1.
</event>
<event>
 5   0  0.7212170E+07  0.9118800E+02  0.7818608E-02  0.1180000E+00
       11   -1    0    0    0    0  0.00000000000E+00  0.00000000000E+00  0.39999999673E+01  0.40000000000E+01  0.51109989000E-03 0.  1.
     -623   -1    0    0    0    0  0.00000000000E+00  0.00000000000E+00  0.12525980253E-10  0.17130000000E+03  0.17130000000E+03 0.  1.
       11    1    1    2    0    0 -0.11664550433E-02  0.19898888486E-03  0.11602914656E-02  0.17342760239E-02  0.51109989000E-03 0.  1.
     -623    1    1    2    0    0  0.23440199621E-02 -0.28837283517E-03  0.77423612263E-03  0.17130000002E+03  0.17130000000E+03 0.  1.
      622    1    1    2    0    0 -0.11775649186E-02  0.89383950281E-04  0.39980654394E+01  0.39982657056E+01  0.40000000000E-01 0.  1.
</event>
<event>
 5   0  0.7212170E+07  0.9118800E+02  0.7818608E-02  0.1180000E+00
       11   -1    0    0    0    0  0.00000000000E+00  0.00000000000E+00  0.39999999673E+01  0.40000000000E+01  0.51109989000E-03 0. -1.
     -623   -1    0    0    0    0  0.00000000000E+00  0.00000000000E+00  0.12525980253E-10  0.17130000000E+03  0.17130000000E+03 0. -1.
       11    1    1    2    0    0  0.17468124446E-02  0.83180364157E-03  0.15264821711E+00  0.15266133322E+00  0.51109989000E-03 0. -1.
     -623    1    1    2    0    0 -0.20709823903E-02  0.10309564511E-02  0.22150542770E-03  0.17130000002E+03  0.17130000000E+03 0. -1.
      622    1    1    2    0    0  0.32416994619E-03 -0.18627600928E-02  0.38471302456E+01  0.38473386518E+01  0.40000000000E-01 0. -1.
</event>
<event>
 5   0  0.7212170E+07  0.9118800E+02  0.7818608E-02  0.1180000E+00
       11   -1    0    0    0    0  0.00000000000E+00  0.00000000000E+00  0.39999999673E+01  0.40000000000E+01  0.51109989000E-03 0. -1.
     -623   -1    0    0    0    0  0.00000000000E+00  0.00000000000E+00  0.12525980253E-10  0.17130000000E+03  0.17130000000E+03 0. -1.
       11    1    1    2    0    0 -0.41829177057E-02  0.30969318448E-04  0.82669529587E-01  0.82776869383E-01  0.51109989000E-03 0. -1.
     -623    1    1    2    0    0  0.11679315943E-01 -0.15763406250E-02  0.31942267000E-03  0.17130000041E+03  0.17130000000E+03 0. -1.
      622    1    1    2    0    0 -0.74963982428E-02  0.15453713073E-02  0.39170110169E+01  0.39172227267E+01  0.40000000000E-01 0. -1.
</event>
<event>
 5   0  0.7212170E+07  0.9118800E+02  0.7818608E-02  0.1180000E+00
       11   -1    0    0    0    0  0.00000000000E+00  0.00000000000E+00  0.39999999673E+01  0.40000000000E+01  0.51109989000E-03 0. -1.
     -623   -1    0    0    0    0  0.00000000000E+00  0.00000000000E+00  0.12525980253E-10  0.17130000000E+03  0.17130000000E+03 0. -1.
       11    1    1    2    0    0 -0.40156586795E-02  0.29241775085E-01  0.13591712008E+01  0.13594917511E+01  0.51109989000E-03 0. -1.
     -623    1    1    2    0    0 -0.41489648233E-02 -0.18617077187E-02  0.77816943331E-03  0.17130000006E+03  0.17130000000E+03 0. -1.
      622    1    1    2    0    0  0.81646235030E-02 -0.27380067366E-01  0.26400505973E+01  0.26405081869E+01  0.40000000000E-01 0.  1.
</event>
<event>
 5   0  0.7212170E+07  0.9118800E+02  0.7818608E-02  0.1180000E+00
       11   -1    0    0    0    0  0.00000000000E+00  0.00000000000E+00  0.39999999673E+01  0.40000000000E+01  0.51109989000E-03 0.  1.
     -623   -1    0    0    0    0  0.00000000000E+00  0.00000000000E+00  0.12525980253E-10  0.17130000000E+03  0.17130000000E+03 0. -1.
       11    1    1    2    0    0  0.13482958961E-02  0.13096851982E-02  0.68865832653E-01  0.68893376367E-01  0.51109989000E-03 0.  1.
     -623    1    1    2    0    0 -0.29493213063E-03 -0.40279861769E-02  0.23215016566E-03  0.17130000005E+03  0.17130000000E+03 0. -1.
      622    1    1    2    0    0 -0.10533637654E-02  0.27183009800E-02  0.39309019858E+01  0.39311065771E+01  0.40000000000E-01 0.  1.
</event>
<event>
 5   0  0.7212170E+07  0.9118800E+02  0.7818608E-02  0.1180000E+00
       11   -1    0    0    0    0  0.00000000000E+00  0.00000000000E+00  0.39999999673E+01  0.40000000000E+01  0.51109989000E-03 0. -1.
     -623   -1    0    0    0    0  0.00000000000E+00  0.00000000000E+00  0.12525980253E-10  0.17130000000E+03  0.17130000000E+03 0.  1.
       11    1    1    2    0    0  0.31883747402E-02 -0.12843835514E-01  0.21838017452E+00  0.21878137876E+00  0.51109989000E-03 0. -1.
     -623    1    1    2    0    0  0.87874546894E-02  0.12494150880E-02  0.64972389292E-03  0.17130000023E+03  0.17130000000E+03 0.  1.
      622    1    1    2    0    0 -0.11975829432E-01  0.11594420426E-01  0.37809700699E+01  0.37812183910E+01  0.40000000000E-01 0. -1.
</event>
<event>
 5   0  0.7212170E+07  0.9118800E+02  0.7818608E-02  0.1180000E+00
       11   -1    0    0    0    0  0.00000000000E+00  0.00000000000E+00  0.39999999673E+01  0.40000000000E+01  0.51109989000E-03 0. -1.
     -623   -1    0    0    0    0  0.00000000000E+00  0.00000000000E+00  0.12525980253E-10  0.17130000000E+03  0.17130000000E+03 0. -1.
       11    1    1    2    0    0 -0.22345645661E-05 -0.13648874624E-03  0.29202511291E-02  0.29677809767E-02  0.51109989000E-03 0.  1.
     -623    1    1    2    0    0 -0.37065078658E-03 -0.32232079638E-03  0.24769532988E-03  0.17130000000E+03  0.17130000000E+03 0. -1.
      622    1    1    2    0    0  0.37288535110E-03  0.45880954259E-03  0.39968320204E+01  0.39970322176E+01  0.40000000000E-01 0. -1.
</event>
<event>
 5   0  0.7212170E+07  0.9118800E+02  0.7818608E-02  0.1180000E+00
       11   -1    0    0    0    0  0.00000000000E+00  0.00000000000E+00  0.39999999673E+01  0.40000000000E+01  0.51109989000E-03 0. -1.
     -623   -1    0    0    0    0  0.00000000000E+00  0.00000000000E+00  0.12525980253E-10  0.17130000000E+03  0.17130000000E+03 0.  1.
       11    1    1    2    0    0 -0.39235669279E-01 -0.10710431343E-01  0.22826253768E+01  0.22829877404E+01  0.51109989000E-03 0. -1.
     -623    1    1    2    0    0  0.10558827091E-01 -0.12548960996E-02  0.11099188326E-02  0.17130000033E+03  0.17130000000E+03 0.  1.
      622    1    1    2    0    0  0.28676842188E-01  0.11965327442E-01  0.17162646716E+01  0.17170119258E+01  0.40000000000E-01 0.  0.
</event>
<event>
 5   0  0.7212170E+07  0.9118800E+02  0.7818608E-02  0.1180000E+00
       11   -1    0    0    0    0  0.00000000000E+00  0.00000000000E+00  0.39999999673E+01  0.40000000000E+01  0.51109989000E-03 0.  1.
     -623   -1    0    0    0    0  0.00000000000E+00  0.00000000000E+00  0.12525980253E-10  0.17130000000E+03  0.17130000000E+03 0.  1.
       11    1    1    2    0    0  0.26072322267E-02 -0.39772802653E-02  0.64756757366E+00  0.64758523771E+00  0.51109989000E-03 0.  1.
     -623    1    1    2    0    0  0.88848630737E-04  0.34587026535E-03  0.25932557948E-03  0.17130000000E+03  0.17130000000E+03 0.  1.
      622    1    1    2    0    0 -0.26960808575E-02  0.36314099999E-02  0.33521730681E+01  0.33524147617E+01  0.40000000000E-01 0.  1.
</event>
<event>
 5   0  0.7212170E+07  0.9118800E+02  0.7818608E-02  0.1180000E+00
       11   -1    0    0    0    0  0.00000000000E+00  0.00000000000E+00  0.39999999673E+01  0.40000000000E+01  0.51109989000E-03 0. -1.
     -623   -1    0    0    0    0  0.00000000000E+00  0.00000000000E+00  0.12525980253E-10  0.17130000000E+03  0.17130000000E+03 0. -1.
       11    1    1    2    0    0  0.92367631529E-02 -0.69414527736E-03  0.43310278438E+00  0.43320212683E+00  0.51109989000E-03 0. -1.
     -623    1    1    2    0    0  0.92181652176E-03 -0.10440645462E-02  0.33850448556E-03  0.17130000001E+03  0.17130000000E+03 0. -1.
      622    1    1    2    0    0 -0.10158579675E-01  0.17382098236E-02  0.35665586789E+01  0.35667978676E+01  0.40000000000E-01 0. -1.
</event>
<event>
 5   0  0.7212170E+07  0.9118800E+02  0.7818608E-02  0.1180000E+00
       11   -1    0    0    0    0  0.00000000000E+00  0.00000000000E+00  0.39999999673E+01  0.40000000000E+01  0.51109989000E-03 0.  1.
     -623   -1    0    0    0    0  0.00000000000E+00  0.00000000000E+00  0.12525980253E-10  0.17130000000E+03  0.17130000000E+03 0.  1.
       11    1    1    2    0    0  0.40562514581E-03  0.32335334088E-02  0.79574899646E-02  0.86141244302E-02  0.51109989000E-03 0.  1.
     -623    1    1    2    0    0  0.16296578200E-02 -0.17597593783E-02  0.85784847535E-03  0.17130000002E+03  0.17130000000E+03 0.  1.
      622    1    1    2    0    0 -0.20352829658E-02 -0.14737740305E-02  0.39911846288E+01  0.39913858565E+01  0.40000000000E-01 0.  1.
</event>
<event>
 5   0  0.7212170E+07  0.9118800E+02  0.7818608E-02  0.1180000E+00
       11   -1    0    0    0    0  0.00000000000E+00  0.00000000000E+00  0.39999999673E+01  0.40000000000E+01  0.51109989000E-03 0. -1.
     -623   -1    0    0    0    0  0.00000000000E+00  0.00000000000E+00  0.12525980253E-10  0.17130000000E+03  0.17130000000E+03 0.  1.
       11    1    1    2    0    0 -0.38554230521E-02 -0.36078770064E-02  0.11854256466E+00  0.11866120648E+00  0.51109989000E-03 0. -1.
     -623    1    1    2    0    0 -0.44623380951E-03  0.44059255405E-03  0.32840680088E-03  0.17130000000E+03  0.17130000000E+03 0.  1.
      622    1    1    2    0    0  0.43016568617E-02  0.31672844522E-02  0.38811289969E+01  0.38813387930E+01  0.40000000000E-01 0. -1.
</event>
<event>
 5   0  0.7212170E+07  0.9118800E+02  0.7818608E-02  0.1180000E+00
       11   -1    0    0    0    0  0.00000000000E+00  0.00000000000E+00  0.39999999673E+01  0.40000000000E+01  0.51109989000E-03 0. -1.
     -623   -1    0    0    0    0  0.00000000000E+00  0.00000000000E+00  0.12525980253E-10  0.17130000000E+03  0.17130000000E+03 0. -1.
       11    1    1    2    0    0  0.29162233393E-01 -0.23671490037E-01  0.15430163053E+01  0.15434734708E+01  0.51109989000E-03 0. -1.
     -623    1    1    2    0    0 -0.75920203426E-02 -0.22779300720E-02  0.10148050481E-02  0.17130000019E+03  0.17130000000E+03 0. -1.
      622    1    1    2    0    0 -0.21570213051E-01  0.25949420109E-01  0.24559688566E+01  0.24565263425E+01  0.40000000000E-01 0.  0.
</event>
<event>
 5   0  0.7212170E+07  0.9118800E+02  0.7818608E-02  0.1180000E+00
       11   -1    0    0    0    0  0.00000000000E+00  0.00000000000E+00  0.39999999673E+01  0.40000000000E+01  0.51109989000E-03 0.  1.
     -623   -1    0    0    0    0  0.00000000000E+00  0.00000000000E+00  0.12525980253E-10  0.17130000000E+03  0.17130000000E+03 0.  1.
       11    1    1    2    0    0 -0.26695300763E-02  0.31119558359E-02  0.14117258861E+00  0.14123304025E+00  0.51109989000E-03 0.  1.
     -623    1    1    2    0    0 -0.21920553887E-02 -0.67220210754E-02  0.27264228432E-03  0.17130000015E+03  0.17130000000E+03 0.  1.
      622    1    1    2    0    0  0.48615854649E-02  0.36100652392E-02  0.38585547363E+01  0.38587668134E+01  0.40000000000E-01 0.  0.
</event>
<event>
 5   0  0.7212170E+07  0.9118800E+02  0.7818608E-02  0.1180000E+00
       11   -1    0    0    0    0  0.00000000000E+00  0.00000000000E+00  0.39999999673E+01  0.40000000000E+01  0.51109989000E-03 0. -1.
     -623   -1    0    0    0    0  0.00000000000E+00  0.00000000000E+00  0.12525980253E-10  0.17130000000E+03  0.17130000000E+03 0. -1.
       11    1    1    2    0    0  0.10551196031E-01  0.43666532332E-02  0.47290483640E+00  0.47304295885E+00  0.51109989000E-03 0. -1.
     -623    1    1    2    0    0  0.16465419134E-02 -0.89286608524E-03  0.38773696970E-03  0.17130000001E+03  0.17130000000E+03 0. -1.
      622    1    1    2    0    0 -0.12197737945E-01 -0.34737871477E-02  0.35267073953E+01  0.35269570318E+01  0.40000000000E-01 0. -1.
</event>
<event>
 5   0  0.7212170E+07  0.9118800E+02  0.7818608E-02  0.1180000E+00
       11   -1    0    0    0    0  0.00000000000E+00  0.00000000000E+00  0.39999999673E+01  0.40000000000E+01  0.51109989000E-03 0. -1.
     -623   -1    0    0    0    0  0.00000000000E+00  0.00000000000E+00  0.12525980253E-10  0.17130000000E+03  0.17130000000E+03 0.  1.
       11    1    1    2    0    0 -0.10423529964E-02 -0.16833216902E-02  0.45139423496E-02  0.49554989976E-02  0.51109989000E-03 0. -1.
     -623    1    1    2    0    0  0.62726851647E-03 -0.27320498417E-03  0.64228036146E-03  0.17130000000E+03  0.17130000000E+03 0.  1.
      622    1    1    2    0    0  0.41508447998E-03  0.19565266744E-02  0.39948437446E+01  0.39950444984E+01  0.40000000000E-01 0. -1.
</event>
<event>
 5   0  0.7212170E+07  0.9118800E+02  0.7818608E-02  0.1180000E+00
       11   -1    0    0    0    0  0.00000000000E+00  0.00000000000E+00  0.39999999673E+01  0.40000000000E+01  0.51109989000E-03 0. -1.
     -623   -1    0    0    0    0  0.00000000000E+00  0.00000000000E+00  0.12525980253E-10  0.17130000000E+03  0.17130000000E+03 0.  1.
       11    1    1    2    0    0  0.57848403849E-02 -0.58566241319E-02  0.59493920898E+00  0.59499637648E+00  0.51109989000E-03 0. -1.
     -623    1    1    2    0    0 -0.17375091635E-02 -0.49079731241E-02  0.31159317519E-03  0.17130000008E+03  0.17130000000E+03 0.  1.
      622    1    1    2    0    0 -0.40473312212E-02  0.10764597257E-01  0.34047491658E+01  0.34050035447E+01  0.40000000000E-01 0. -1.
</event>
<event>
 5   0  0.7212170E+07  0.9118800E+02  0.7818608E-02  0.1180000E+00
       11   -1    0    0    0    0  0.00000000000E+00  0.00000000000E+00  0.39999999673E+01  0.40000000000E+01  0.51109989000E-03 0. -1.
     -623   -1    0    0    0    0  0.00000000000E+00  0.00000000000E+00  0.12525980253E-10  0.17130000000E+03  0.17130000000E+03 0.  1.
       11    1    1    2    0    0 -0.24228409479E-03  0.98568785302E-03  0.88539610867E-03  0.14406357947E-02  0.51109989000E-03 0. -1.
     -623    1    1    2    0    0  0.53652175905E-03 -0.37215201028E-03  0.75534491824E-03  0.17130000000E+03  0.17130000000E+03 0.  1.
      622    1    1    2    0    0 -0.29423766428E-03 -0.61353584272E-03  0.39983592265E+01  0.39985593615E+01  0.40000000000E-01 0. -1.
</event>
<event>
 5   0  0.7212170E+07  0.9118800E+02  0.7818608E-02  0.1180000E+00
       11   -1    0    0    0    0  0.00000000000E+00  0.00000000000E+00  0.39999999673E+01  0.40000000000E+01  0.51109989000E-03 0.  1.
     -623   -1    0    0    0    0  0.00000000000E+00  0.00000000000E+00  0.12525980253E-10  0.17130000000E+03  0.17130000000E+03 0. -1.
       11    1    1    2    0    0  0.29951993507E-02 -0.92750191354E-03  0.19002943904E-01  0.19266670160E-01  0.51109989000E-03 0.  1.
     -623    1    1    2    0    0 -0.47868254465E-02 -0.13161364154E-02  0.46577477971E-03  0.17130000007E+03  0.17130000000E+03 0. -1.
      622    1    1    2    0    0  0.17916260961E-02  0.22436383291E-02  0.39805312489E+01  0.39807332575E+01  0.40000000000E-01 0.  1.
</event>
<event>
 5   0  0.7212170E+07  0.9118800E+02  0.7818608E-02  0.1180000E+00
       11   -1    0    0    0    0  0.00000000000E+00  0.00000000000E+00  0.39999999673E+01  0.40000000000E+01  0.51109989000E-03 0.  1.
     -623   -1    0    0    0    0  0.00000000000E+00  0.00000000000E+00  0.12525980253E-10  0.17130000000E+03  0.17130000000E+03 0. -1.
       11    1    1    2    0    0 -0.19183285181E-01  0.94906282976E-02  0.13448091187E+01  0.13449795156E+01  0.51109989000E-03 0.  1.
     -623    1    1    2    0    0 -0.11111271566E-02 -0.46437742084E-02  0.55376249794E-03  0.17130000007E+03  0.17130000000E+03 0. -1.
      622    1    1    2    0    0  0.20294412338E-01 -0.48468540889E-02  0.26546370865E+01  0.26550204172E+01  0.40000000000E-01 0.  1.
</event>
<event>
 5   0  0.7212170E+07  0.9118800E+02  0.7818608E-02  0.1180000E+00
       11   -1    0    0    0    0  0.00000000000E+00  0.00000000000E+00  0.39999999673E+01  0.40000000000E+01  0.51109989000E-03 0.  1.
     -623   -1    0    0    0    0  0.00000000000E+00  0.00000000000E+00  0.12525980253E-10  0.17130000000E+03  0.17130000000E+03 0. -1.
       11    1    1    2    0    0 -0.28980088059E-02  0.38457166057E-02  0.76051352034E-01  0.76205363070E-01  0.51109989000E-03 0.  1.
     -623    1    1    2    0    0 -0.88238954137E-03 -0.37612388470E-03  0.36122630836E-03  0.17130000000E+03  0.17130000000E+03 0. -1.
      622    1    1    2    0    0  0.37803983477E-02 -0.34695927209E-02  0.39235873908E+01  0.39237946357E+01  0.40000000000E-01 0.  1.
</event>
<event>
 5   0  0.7212170E+07  0.9118800E+02  0.7818608E-02  0.1180000E+00
       11   -1    0    0    0    0  0.00000000000E+00  0.00000000000E+00  0.39999999673E+01  0.40000000000E+01  0.51109989000E-03 0.  1.
     -623   -1    0    0    0    0  0.00000000000E+00  0.00000000000E+00  0.12525980253E-10  0.17130000000E+03  0.17130000000E+03 0. -1.
       11    1    1    2    0    0  0.15392299487E-02 -0.15784889160E-02  0.59645229692E-02  0.63794681158E-02  0.51109989000E-03 0.  1.
     -623    1    1    2    0    0 -0.71297768921E-02  0.64850825687E-03  0.61940924707E-03  0.17130000015E+03  0.17130000000E+03 0. -1.
      622    1    1    2    0    0  0.55905469446E-02  0.92998065901E-03  0.39934160358E+01  0.39936203818E+01  0.40000000000E-01 0.  1.
</event>
<event>
 5   0  0.7212170E+07  0.9118800E+02  0.7818608E-02  0.1180000E+00
       11   -1    0    0    0    0  0.00000000000E+00  0.00000000000E+00  0.39999999673E+01  0.40000000000E+01  0.51109989000E-03 0.  1.
     -623   -1    0    0    0    0  0.00000000000E+00  0.00000000000E+00  0.12525980253E-10  0.17130000000E+03  0.17130000000E+03 0.  1.
       11    1    1    2    0    0 -0.13511175363E-01  0.88362212141E-02  0.29291571933E+00  0.29336071741E+00  0.51109989000E-03 0.  1.
     -623    1    1    2    0    0 -0.22282074313E-01 -0.83911108927E-02  0.83531757143E-03  0.17130000166E+03  0.17130000000E+03 0.  1.
      622    1    1    2    0    0  0.35793249677E-01 -0.44511032091E-03  0.37062489307E+01  0.37066376261E+01  0.40000000000E-01 0.  1.
</event>
<event>
 5   0  0.7212170E+07  0.9118800E+02  0.7818608E-02  0.1180000E+00
       11   -1    0    0    0    0  0.00000000000E+00  0.00000000000E+00  0.39999999673E+01  0.40000000000E+01  0.51109989000E-03 0.  1.
     -623   -1    0    0    0    0  0.00000000000E+00  0.00000000000E+00  0.12525980253E-10  0.17130000000E+03  0.17130000000E+03 0.  1.
       11    1    1    2    0    0 -0.36927563193E-01 -0.24261026940E-01  0.84391011462E+00  0.84506614246E+00  0.51109989000E-03 0.  1.
     -623    1    1    2    0    0 -0.19596379246E-02  0.94317810220E-02  0.16843995484E-02  0.17130000028E+03  0.17130000000E+03 0.  1.
      622    1    1    2    0    0  0.38887201117E-01  0.14829245917E-01  0.31544054535E+01  0.31549335787E+01  0.40000000000E-01 0.  1.
</event>
<event>
 5   0  0.7212170E+07  0.9118800E+02  0.7818608E-02  0.1180000E+00
       11   -1    0    0    0    0  0.00000000000E+00  0.00000000000E+00  0.39999999673E+01  0.40000000000E+01  0.51109989000E-03 0. -1.
     -623   -1    0    0    0    0  0.00000000000E+00  0.00000000000E+00  0.12525980253E-10  0.17130000000E+03  0.17130000000E+03 0. -1.
       11    1    1    2    0    0  0.21709337362E-02  0.65636948877E-02  0.58442317842E-01  0.58852024449E-01  0.51109989000E-03 0. -1.
     -623    1    1    2    0    0  0.23712307781E-02 -0.89734491129E-02  0.61627259976E-03  0.17130000025E+03  0.17130000000E+03 0. -1.
      622    1    1    2    0    0 -0.45421645142E-02  0.24097542246E-02  0.39409413767E+01  0.39411477228E+01  0.40000000000E-01 0. -1.
</event>
<event>
 5   0  0.7212170E+07  0.9118800E+02  0.7818608E-02  0.1180000E+00
       11   -1    0    0    0    0  0.00000000000E+00  0.00000000000E+00  0.39999999673E+01  0.40000000000E+01  0.51109989000E-03 0.  1.
     -623   -1    0    0    0    0  0.00000000000E+00  0.00000000000E+00  0.12525980253E-10  0.17130000000E+03  0.17130000000E+03 0.  1.
       11    1    1    2    0    0  0.48143958326E-03 -0.10946233860E-02  0.30965109829E-02  0.33585097580E-02  0.51109989000E-03 0.  1.
     -623    1    1    2    0    0 -0.58977523786E-03 -0.31647119170E-04  0.46230102678E-03  0.17130000000E+03  0.17130000000E+03 0.  1.
      622    1    1    2    0    0  0.10833565456E-03  0.11262705051E-02  0.39964411551E+01  0.39966414883E+01  0.40000000000E-01 0.  1.
</event>
<event>
 5   0  0.7212170E+07  0.9118800E+02  0.7818608E-02  0.1180000E+00
       11   -1    0    0    0    0  0.00000000000E+00  0.00000000000E+00  0.39999999673E+01  0.40000000000E+01  0.51109989000E-03 0. -1.
     -623   -1    0    0    0    0  0.00000000000E+00  0.00000000000E+00  0.12525980253E-10  0.17130000000E+03  0.17130000000E+03 0.  1.
       11    1    1    2    0    0  0.85496412075E-03  0.52344310859E-03  0.25807678101E-02  0.28154115015E-02  0.51109989000E-03 0. -1.
     -623    1    1    2    0    0 -0.74931668490E-03  0.58947867972E-03  0.43491647457E-03  0.17130000000E+03  0.17130000000E+03 0.  1.
      622    1    1    2    0    0 -0.10564743574E-03 -0.11129217884E-02  0.39969842836E+01  0.39971845858E+01  0.40000000000E-01 0. -1.
</event>
<event>
 5   0  0.7212170E+07  0.9118800E+02  0.7818608E-02  0.1180000E+00
       11   -1    0    0    0    0  0.00000000000E+00  0.00000000000E+00  0.39999999673E+01  0.40000000000E+01  0.51109989000E-03 0. -1.
     -623   -1    0    0    0    0  0.00000000000E+00  0.00000000000E+00  0.12525980253E-10  0.17130000000E+03  0.17130000000E+03 0.  1.
       11    1    1    2    0    0 -0.35809927348E-03  0.27290597892E-02  0.33740610155E-01  0.33856550314E-01  0.51109989000E-03 0. -1.
     -623    1    1    2    0    0 -0.31475691747E-03  0.13236769769E-03  0.31870990116E-03  0.17130000000E+03  0.17130000000E+03 0.  1.
      622    1    1    2    0    0  0.67285619105E-03 -0.28614274869E-02  0.39659406485E+01  0.39661434503E+01  0.40000000000E-01 0. -1.
</event>
<event>
 5   0  0.7212170E+07  0.9118800E+02  0.7818608E-02  0.1180000E+00
       11   -1    0    0    0    0  0.00000000000E+00  0.00000000000E+00  0.39999999673E+01  0.40000000000E+01  0.51109989000E-03 0. -1.
     -623   -1    0    0    0    0  0.00000000000E+00  0.00000000000E+00  0.12525980253E-10  0.17130000000E+03  0.17130000000E+03 0.  1.
       11    1    1    2    0    0  0.41073869652E-02 -0.43261672798E-02  0.74152684818E+00  0.74155101925E+00  0.51109989000E-03 0. -1.
     -623    1    1    2    0    0 -0.83832463540E-02  0.39465176634E-02  0.27274189359E-03  0.17130000025E+03  0.17130000000E+03 0.  1.
      622    1    1    2    0    0  0.42758593899E-02  0.37964961587E-03  0.32582003778E+01  0.32584487305E+01  0.40000000000E-01 0. -1.
</event>
<event>
 5   0  0.7212170E+07  0.9118800E+02  0.7818608E-02  0.1180000E+00
       11   -1    0    0    0    0  0.00000000000E+00  0.00000000000E+00  0.39999999673E+01  0.40000000000E+01  0.51109989000E-03 0. -1.
     -623   -1    0    0    0    0  0.00000000000E+00  0.00000000000E+00  0.12525980253E-10  0.17130000000E+03  0.17130000000E+03 0. -1.
       11    1    1    2    0    0 -0.41809655462E-02  0.13758689220E-01  0.16891498972E+01  0.16892111824E+01  0.51109989000E-03 0. -1.
     -623    1    1    2    0    0 -0.28982733609E-02 -0.15871773389E-02  0.45041888523E-03  0.17130000003E+03  0.17130000000E+03 0. -1.
      622    1    1    2    0    0  0.70792389067E-02 -0.12171511882E-01  0.23103996507E+01  0.23107887846E+01  0.40000000000E-01 0.  1.
</event>
<event>
 5   0  0.7212170E+07  0.9118800E+02  0.7818608E-02  0.1180000E+00
       11   -1    0    0    0    0  0.00000000000E+00  0.00000000000E+00  0.39999999673E+01  0.40000000000E+01  0.51109989000E-03 0.  1.
     -623   -1    0    0    0    0  0.00000000000E+00  0.00000000000E+00  0.12525980253E-10  0.17130000000E+03  0.17130000000E+03 0. -1.
       11    1    1    2    0    0 -0.14552539873E-02  0.12454317903E-02  0.25892793165E-01  0.25968573805E-01  0.51109989000E-03 0.  1.
     -623    1    1    2    0    0  0.64073133273E-04 -0.87470792335E-03  0.27732329142E-03  0.17130000000E+03  0.17130000000E+03 0. -1.
      622    1    1    2    0    0  0.13911808541E-02 -0.37072386686E-03  0.39738298513E+01  0.39740314241E+01  0.40000000000E-01 0.  1.
</event>
<event>
 5   0  0.7212170E+07  0.9118800E+02  0.7818608E-02  0.1180000E+00
       11   -1    0    0    0    0  0.00000000000E+00  0.00000000000E+00  0.39999999673E+01  0.40000000000E+01  0.51109989000E-03 0.  1.
     -623   -1    0    0    0    0  0.00000000000E+00  0.00000000000E+00  0.12525980253E-10  0.17130000000E+03  0.17130000000E+03 0.  1.
       11    1    1    2    0    0  0.45396878537E-02 -0.34084241716E-02  0.54078299439E+00  0.54081303088E+00  0.51109989000E-03 0.  1.
     -623    1    1    2    0    0 -0.91511578225E-03  0.33086256452E-03  0.26455093335E-03  0.17130000000E+03  0.17130000000E+03 0.  1.
      622    1    1    2    0    0 -0.36245720713E-02  0.30775616071E-02  0.34589524227E+01  0.34591869668E+01  0.40000000000E-01 0.  1.
</event>
<event>
 5   0  0.7212170E+07  0.9118800E+02  0.7818608E-02  0.1180000E+00
       11   -1    0    0    0    0  0.00000000000E+00  0.00000000000E+00  0.39999999673E+01  0.40000000000E+01  0.51109989000E-03 0. -1.
     -623   -1    0    0    0    0  0.00000000000E+00  0.00000000000E+00  0.12525980253E-10  0.17130000000E+03  0.17130000000E+03 0.  1.
       11    1    1    2    0    0  0.52629411185E-02 -0.15953630076E-01  0.20989293916E+00  0.21056477386E+00  0.51109989000E-03 0. -1.
     -623    1    1    2    0    0 -0.26926688194E-01  0.11586563515E-01  0.94987721206E-03  0.17130000251E+03  0.17130000000E+03 0.  1.
      622    1    1    2    0    0  0.21663747076E-01  0.43670665616E-02  0.37891571511E+01  0.37894327154E+01  0.40000000000E-01 0. -1.
</event>
<event>
 5   0  0.7212170E+07  0.9118800E+02  0.7818608E-02  0.1180000E+00
       11   -1    0    0    0    0  0.00000000000E+00  0.00000000000E+00  0.39999999673E+01  0.40000000000E+01  0.51109989000E-03 0.  1.
     -623   -1    0    0    0    0  0.00000000000E+00  0.00000000000E+00  0.12525980253E-10  0.17130000000E+03  0.17130000000E+03 0.  1.
       11    1    1    2    0    0 -0.15626799049E-01  0.75413389141E-02  0.24355753090E+00  0.24417534831E+00  0.51109989000E-03 0.  1.
     -623    1    1    2    0    0  0.13331699319E-02 -0.81002390346E-02  0.85823419397E-03  0.17130000020E+03  0.17130000000E+03 0.  1.
      622    1    1    2    0    0  0.14293629117E-01  0.55890012099E-03  0.37555842025E+01  0.37558244531E+01  0.40000000000E-01 0.  1.
</event>
<event>
 5   0  0.7212170E+07  0.9118800E+02  0.7818608E-02  0.1180000E+00
       11   -1    0    0    0    0  0.00000000000E+00  0.00000000000E+00  0.39999999673E+01  0.40000000000E+01  0.51109989000E-03 0. -1.
     -623   -1    0    0    0    0  0.00000000000E+00  0.00000000000E+00  0.12525980253E-10  0.17130000000E+03  0.17130000000E+03 0. -1.
       11    1    1    2    0    0  0.13331413187E-01  0.65409899741E-02  0.69259972820E+00  0.69275908934E+00  0.51109989000E-03 0. -1.
     -623    1    1    2    0    0 -0.12420372618E-02  0.34030833628E-02  0.43831822675E-03  0.17130000004E+03  0.17130000000E+03 0. -1.
      622    1    1    2    0    0 -0.12089375925E-01 -0.99440733365E-02  0.33069619204E+01  0.33072408712E+01  0.40000000000E-01 0. -1.
</event>
<event>
 5   0  0.7212170E+07  0.9118800E+02  0.7818608E-02  0.1180000E+00
       11   -1    0    0    0    0  0.00000000000E+00  0.00000000000E+00  0.39999999673E+01  0.40000000000E+01  0.51109989000E-03 0.  1.
     -623   -1    0    0    0    0  0.00000000000E+00  0.00000000000E+00  0.12525980253E-10  0.17130000000E+03  0.17130000000E+03 0.  1.
       11    1    1    2    0    0 -0.11616599904E-03 -0.15424102574E-01  0.39124737505E+00  0.39155163917E+00  0.51109989000E-03 0.  1.
     -623    1    1    2    0    0 -0.64304384825E-02  0.56372749823E-02  0.54536628092E-03  0.17130000021E+03  0.17130000000E+03 0.  1.
      622    1    1    2    0    0  0.65466044822E-02  0.97868275916E-02  0.36082072264E+01  0.36084481469E+01  0.40000000000E-01 0.  1.
</event>
<event>
 5   0  0.7212170E+07  0.9118800E+02  0.7818608E-02  0.1180000E+00
       11   -1    0    0    0    0  0.00000000000E+00  0.00000000000E+00  0.39999999673E+01  0.40000000000E+01  0.51109989000E-03 0. -1.
     -623   -1    0    0    0    0  0.00000000000E+00  0.00000000000E+00  0.12525980253E-10  0.17130000000E+03  0.17130000000E+03 0.  1.
       11    1    1    2    0    0 -0.10218796429E-02  0.77704575091E-03  0.71032732845E-02  0.72364184896E-02  0.51109989000E-03 0. -1.
     -623    1    1    2    0    0  0.70639643988E-03 -0.68572554718E-03  0.33349673142E-03  0.17130000000E+03  0.17130000000E+03 0.  1.
      622    1    1    2    0    0  0.31548320280E-03 -0.91320203486E-04  0.39925631988E+01  0.39927635798E+01  0.40000000000E-01 0. -1.
</event>
<event>
 5   0  0.7212170E+07  0.9118800E+02  0.7818608E-02  0.1180000E+00
       11   -1    0    0    0    0  0.00000000000E+00  0.00000000000E+00  0.39999999673E+01  0.40000000000E+01  0.51109989000E-03 0.  1.
     -623   -1    0    0    0    0  0.00000000000E+00  0.00000000000E+00  0.12525980253E-10  0.17130000000E+03  0.17130000000E+03 0. -1.
       11    1    1    2    0    0 -0.10993095843E-02 -0.57025370893E-02  0.39518369215E-01  0.39946090413E-01  0.51109989000E-03 0.  1.
     -623    1    1    2    0    0  0.45450660940E-03  0.35817854474E-03  0.63337228093E-03  0.17130000000E+03  0.17130000000E+03 0. -1.
      622    1    1    2    0    0  0.64480297477E-03  0.53443585445E-02  0.39598482267E+01  0.39600539082E+01  0.40000000000E-01 0.  1.
</event>
<event>
 5   0  0.7212170E+07  0.9118800E+02  0.7818608E-02  0.1180000E+00
       11   -1    0    0    0    0  0.00000000000E+00  0.00000000000E+00  0.39999999673E+01  0.40000000000E+01  0.51109989000E-03 0. -1.
     -623   -1    0    0    0    0  0.00000000000E+00  0.00000000000E+00  0.12525980253E-10  0.17130000000E+03  0.17130000000E+03 0.  1.
       11    1    1    2    0    0 -0.23198380072E-01 -0.46437769347E-02  0.23020532322E+01  0.23021748575E+01  0.51109989000E-03 0. -1.
     -623    1    1    2    0    0  0.17557124907E-02  0.66317601287E-02  0.72960036968E-03  0.17130000014E+03  0.17130000000E+03 0.  1.
      622    1    1    2    0    0  0.21442667581E-01 -0.19879831946E-02  0.16972171352E+01  0.16978250040E+01  0.40000000000E-01 0. -1.
</event>
<event>
 5   0  0.7212170E+07  0.9118800E+02  0.7818608E-02  0.1180000E+00
       11   -1    0    0    0    0  0.00000000000E+00  0.00000000000E+00  0.39999999673E+01  0.40000000000E+01  0.51109989000E-03 0. -1.
     -623   -1    0    0    0    0  0.00000000000E+00  0.00000000000E+00  0.12525980253E-10  0.17130000000E+03  0.17130000000E+03 0. -1.
       11    1    1    2    0    0  0.71150198127E-03 -0.20149665472E-02  0.11193599447E+00  0.11195755627E+00  0.51109989000E-03 0. -1.
     -623    1    1    2    0    0 -0.17662365889E-03  0.19019534540E-02  0.22734291444E-03  0.17130000001E+03  0.17130000000E+03 0. -1.
      622    1    1    2    0    0 -0.53487832238E-03  0.11301309315E-03  0.38878366301E+01  0.38880424330E+01  0.40000000000E-01 0. -1.
</event>
<event>
 5   0  0.7212170E+07  0.9118800E+02  0.7818608E-02  0.1180000E+00
       11   -1    0    0    0    0  0.00000000000E+00  0.00000000000E+00  0.39999999673E+01  0.40000000000E+01  0.51109989000E-03 0.  1.
     -623   -1    0    0    0    0  0.00000000000E+00  0.00000000000E+00  0.12525980253E-10  0.17130000000E+03  0.17130000000E+03 0. -1.
       11    1    1    2    0    0  0.51549721418E-02  0.35811362099E-02  0.91635945955E-01  0.91852088101E-01  0.51109989000E-03 0.  1.
     -623    1    1    2    0    0  0.24951805431E-02 -0.44828718689E-02  0.42848475618E-03  0.17130000008E+03  0.17130000000E+03 0. -1.
      622    1    1    2    0    0 -0.76501526855E-02  0.90173566018E-03  0.39079355377E+01  0.39081478356E+01  0.40000000000E-01 0.  1.
</event>
<event>
 5   0  0.7212170E+07  0.9118800E+02  0.7818608E-02  0.1180000E+00
       11   -1    0    0    0    0  0.00000000000E+00  0.00000000000E+00  0.39999999673E+01  0.40000000000E+01  0.51109989000E-03 0. -1.
     -623   -1    0    0    0    0  0.00000000000E+00  0.00000000000E+00  0.12525980253E-10  0.17130000000E+03  0.17130000000E+03 0. -1.
       11    1    1    2    0    0  0.12154958405E-02 -0.14150060109E-02  0.15131500853E+00  0.15132736931E+00  0.51109989000E-03 0. -1.
     -623    1    1    2    0    0 -0.20777612499E-02  0.50326742061E-03  0.22041570448E-03  0.17130000001E+03  0.17130000000E+03 0. -1.
      622    1    1    2    0    0  0.86226540987E-03  0.91173859023E-03  0.38484645439E+01  0.38486726180E+01  0.40000000000E-01 0. -1.
</event>
<event>
 5   0  0.7212170E+07  0.9118800E+02  0.7818608E-02  0.1180000E+00
       11   -1    0    0    0    0  0.00000000000E+00  0.00000000000E+00  0.39999999673E+01  0.40000000000E+01  0.51109989000E-03 0. -1.
     -623   -1    0    0    0    0  0.00000000000E+00  0.00000000000E+00  0.12525980253E-10  0.17130000000E+03  0.17130000000E+03 0.  1.
       11    1    1    2    0    0 -0.54737928886E-03  0.42478334114E-03  0.71233201113E-03  0.11174546811E-02  0.51109989000E-03 0. -1.
     -623    1    1    2    0    0  0.88502857426E-04 -0.38451015825E-03  0.60517897849E-03  0.17130000000E+03  0.17130000000E+03 0.  1.
      622    1    1    2    0    0  0.45887643142E-03 -0.40273182833E-04  0.39986824570E+01  0.39988825444E+01  0.40000000000E-01 0. -1.
</event>
<event>
 5   0  0.7212170E+07  0.9118800E+02  0.7818608E-02  0.1180000E+00
       11   -1    0    0    0    0  0.00000000000E+00  0.00000000000E+00  0.39999999673E+01  0.40000000000E+01  0.51109989000E-03 0. -1.
     -623   -1    0    0    0    0  0.00000000000E+00  0.00000000000E+00  0.12525980253E-10  0.17130000000E+03  0.17130000000E+03 0.  1.
       11    1    1    2    0    0 -0.51807278139E-02 -0.24775637521E-02  0.62070406153E+00  0.62073083658E+00  0.51109989000E-03 0. -1.
     -623    1    1    2    0    0  0.13981163296E-02  0.63237222222E-03  0.26611636535E-03  0.17130000001E+03  0.17130000000E+03 0.  1.
      622    1    1    2    0    0  0.37826114842E-02  0.18451915298E-02  0.33790297898E+01  0.33792691566E+01  0.40000000000E-01 0. -1.
</event>
<event>
 5   0  0.7212170E+07  0.9118800E+02  0.7818608E-02  0.1180000E+00
       11   -1    0    0    0    0  0.00000000000E+00  0.00000000000E+00  0.39999999673E+01  0.40000000000E+01  0.51109989000E-03 0. -1.
     -623   -1    0    0    0    0  0.00000000000E+00  0.00000000000E+00  0.12525980253E-10  0.17130000000E+03  0.17130000000E+03 0.  1.
       11    1    1    2    0    0 -0.57998617671E-03  0.57419181668E-02  0.93373093506E-01  0.93552668707E-01  0.51109989000E-03 0. -1.
     -623    1    1    2    0    0 -0.54802867813E-02 -0.37789574397E-02  0.38966164930E-03  0.17130000013E+03  0.17130000000E+03 0.  1.
      622    1    1    2    0    0  0.60602729579E-02 -0.19629607272E-02  0.39062372121E+01  0.39064472014E+01  0.40000000000E-01 0. -1.
</event>
<event>
 5   0  0.7212170E+07  0.9118800E+02  0.7818608E-02  0.1180000E+00
       11   -1    0    0    0    0  0.00000000000E+00  0.00000000000E+00  0.39999999673E+01  0.40000000000E+01  0.51109989000E-03 0. -1.
     -623   -1    0    0    0    0  0.00000000000E+00  0.00000000000E+00  0.12525980253E-10  0.17130000000E+03  0.17130000000E+03 0.  1.
       11    1    1    2    0    0 -0.10549584084E-02  0.41966026086E-02  0.19829126318E-01  0.20302213780E-01  0.51109989000E-03 0. -1.
     -623    1    1    2    0    0 -0.19679320928E-02  0.61943947374E-02  0.68891916770E-03  0.17130000012E+03  0.17130000000E+03 0.  1.
      622    1    1    2    0    0  0.30228905014E-02 -0.10390997346E-01  0.39794819221E+01  0.39796976618E+01  0.40000000000E-01 0. -1.
</event>
<event>
 5   0  0.7212170E+07  0.9118800E+02  0.7818608E-02  0.1180000E+00
       11   -1    0    0    0    0  0.00000000000E+00  0.00000000000E+00  0.39999999673E+01  0.40000000000E+01  0.51109989000E-03 0.  1.
     -623   -1    0    0    0    0  0.00000000000E+00  0.00000000000E+00  0.12525980253E-10  0.17130000000E+03  0.17130000000E+03 0.  1.
       11    1    1    2    0    0  0.13293656618E-02  0.44201439558E-02  0.55087632536E-01  0.55283029649E-01  0.51109989000E-03 0.  1.
     -623    1    1    2    0    0 -0.16607506514E-02 -0.86850277062E-03  0.39979616470E-03  0.17130000001E+03  0.17130000000E+03 0.  1.
      622    1    1    2    0    0  0.33138498956E-03 -0.35516411852E-02  0.39445125386E+01  0.39447169596E+01  0.40000000000E-01 0.  1.
</event>
<event>
 5   0  0.7212170E+07  0.9118800E+02  0.7818608E-02  0.1180000E+00
       11   -1    0    0    0    0  0.00000000000E+00  0.00000000000E+00  0.39999999673E+01  0.40000000000E+01  0.51109989000E-03 0. -1.
     -623   -1    0    0    0    0  0.00000000000E+00  0.00000000000E+00  0.12525980253E-10  0.17130000000E+03  0.17130000000E+03 0. -1.
       11    1    1    2    0    0  0.12534756269E-01  0.11537644332E-01  0.30438688544E+00  0.30486369840E+00  0.51109989000E-03 0. -1.
     -623    1    1    2    0    0  0.12738815014E-02  0.38260830551E-04  0.73723007023E-03  0.17130000001E+03  0.17130000000E+03 0. -1.
      622    1    1    2    0    0 -0.13808637771E-01 -0.11575905162E-01  0.36948758525E+01  0.36951362959E+01  0.40000000000E-01 0. -1.
</event>
<event>
 5   0  0.7212170E+07  0.9118800E+02  0.7818608E-02  0.1180000E+00
       11   -1    0    0    0    0  0.00000000000E+00  0.00000000000E+00  0.39999999673E+01  0.40000000000E+01  0.51109989000E-03 0.  1.
     -623   -1    0    0    0    0  0.00000000000E+00  0.00000000000E+00  0.12525980253E-10  0.17130000000E+03  0.17130000000E+03 0. -1.
       11    1    1    2    0    0  0.29200762902E-02 -0.83080060554E-02  0.94428137910E+00  0.94432257939E+00  0.51109989000E-03 0.  1.
     -623    1    1    2    0    0  0.13408822517E-01  0.24071926215E-01  0.38950315254E-03  0.17130000222E+03  0.17130000000E+03 0. -1.
      622    1    1    2    0    0 -0.16328898812E-01 -0.15763920167E-01  0.30553290863E+01  0.30556752052E+01  0.40000000000E-01 0.  0.
</event>
<event>
 5   0  0.7212170E+07  0.9118800E+02  0.7818608E-02  0.1180000E+00
       11   -1    0    0    0    0  0.00000000000E+00  0.00000000000E+00  0.39999999673E+01  0.40000000000E+01  0.51109989000E-03 0.  1.
     -623   -1    0    0    0    0  0.00000000000E+00  0.00000000000E+00  0.12525980253E-10  0.17130000000E+03  0.17130000000E+03 0.  1.
       11    1    1    2    0    0  0.99823927979E-02  0.17023663477E-01  0.14356176021E+00  0.14491270994E+00  0.51109989000E-03 0.  1.
     -623    1    1    2    0    0  0.13975649355E-01  0.29061170968E-01  0.19114229827E-02  0.17130000305E+03  0.17130000000E+03 0.  1.
      622    1    1    2    0    0 -0.23958042154E-01 -0.46084834447E-01  0.38545267845E+01  0.38550842445E+01  0.40000000000E-01 0.  1.
</event>
<event>
 5   0  0.7212170E+07  0.9118800E+02  0.7818608E-02  0.1180000E+00
       11   -1    0    0    0    0  0.00000000000E+00  0.00000000000E+00  0.39999999673E+01  0.40000000000E+01  0.51109989000E-03 0. -1.
     -623   -1    0    0    0    0  0.00000000000E+00  0.00000000000E+00  0.12525980253E-10  0.17130000000E+03  0.17130000000E+03 0. -1.
       11    1    1    2    0    0  0.69080478077E-03 -0.72111572169E-03  0.69935512334E-02  0.70829514386E-02  0.51109989000E-03 0. -1.
     -623    1    1    2    0    0 -0.32257152923E-03 -0.65596214154E-03  0.28998362844E-03  0.17130000000E+03  0.17130000000E+03 0. -1.
      622    1    1    2    0    0 -0.36823325140E-03  0.13770778635E-02  0.39927164343E+01  0.39929170485E+01  0.40000000000E-01 0. -1.
</event>
<event>
 5   0  0.7212170E+07  0.9118800E+02  0.7818608E-02  0.1180000E+00
       11   -1    0    0    0    0  0.00000000000E+00  0.00000000000E+00  0.39999999673E+01  0.40000000000E+01  0.51109989000E-03 0. -1.
     -623   -1    0    0    0    0  0.00000000000E+00  0.00000000000E+00  0.12525980253E-10  0.17130000000E+03  0.17130000000E+03 0. -1.
       11    1    1    2    0    0  0.11872017845E-02  0.22173189069E-02  0.28753027610E-02  0.38541588287E-02  0.51109989000E-03 0. -1.
     -623    1    1    2    0    0  0.25652035469E-02 -0.44550624769E-02  0.11814909807E-02  0.17130000008E+03  0.17130000000E+03 0. -1.
      622    1    1    2    0    0 -0.37524053315E-02  0.22377435701E-02  0.39959431737E+01  0.39961457600E+01  0.40000000000E-01 0. -1.
</event>
<event>
 5   0  0.7212170E+07  0.9118800E+02  0.7818608E-02  0.1180000E+00
       11   -1    0    0    0    0  0.00000000000E+00  0.00000000000E+00  0.39999999673E+01  0.40000000000E+01  0.51109989000E-03 0.  1.
     -623   -1    0    0    0    0  0.00000000000E+00  0.00000000000E+00  0.12525980253E-10  0.17130000000E+03  0.17130000000E+03 0.  1.
       11    1    1    2    0    0 -0.46152228742E-01  0.40165488410E-01  0.23411264382E+00  0.24197579610E+00  0.51109989000E-03 0.  1.
     -623    1    1    2    0    0  0.56549885693E-01 -0.44594681045E-02  0.82696216765E-02  0.17130000959E+03  0.17130000000E+03 0.  1.
      622    1    1    2    0    0 -0.10397656951E-01 -0.35706020306E-01  0.37576177019E+01  0.37580146121E+01  0.40000000000E-01 0.  1.
</event>
<event>
 5   0  0.7212170E+07  0.9118800E+02  0.7818608E-02  0.1180000E+00
       11   -1    0    0    0    0  0.00000000000E+00  0.00000000000E+00  0.39999999673E+01  0.40000000000E+01  0.51109989000E-03 0.  1.
     -623   -1    0    0    0    0  0.00000000000E+00  0.00000000000E+00  0.12525980253E-10  0.17130000000E+03  0.17130000000E+03 0. -1.
       11    1    1    2    0    0 -0.10951733197E-02  0.14296289731E-03  0.20992572980E-02  0.24265092810E-02  0.51109989000E-03 0.  1.
     -623    1    1    2    0    0  0.61897920930E-03 -0.12967378738E-03  0.52737611657E-03  0.17130000000E+03  0.17130000000E+03 0. -1.
      622    1    1    2    0    0  0.47619411043E-03 -0.13289109945E-04  0.39973733335E+01  0.39975734883E+01  0.40000000000E-01 0.  1.
</event>
<event>
 5   0  0.7212170E+07  0.9118800E+02  0.7818608E-02  0.1180000E+00
       11   -1    0    0    0    0  0.00000000000E+00  0.00000000000E+00  0.39999999673E+01  0.40000000000E+01  0.51109989000E-03 0. -1.
     -623   -1    0    0    0    0  0.00000000000E+00  0.00000000000E+00  0.12525980253E-10  0.17130000000E+03  0.17130000000E+03 0.  1.
       11    1    1    2    0    0  0.28743535684E-01  0.41639687957E-02  0.28782726505E+01  0.28784192262E+01  0.51109989000E-03 0. -1.
     -623    1    1    2    0    0  0.10001651554E-02 -0.57314782595E-02  0.12559626780E-02  0.17130000010E+03  0.17130000000E+03 0.  1.
      622    1    1    2    0    0 -0.29743700840E-01  0.15675094639E-02  0.11204713542E+01  0.11215806705E+01  0.40000000000E-01 0. -1.
</event>
<event>
 5   0  0.7212170E+07  0.9118800E+02  0.7818608E-02  0.1180000E+00
       11   -1    0    0    0    0  0.00000000000E+00  0.00000000000E+00  0.39999999673E+01  0.40000000000E+01  0.51109989000E-03 0. -1.
     -623   -1    0    0    0    0  0.00000000000E+00  0.00000000000E+00  0.12525980253E-10  0.17130000000E+03  0.17130000000E+03 0. -1.
       11    1    1    2    0    0 -0.35344527917E-03 -0.19868563569E-02  0.40130291691E-01  0.40184251344E-01  0.51109989000E-03 0. -1.
     -623    1    1    2    0    0  0.26814113587E-03  0.11898117859E-02  0.25604744116E-03  0.17130000000E+03  0.17130000000E+03 0. -1.
      622    1    1    2    0    0  0.85304143383E-04  0.79704457134E-03  0.39596136270E+01  0.39598157429E+01  0.40000000000E-01 0. -1.
</event>
<event>
 5   0  0.7212170E+07  0.9118800E+02  0.7818608E-02  0.1180000E+00
       11   -1    0    0    0    0  0.00000000000E+00  0.00000000000E+00  0.39999999673E+01  0.40000000000E+01  0.51109989000E-03 0. -1.
     -623   -1    0    0    0    0  0.00000000000E+00  0.00000000000E+00  0.12525980253E-10  0.17130000000E+03  0.17130000000E+03 0.  1.
       11    1    1    2    0    0 -0.15054948937E-02 -0.13759758805E-02  0.15150414256E-01  0.15295623548E-01  0.51109989000E-03 0.  1.
     -623    1    1    2    0    0  0.20109389509E-02  0.64454451127E-03  0.34606198567E-03  0.17130000001E+03  0.17130000000E+03 0.  1.
      622    1    1    2    0    0 -0.50544405721E-03  0.73143136924E-03  0.39845034912E+01  0.39847043632E+01  0.40000000000E-01 0. -1.
</event>
<event>
 5   0  0.7212170E+07  0.9118800E+02  0.7818608E-02  0.1180000E+00
       11   -1    0    0    0    0  0.00000000000E+00  0.00000000000E+00  0.39999999673E+01  0.40000000000E+01  0.51109989000E-03 0. -1.
     -623   -1    0    0    0    0  0.00000000000E+00  0.00000000000E+00  0.12525980253E-10  0.17130000000E+03  0.17130000000E+03 0.  1.
       11    1    1    2    0    0 -0.37822139126E-01  0.19056063643E-01  0.11408251751E+00  0.12169112455E+00  0.51109989000E-03 0. -1.
     -623    1    1    2    0    0  0.28441000826E-01  0.30860043636E-02  0.78919835730E-02  0.17130000257E+03  0.17130000000E+03 0.  1.
      622    1    1    2    0    0  0.93811383000E-02 -0.22142068007E-01  0.38780254663E+01  0.38783063048E+01  0.40000000000E-01 0. -1.
</event>
<event>
 5   0  0.7212170E+07  0.9118800E+02  0.7818608E-02  0.1180000E+00
       11   -1    0    0    0    0  0.00000000000E+00  0.00000000000E+00  0.39999999673E+01  0.40000000000E+01  0.51109989000E-03 0.  1.
     -623   -1    0    0    0    0  0.00000000000E+00  0.00000000000E+00  0.12525980253E-10  0.17130000000E+03  0.17130000000E+03 0.  1.
       11    1    1    2    0    0 -0.23275903459E-01  0.25264977597E-01  0.51777022840E+00  0.51890881416E+00  0.51109989000E-03 0.  1.
     -623    1    1    2    0    0 -0.16066678067E-02  0.31323288080E-01  0.19202119120E-02  0.17130000288E+03  0.17130000000E+03 0.  1.
      622    1    1    2    0    0  0.24882571266E-01 -0.56588265676E-01  0.34803095268E+01  0.34810883035E+01  0.40000000000E-01 0.  1.
</event>
<event>
 5   0  0.7212170E+07  0.9118800E+02  0.7818608E-02  0.1180000E+00
       11   -1    0    0    0    0  0.00000000000E+00  0.00000000000E+00  0.39999999673E+01  0.40000000000E+01  0.51109989000E-03 0.  1.
     -623   -1    0    0    0    0  0.00000000000E+00  0.00000000000E+00  0.12525980253E-10  0.17130000000E+03  0.17130000000E+03 0. -1.
       11    1    1    2    0    0 -0.38847923003E-02 -0.16741349960E-01  0.97604880434E+00  0.97620023258E+00  0.51109989000E-03 0.  1.
     -623    1    1    2    0    0 -0.16300827601E-01  0.19117375170E-02  0.52051274026E-03  0.17130000079E+03  0.17130000000E+03 0. -1.
      622    1    1    2    0    0  0.20185619898E-01  0.14829612443E-01  0.30234306493E+01  0.30237989794E+01  0.40000000000E-01 0.  1.
</event>
<event>
 5   0  0.7212170E+07  0.9118800E+02  0.7818608E-02  0.1180000E+00
       11   -1    0    0    0    0  0.00000000000E+00  0.00000000000E+00  0.39999999673E+01  0.40000000000E+01  0.51109989000E-03 0. -1.
     -623   -1    0    0    0    0  0.00000000000E+00  0.00000000000E+00  0.12525980253E-10  0.17130000000E+03  0.17130000000E+03 0. -1.
       11    1    1    2    0    0 -0.13730773605E-01 -0.21491405291E-02  0.92513255670E-01  0.93552747937E-01  0.51109989000E-03 0. -1.
     -623    1    1    2    0    0  0.10422403408E-03  0.73961229689E-03  0.12682828096E-02  0.17130000001E+03  0.17130000000E+03 0. -1.
      622    1    1    2    0    0  0.13626549571E-01  0.14095282321E-02  0.39062184293E+01  0.39064472462E+01  0.40000000000E-01 0. -1.
</event>
<event>
 5   0  0.7212170E+07  0.9118800E+02  0.7818608E-02  0.1180000E+00
       11   -1    0    0    0    0  0.00000000000E+00  0.00000000000E+00  0.39999999673E+01  0.40000000000E+01  0.51109989000E-03 0.  1.
     -623   -1    0    0    0    0  0.00000000000E+00  0.00000000000E+00  0.12525980253E-10  0.17130000000E+03  0.17130000000E+03 0. -1.
       11    1    1    2    0    0  0.11614325350E-02  0.22723691457E-03  0.12704695044E-02  0.18099386752E-02  0.51109989000E-03 0.  1.
     -623    1    1    2    0    0  0.23294987531E-02 -0.15190079839E-02  0.74128903535E-03  0.17130000002E+03  0.17130000000E+03 0. -1.
      622    1    1    2    0    0 -0.34909312881E-02  0.12917710693E-02  0.39979882089E+01  0.39981900372E+01  0.40000000000E-01 0.  1.
</event>
<event>
 5   0  0.7212170E+07  0.9118800E+02  0.7818608E-02  0.1180000E+00
       11   -1    0    0    0    0  0.00000000000E+00  0.00000000000E+00  0.39999999673E+01  0.40000000000E+01  0.51109989000E-03 0.  1.
     -623   -1    0    0    0    0  0.00000000000E+00  0.00000000000E+00  0.12525980253E-10  0.17130000000E+03  0.17130000000E+03 0. -1.
       11    1    1    2    0    0  0.22113497680E-02 -0.13525962170E-02  0.33922991557E-01  0.34025727966E-01  0.51109989000E-03 0.  1.
     -623    1    1    2    0    0 -0.36874677844E-03  0.28958478836E-03  0.30499622349E-03  0.17130000000E+03  0.17130000000E+03 0. -1.
      622    1    1    2    0    0 -0.18426029894E-02  0.10630114286E-02  0.39657719811E+01  0.39659742727E+01  0.40000000000E-01 0.  1.
</event>
<event>
 5   0  0.7212170E+07  0.9118800E+02  0.7818608E-02  0.1180000E+00
       11   -1    0    0    0    0  0.00000000000E+00  0.00000000000E+00  0.39999999673E+01  0.40000000000E+01  0.51109989000E-03 0. -1.
     -623   -1    0    0    0    0  0.00000000000E+00  0.00000000000E+00  0.12525980253E-10  0.17130000000E+03  0.17130000000E+03 0.  1.
       11    1    1    2    0    0 -0.94386584549E-02  0.17071079657E-02  0.52963389949E+00  0.52972099374E+00  0.51109989000E-03 0. -1.
     -623    1    1    2    0    0  0.12435151154E-02  0.11871796195E-02  0.32849141795E-03  0.17130000001E+03  0.17130000000E+03 0.  1.
      622    1    1    2    0    0  0.81951433391E-02 -0.28942875855E-02  0.34700375776E+01  0.34702789984E+01  0.40000000000E-01 0. -1.
</event>
<event>
 5   0  0.7212170E+07  0.9118800E+02  0.7818608E-02  0.1180000E+00
       11   -1    0    0    0    0  0.00000000000E+00  0.00000000000E+00  0.39999999673E+01  0.40000000000E+01  0.51109989000E-03 0. -1.
     -623   -1    0    0    0    0  0.00000000000E+00  0.00000000000E+00  0.12525980253E-10  0.17130000000E+03  0.17130000000E+03 0.  1.
       11    1    1    2    0    0  0.16156825264E-02  0.35691268037E-02  0.37685272426E-01  0.37891820715E-01  0.51109989000E-03 0. -1.
     -623    1    1    2    0    0 -0.59269385893E-02 -0.14661912824E-01  0.42703895740E-03  0.17130000073E+03  0.17130000000E+03 0.  1.
      622    1    1    2    0    0  0.43112560621E-02  0.11092786019E-01  0.39618876555E+01  0.39621074483E+01  0.40000000000E-01 0. -1.
</event>
<event>
 5   0  0.7212170E+07  0.9118800E+02  0.7818608E-02  0.1180000E+00
       11   -1    0    0    0    0  0.00000000000E+00  0.00000000000E+00  0.39999999673E+01  0.40000000000E+01  0.51109989000E-03 0. -1.
     -623   -1    0    0    0    0  0.00000000000E+00  0.00000000000E+00  0.12525980253E-10  0.17130000000E+03  0.17130000000E+03 0. -1.
       11    1    1    2    0    0 -0.69769520080E-03  0.42222340993E-02  0.38449184052E+00  0.38451599536E+00  0.51109989000E-03 0. -1.
     -623    1    1    2    0    0  0.37048694795E-03 -0.15877114782E-02  0.24638214715E-03  0.17130000001E+03  0.17130000000E+03 0. -1.
      622    1    1    2    0    0  0.32720825278E-03 -0.26345226208E-02  0.36152617455E+01  0.36154839975E+01  0.40000000000E-01 0. -1.
</event>
<event>
 5   0  0.7212170E+07  0.9118800E+02  0.7818608E-02  0.1180000E+00
       11   -1    0    0    0    0  0.00000000000E+00  0.00000000000E+00  0.39999999673E+01  0.40000000000E+01  0.51109989000E-03 0. -1.
     -623   -1    0    0    0    0  0.00000000000E+00  0.00000000000E+00  0.12525980253E-10  0.17130000000E+03  0.17130000000E+03 0.  1.
       11    1    1    2    0    0  0.12278516703E-02 -0.12457506361E-02  0.76342387428E-02  0.78487157326E-02  0.51109989000E-03 0. -1.
     -623    1    1    2    0    0 -0.51260260866E-02  0.17967078961E-03  0.41696554192E-03  0.17130000008E+03  0.17130000000E+03 0.  1.
      622    1    1    2    0    0  0.38981744162E-02  0.10660798465E-02  0.39919487629E+01  0.39921512068E+01  0.40000000000E-01 0. -1.
</event>
<event>
 5   0  0.7212170E+07  0.9118800E+02  0.7818608E-02  0.1180000E+00
       11   -1    0    0    0    0  0.00000000000E+00  0.00000000000E+00  0.39999999673E+01  0.40000000000E+01  0.51109989000E-03 0. -1.
     -623   -1    0    0    0    0  0.00000000000E+00  0.00000000000E+00  0.12525980253E-10  0.17130000000E+03  0.17130000000E+03 0. -1.
       11    1    1    2    0    0  0.24834055534E-02  0.98071417218E-03  0.78471839073E-01  0.78518913989E-01  0.51109989000E-03 0. -1.
     -623    1    1    2    0    0 -0.22355228455E-02 -0.12204834096E-02  0.25108642186E-03  0.17130000002E+03  0.17130000000E+03 0. -1.
      622    1    1    2    0    0 -0.24788270692E-03  0.23976923797E-03  0.39212770436E+01  0.39214810686E+01  0.40000000000E-01 0. -1.
</event>
<event>
 5   0  0.7212170E+07  0.9118800E+02  0.7818608E-02  0.1180000E+00
       11   -1    0    0    0    0  0.00000000000E+00  0.00000000000E+00  0.39999999673E+01  0.40000000000E+01  0.51109989000E-03 0.  1.
     -623   -1    0    0    0    0  0.00000000000E+00  0.00000000000E+00  0.12525980253E-10  0.17130000000E+03  0.17130000000E+03 0.  1.
       11    1    1    2    0    0 -0.21345935769E-02 -0.38082487277E-03  0.92208553206E-02  0.94861432238E-02  0.51109989000E-03 0.  1.
     -623    1    1    2    0    0 -0.35378663064E-03  0.17743736791E-03  0.46651789310E-03  0.17130000000E+03  0.17130000000E+03 0.  1.
      622    1    1    2    0    0  0.24883802076E-02  0.20338750483E-03  0.39903125947E+01  0.39905138563E+01  0.40000000000E-01 0.  1.
</event>
<event>
 5   0  0.7212170E+07  0.9118800E+02  0.7818608E-02  0.1180000E+00
       11   -1    0    0    0    0  0.00000000000E+00  0.00000000000E+00  0.39999999673E+01  0.40000000000E+01  0.51109989000E-03 0.  1.
     -623   -1    0    0    0    0  0.00000000000E+00  0.00000000000E+00  0.12525980253E-10  0.17130000000E+03  0.17130000000E+03 0. -1.
       11    1    1    2    0    0 -0.63689726648E-02 -0.16812141377E-01  0.12443000496E+01  0.12444300248E+01  0.51109989000E-03 0.  1.
     -623    1    1    2    0    0 -0.41076175217E-03 -0.54998342548E-02  0.51905152536E-03  0.17130000009E+03  0.17130000000E+03 0. -1.
      622    1    1    2    0    0  0.67797344170E-02  0.22311975633E-01  0.27551808665E+01  0.27555698859E+01  0.40000000000E-01 0.  0.
</event>
<event>
 5   0  0.7212170E+07  0.9118800E+02  0.7818608E-02  0.1180000E+00
       11   -1    0    0    0    0  0.00000000000E+00  0.00000000000E+00  0.39999999673E+01  0.40000000000E+01  0.51109989000E-03 0. -1.
     -623   -1    0    0    0    0  0.00000000000E+00  0.00000000000E+00  0.12525980253E-10  0.17130000000E+03  0.17130000000E+03 0.  1.
       11    1    1    2    0    0 -0.27220792112E-02 -0.33058695363E-03  0.42629113698E-02  0.50943733089E-02  0.51109989000E-03 0. -1.
     -623    1    1    2    0    0 -0.26930834203E-02 -0.11478796344E-02  0.10356614632E-02  0.17130000003E+03  0.17130000000E+03 0.  1.
      622    1    1    2    0    0  0.54151626315E-02  0.14784665880E-02  0.39947013946E+01  0.39949055986E+01  0.40000000000E-01 0. -1.
</event>
<event>
 5   0  0.7212170E+07  0.9118800E+02  0.7818608E-02  0.1180000E+00
       11   -1    0    0    0    0  0.00000000000E+00  0.00000000000E+00  0.39999999673E+01  0.40000000000E+01  0.51109989000E-03 0. -1.
     -623   -1    0    0    0    0  0.00000000000E+00  0.00000000000E+00  0.12525980253E-10  0.17130000000E+03  0.17130000000E+03 0. -1.
       11    1    1    2    0    0  0.75195174264E-02  0.77059658774E-02  0.29857917939E+00  0.29877368131E+00  0.51109989000E-03 0. -1.
     -623    1    1    2    0    0  0.31740547088E-02 -0.10082513598E-01  0.42715873463E-03  0.17130000033E+03  0.17130000000E+03 0. -1.
      622    1    1    2    0    0 -0.10693572136E-01  0.23765477221E-02  0.37009936298E+01  0.37012259926E+01  0.40000000000E-01 0. -1.
</event>
<event>
 5   0  0.7212170E+07  0.9118800E+02  0.7818608E-02  0.1180000E+00
       11   -1    0    0    0    0  0.00000000000E+00  0.00000000000E+00  0.39999999673E+01  0.40000000000E+01  0.51109989000E-03 0.  1.
     -623   -1    0    0    0    0  0.00000000000E+00  0.00000000000E+00  0.12525980253E-10  0.17130000000E+03  0.17130000000E+03 0. -1.
       11    1    1    2    0    0 -0.18153401029E-01  0.58188739370E-02  0.64629426904E+00  0.64657555527E+00  0.51109989000E-03 0.  1.
     -623    1    1    2    0    0 -0.13157669811E-01 -0.29444541545E-01  0.75228697630E-03  0.17130000304E+03  0.17130000000E+03 0. -1.
      622    1    1    2    0    0  0.31311070842E-01  0.23625667612E-01  0.33529534118E+01  0.33534214076E+01  0.40000000000E-01 0.  1.
</event>
<event>
 5   0  0.7212170E+07  0.9118800E+02  0.7818608E-02  0.1180000E+00
       11   -1    0    0    0    0  0.00000000000E+00  0.00000000000E+00  0.39999999673E+01  0.40000000000E+01  0.51109989000E-03 0.  1.
     -623   -1    0    0    0    0  0.00000000000E+00  0.00000000000E+00  0.12525980253E-10  0.17130000000E+03  0.17130000000E+03 0. -1.
       11    1    1    2    0    0 -0.58757079080E-03 -0.75585965030E-03  0.26536665941E-01  0.26558848348E-01  0.51109989000E-03 0.  1.
     -623    1    1    2    0    0 -0.17212621065E-03 -0.34090926553E-03  0.22371626284E-03  0.17130000000E+03  0.17130000000E+03 0. -1.
      622    1    1    2    0    0  0.75969700145E-03  0.10967689158E-02  0.39732395853E+01  0.39734411512E+01  0.40000000000E-01 0.  1.
</event>
<event>
 5   0  0.7212170E+07  0.9118800E+02  0.7818608E-02  0.1180000E+00
       11   -1    0    0    0    0  0.00000000000E+00  0.00000000000E+00  0.39999999673E+01  0.40000000000E+01  0.51109989000E-03 0.  1.
     -623   -1    0    0    0    0  0.00000000000E+00  0.00000000000E+00  0.12525980253E-10  0.17130000000E+03  0.17130000000E+03 0.  1.
       11    1    1    2    0    0  0.12456303316E-02 -0.19900542673E-02  0.84869742871E-03  0.25482192474E-02  0.51109989000E-03 0.  1.
     -623    1    1    2    0    0 -0.16157753660E-02  0.13998806427E-01  0.19182679107E-02  0.17130000059E+03  0.17130000000E+03 0.  1.
      622    1    1    2    0    0  0.37014503436E-03 -0.12008752160E-01  0.39972330020E+01  0.39974511903E+01  0.40000000000E-01 0.  1.
</event>
<event>
 5   0  0.7212170E+07  0.9118800E+02  0.7818608E-02  0.1180000E+00
       11   -1    0    0    0    0  0.00000000000E+00  0.00000000000E+00  0.39999999673E+01  0.40000000000E+01  0.51109989000E-03 0. -1.
     -623   -1    0    0    0    0  0.00000000000E+00  0.00000000000E+00  0.12525980253E-10  0.17130000000E+03  0.17130000000E+03 0.  1.
       11    1    1    2    0    0 -0.10681818572E-02 -0.17354642912E-02  0.17222751948E+00  0.17224033365E+00  0.51109989000E-03 0. -1.
     -623    1    1    2    0    0  0.21869252037E-03 -0.38064576921E-04  0.22229222629E-03  0.17130000000E+03  0.17130000000E+03 0.  1.
      622    1    1    2    0    0  0.84948933682E-03  0.17735288682E-02  0.38275501558E+01  0.38277596662E+01  0.40000000000E-01 0. -1.
</event>
<event>
 5   0  0.7212170E+07  0.9118800E+02  0.7818608E-02  0.1180000E+00
       11   -1    0    0    0    0  0.00000000000E+00  0.00000000000E+00  0.39999999673E+01  0.40000000000E+01  0.51109989000E-03 0. -1.
     -623   -1    0    0    0    0  0.00000000000E+00  0.00000000000E+00  0.12525980253E-10  0.17130000000E+03  0.17130000000E+03 0.  1.
       11    1    1    2    0    0 -0.17403384573E-02  0.68442424734E-03  0.84943685517E-02  0.87127914405E-02  0.51109989000E-03 0. -1.
     -623    1    1    2    0    0  0.26738727029E-02  0.69311649248E-04  0.41903362093E-03  0.17130000002E+03  0.17130000000E+03 0.  1.
      622    1    1    2    0    0 -0.93353424572E-03 -0.75373589659E-03  0.39910865654E+01  0.39912871874E+01  0.40000000000E-01 0. -1.
</event>
<event>
 5   0  0.7212170E+07  0.9118800E+02  0.7818608E-02  0.1180000E+00
       11   -1    0    0    0    0  0.00000000000E+00  0.00000000000E+00  0.39999999673E+01  0.40000000000E+01  0.51109989000E-03 0. -1.
     -623   -1    0    0    0    0  0.00000000000E+00  0.00000000000E+00  0.12525980253E-10  0.17130000000E+03  0.17130000000E+03 0. -1.
       11    1    1    2    0    0 -0.21410974747E-02  0.39600899422E-02  0.13383095457E-01  0.14129227787E-01  0.51109989000E-03 0.  1.
     -623    1    1    2    0    0 -0.46671712402E-03 -0.15974819527E-02  0.94837781134E-03  0.17130000001E+03  0.17130000000E+03 0. -1.
      622    1    1    2    0    0  0.26078145988E-02 -0.23626079893E-02  0.39856684946E+01  0.39858707620E+01  0.40000000000E-01 0. -1.
</event>
<event>
 5   0  0.7212170E+07  0.9118800E+02  0.7818608E-02  0.1180000E+00
       11   -1    0    0    0    0  0.00000000000E+00  0.00000000000E+00  0.39999999673E+01  0.40000000000E+01  0.51109989000E-03 0. -1.
     -623   -1    0    0    0    0  0.00000000000E+00  0.00000000000E+00  0.12525980253E-10  0.17130000000E+03  0.17130000000E+03 0.  1.
       11    1    1    2    0    0  0.13856401337E-02  0.60886833754E-03  0.32621344159E-02  0.36322807267E-02  0.51109989000E-03 0. -1.
     -623    1    1    2    0    0 -0.19379734068E-02  0.25129687250E-02  0.57158838617E-03  0.17130000003E+03  0.17130000000E+03 0.  1.
      622    1    1    2    0    0  0.55233327361E-03 -0.31218370632E-02  0.39961662456E+01  0.39963676899E+01  0.40000000000E-01 0. -1.
</event>
<event>
 5   0  0.7212170E+07  0.9118800E+02  0.7818608E-02  0.1180000E+00
       11   -1    0    0    0    0  0.00000000000E+00  0.00000000000E+00  0.39999999673E+01  0.40000000000E+01  0.51109989000E-03 0. -1.
     -623   -1    0    0    0    0  0.00000000000E+00  0.00000000000E+00  0.12525980253E-10  0.17130000000E+03  0.17130000000E+03 0.  1.
       11    1    1    2    0    0  0.22306717089E-01  0.85819717835E-02  0.95171083820E+00  0.95201104019E+00  0.51109989000E-03 0. -1.
     -623    1    1    2    0    0 -0.34907215906E-02  0.10976303191E-03  0.63316316875E-03  0.17130000004E+03  0.17130000000E+03 0.  1.
      622    1    1    2    0    0 -0.18815995499E-01 -0.86917348154E-02  0.30476559658E+01  0.30479889229E+01  0.40000000000E-01 0.  0.
</event>
<event>
 5   0  0.7212170E+07  0.9118800E+02  0.7818608E-02  0.1180000E+00
       11   -1    0    0    0    0  0.00000000000E+00  0.00000000000E+00  0.39999999673E+01  0.40000000000E+01  0.51109989000E-03 0. -1.
     -623   -1    0    0    0    0  0.00000000000E+00  0.00000000000E+00  0.12525980253E-10  0.17130000000E+03  0.17130000000E+03 0. -1.
       11    1    1    2    0    0  0.16647719809E-02 -0.42529669136E-02  0.89638578815E-01  0.89756310243E-01  0.51109989000E-03 0. -1.
     -623    1    1    2    0    0  0.11251399611E-02  0.93979961354E-04  0.32550623008E-03  0.17130000000E+03  0.17130000000E+03 0. -1.
      622    1    1    2    0    0 -0.27899119424E-02  0.41589869522E-02  0.39100358837E+01  0.39102436871E+01  0.40000000000E-01 0. -1.
</event>
<event>
 5   0  0.7212170E+07  0.9118800E+02  0.7818608E-02  0.1180000E+00
       11   -1    0    0    0    0  0.00000000000E+00  0.00000000000E+00  0.39999999673E+01  0.40000000000E+01  0.51109989000E-03 0. -1.
     -623   -1    0    0    0    0  0.00000000000E+00  0.00000000000E+00  0.12525980253E-10  0.17130000000E+03  0.17130000000E+03 0. -1.
       11    1    1    2    0    0 -0.79201559966E-02 -0.37528052968E-02  0.10069855852E-01  0.13359477482E-01  0.51109989000E-03 0. -1.
     -623    1    1    2    0    0  0.49564070461E-02  0.64266921231E-03  0.34926877176E-02  0.17130000011E+03  0.17130000000E+03 0. -1.
      622    1    1    2    0    0  0.29637489505E-02  0.31101360845E-02  0.39864374239E+01  0.39866404141E+01  0.40000000000E-01 0. -1.
</event>
<event>
 5   0  0.7212170E+07  0.9118800E+02  0.7818608E-02  0.1180000E+00
       11   -1    0    0    0    0  0.00000000000E+00  0.00000000000E+00  0.39999999673E+01  0.40000000000E+01  0.51109989000E-03 0. -1.
     -623   -1    0    0    0    0  0.00000000000E+00  0.00000000000E+00  0.12525980253E-10  0.17130000000E+03  0.17130000000E+03 0. -1.
       11    1    1    2    0    0  0.26741817694E-01  0.25916217392E-02  0.18735512718E+00  0.18927241273E+00  0.51109989000E-03 0. -1.
     -623    1    1    2    0    0 -0.94288696198E-02 -0.79423431532E-02  0.21707371143E-02  0.17130000046E+03  0.17130000000E+03 0. -1.
      622    1    1    2    0    0 -0.17312948074E-01  0.53507214143E-02  0.38104741032E+01  0.38107271301E+01  0.40000000000E-01 0. -1.
</event>
<event>
 5   0  0.7212170E+07  0.9118800E+02  0.7818608E-02  0.1180000E+00
       11   -1    0    0    0    0  0.00000000000E+00  0.00000000000E+00  0.39999999673E+01  0.40000000000E+01  0.51109989000E-03 0. -1.
     -623   -1    0    0    0    0  0.00000000000E+00  0.00000000000E+00  0.12525980253E-10  0.17130000000E+03  0.17130000000E+03 0. -1.
       11    1    1    2    0    0  0.17216402363E-01  0.40075531537E-02  0.12525383484E-01  0.21670520232E-01  0.51109989000E-03 0. -1.
     -623    1    1    2    0    0 -0.52300539896E-02 -0.30720328363E-01  0.94570405965E-02  0.17130000310E+03  0.17130000000E+03 0. -1.
      622    1    1    2    0    0 -0.11986348374E-01  0.26712775210E-01  0.39780175433E+01  0.39783263842E+01  0.40000000000E-01 0. -1.
</event>
<event>
 5   0  0.7212170E+07  0.9118800E+02  0.7818608E-02  0.1180000E+00
       11   -1    0    0    0    0  0.00000000000E+00  0.00000000000E+00  0.39999999673E+01  0.40000000000E+01  0.51109989000E-03 0. -1.
     -623   -1    0    0    0    0  0.00000000000E+00  0.00000000000E+00  0.12525980253E-10  0.17130000000E+03  0.17130000000E+03 0. -1.
       11    1    1    2    0    0  0.62259734743E-03  0.35925327059E-02  0.18572111439E+00  0.18575760408E+00  0.51109989000E-03 0. -1.
     -623    1    1    2    0    0 -0.27718459542E-03  0.25581222063E-03  0.24816074205E-03  0.17130000000E+03  0.17130000000E+03 0. -1.
      622    1    1    2    0    0 -0.34541275203E-03 -0.38483449265E-02  0.38140306920E+01  0.38142423951E+01  0.40000000000E-01 0. -1.
</event>
<event>
 5   0  0.7212170E+07  0.9118800E+02  0.7818608E-02  0.1180000E+00
       11   -1    0    0    0    0  0.00000000000E+00  0.00000000000E+00  0.39999999673E+01  0.40000000000E+01  0.51109989000E-03 0.  1.
     -623   -1    0    0    0    0  0.00000000000E+00  0.00000000000E+00  0.12525980253E-10  0.17130000000E+03  0.17130000000E+03 0. -1.
       11    1    1    2    0    0 -0.28641494570E-03 -0.40378063313E-03  0.83243468993E-02  0.83547020724E-02  0.51109989000E-03 0.  1.
     -623    1    1    2    0    0  0.44456837060E-03  0.15740587363E-03  0.23075771587E-03  0.17130000000E+03  0.17130000000E+03 0. -1.
      622    1    1    2    0    0 -0.15815342492E-03  0.24637475950E-03  0.39914448629E+01  0.39916452973E+01  0.40000000000E-01 0.  1.
</event>
<event>
 5   0  0.7212170E+07  0.9118800E+02  0.7818608E-02  0.1180000E+00
       11   -1    0    0    0    0  0.00000000000E+00  0.00000000000E+00  0.39999999673E+01  0.40000000000E+01  0.51109989000E-03 0.  1.
     -623   -1    0    0    0    0  0.00000000000E+00  0.00000000000E+00  0.12525980253E-10  0.17130000000E+03  0.17130000000E+03 0.  1.
       11    1    1    2    0    0  0.66097629457E-02  0.24543750301E-02  0.48736194742E+00  0.48741321478E+00  0.51109989000E-03 0.  1.
     -623    1    1    2    0    0  0.42472907590E-03 -0.11708149010E-02  0.28627806806E-03  0.17130000000E+03  0.17130000000E+03 0.  1.
      622    1    1    2    0    0 -0.70344920215E-02 -0.12835601294E-02  0.35123517408E+01  0.35125867794E+01  0.40000000000E-01 0.  1.
</event>
<event>
 5   0  0.7212170E+07  0.9118800E+02  0.7818608E-02  0.1180000E+00
       11   -1    0    0    0    0  0.00000000000E+00  0.00000000000E+00  0.39999999673E+01  0.40000000000E+01  0.51109989000E-03 0. -1.
     -623   -1    0    0    0    0  0.00000000000E+00  0.00000000000E+00  0.12525980253E-10  0.17130000000E+03  0.17130000000E+03 0. -1.
       11    1    1    2    0    0  0.24160606427E-02 -0.10564789634E-02  0.16823223537E+00  0.16825367674E+00  0.51109989000E-03 0. -1.
     -623    1    1    2    0    0  0.86042338005E-03 -0.53091849687E-03  0.23192939757E-03  0.17130000000E+03  0.17130000000E+03 0. -1.
      622    1    1    2    0    0 -0.32764840226E-02  0.15873974602E-02  0.38315358019E+01  0.38317463194E+01  0.40000000000E-01 0. -1.
</event>
<event>
 5   0  0.7212170E+07  0.9118800E+02  0.7818608E-02  0.1180000E+00
       11   -1    0    0    0    0  0.00000000000E+00  0.00000000000E+00  0.39999999673E+01  0.40000000000E+01  0.51109989000E-03 0. -1.
     -623   -1    0    0    0    0  0.00000000000E+00  0.00000000000E+00  0.12525980253E-10  0.17130000000E+03  0.17130000000E+03 0. -1.
       11    1    1    2    0    0 -0.68557431083E-02 -0.27036053783E-01  0.12174457246E+01  0.12177652906E+01  0.51109989000E-03 0. -1.
     -623    1    1    2    0    0 -0.66509837354E-02  0.79029388279E-02  0.70598495280E-03  0.17130000031E+03  0.17130000000E+03 0. -1.
      622    1    1    2    0    0  0.13506726845E-01  0.19133114954E-01  0.27818482585E+01  0.27822343972E+01  0.40000000000E-01 0. -1.
</event>
<event>
 5   0  0.7212170E+07  0.9118800E+02  0.7818608E-02  0.1180000E+00
       11   -1    0    0    0    0  0.00000000000E+00  0.00000000000E+00  0.39999999673E+01  0.40000000000E+01  0.51109989000E-03 0.  1.
     -623   -1    0    0    0    0  0.00000000000E+00  0.00000000000E+00  0.12525980253E-10  0.17130000000E+03  0.17130000000E+03 0. -1.
       11    1    1    2    0    0 -0.12902769538E-02 -0.12150021178E-02  0.99731257948E-01  0.99748313669E-01  0.51109989000E-03 0.  1.
     -623    1    1    2    0    0  0.16720644232E-02  0.18727971045E-02  0.22223614580E-03  0.17130000002E+03  0.17130000000E+03 0. -1.
      622    1    1    2    0    0 -0.38178746919E-03 -0.65779498640E-03  0.39000464728E+01  0.39002516673E+01  0.40000000000E-01 0.  1.
</event>
<event>
 5   0  0.7212170E+07  0.9118800E+02  0.7818608E-02  0.1180000E+00
       11   -1    0    0    0    0  0.00000000000E+00  0.00000000000E+00  0.39999999673E+01  0.40000000000E+01  0.51109989000E-03 0. -1.
     -623   -1    0    0    0    0  0.00000000000E+00  0.00000000000E+00  0.12525980253E-10  0.17130000000E+03  0.17130000000E+03 0. -1.
       11    1    1    2    0    0  0.63826815816E-02 -0.92251908170E-03  0.44501812015E-02  0.78520698833E-02  0.51109989000E-03 0. -1.
     -623    1    1    2    0    0 -0.54911070657E-02 -0.17585621752E-03  0.36026311089E-02  0.17130000013E+03  0.17130000000E+03 0. -1.
      622    1    1    2    0    0 -0.89157451586E-03  0.10983752992E-02  0.39919471551E+01  0.39921478042E+01  0.40000000000E-01 0.  0.
</event>
<event>
 5   0  0.7212170E+07  0.9118800E+02  0.7818608E-02  0.1180000E+00
       11   -1    0    0    0    0  0.00000000000E+00  0.00000000000E+00  0.39999999673E+01  0.40000000000E+01  0.51109989000E-03 0. -1.
     -623   -1    0    0    0    0  0.00000000000E+00  0.00000000000E+00  0.12525980253E-10  0.17130000000E+03  0.17130000000E+03 0. -1.
       11    1    1    2    0    0  0.22487622016E-04 -0.65173783177E-03  0.15152852997E-01  0.15175488293E-01  0.51109989000E-03 0. -1.
     -623    1    1    2    0    0  0.17018209496E-03 -0.18669382764E-03  0.22346257784E-03  0.17130000000E+03  0.17130000000E+03 0. -1.
      622    1    1    2    0    0 -0.19266971707E-03  0.83843165952E-03  0.39846236539E+01  0.39848245135E+01  0.40000000000E-01 0. -1.
</event>
<event>
 5   0  0.7212170E+07  0.9118800E+02  0.7818608E-02  0.1180000E+00
       11   -1    0    0    0    0  0.00000000000E+00  0.00000000000E+00  0.39999999673E+01  0.40000000000E+01  0.51109989000E-03 0. -1.
     -623   -1    0    0    0    0  0.00000000000E+00  0.00000000000E+00  0.12525980253E-10  0.17130000000E+03  0.17130000000E+03 0.  1.
       11    1    1    2    0    0 -0.76370552443E-02  0.17417406445E-03  0.29101895861E+00  0.29111964970E+00  0.51109989000E-03 0. -1.
     -623    1    1    2    0    0  0.25917833018E-03 -0.19631999687E-02  0.32414514495E-03  0.17130000001E+03  0.17130000000E+03 0.  1.
      622    1    1    2    0    0  0.73778769141E-02  0.17890259044E-02  0.37086568638E+01  0.37088803388E+01  0.40000000000E-01 0. -1.
</event>
<event>
 5   0  0.7212170E+07  0.9118800E+02  0.7818608E-02  0.1180000E+00
       11   -1    0    0    0    0  0.00000000000E+00  0.00000000000E+00  0.39999999673E+01  0.40000000000E+01  0.51109989000E-03 0.  1.
     -623   -1    0    0    0    0  0.00000000000E+00  0.00000000000E+00  0.12525980253E-10  0.17130000000E+03  0.17130000000E+03 0. -1.
       11    1    1    2    0    0 -0.46085537453E-02  0.18408570059E-02  0.65402930786E-01  0.65592927215E-01  0.51109989000E-03 0.  1.
     -623    1    1    2    0    0  0.11826579719E-02 -0.33748634708E-02  0.39513184986E-03  0.17130000004E+03  0.17130000000E+03 0. -1.
      622    1    1    2    0    0  0.34258957733E-02  0.15340064650E-02  0.39342019048E+01  0.39344070351E+01  0.40000000000E-01 0.  1.
</event>
<event>
 5   0  0.7212170E+07  0.9118800E+02  0.7818608E-02  0.1180000E+00
       11   -1    0    0    0    0  0.00000000000E+00  0.00000000000E+00  0.39999999673E+01  0.40000000000E+01  0.51109989000E-03 0.  1.
     -623   -1    0    0    0    0  0.00000000000E+00  0.00000000000E+00  0.12525980253E-10  0.17130000000E+03  0.17130000000E+03 0.  1.
       11    1    1    2    0    0 -0.28514878836E-02 -0.10129436470E-01  0.92564779588E-01  0.93162417904E-01  0.51109989000E-03 0.  1.
     -623    1    1    2    0    0 -0.97020860167E-03  0.21585576527E-03  0.81683289163E-03  0.17130000000E+03  0.17130000000E+03 0.  1.
      622    1    1    2    0    0  0.38216964853E-02  0.99135807049E-02  0.39066183550E+01  0.39068375774E+01  0.40000000000E-01 0.  1.
</event>
<event>
 5   0  0.7212170E+07  0.9118800E+02  0.7818608E-02  0.1180000E+00
       11   -1    0    0    0    0  0.00000000000E+00  0.00000000000E+00  0.39999999673E+01  0.40000000000E+01  0.51109989000E-03 0.  1.
     -623   -1    0    0    0    0  0.00000000000E+00  0.00000000000E+00  0.12525980253E-10  0.17130000000E+03  0.17130000000E+03 0. -1.
       11    1    1    2    0    0 -0.39500216131E-02 -0.24238746827E-02  0.16671211113E+00  0.16677729780E+00  0.51109989000E-03 0.  1.
     -623    1    1    2    0    0 -0.27272374795E-04  0.10932398492E-02  0.27615956410E-03  0.17130000000E+03  0.17130000000E+03 0. -1.
      622    1    1    2    0    0  0.39772939879E-02  0.13306348336E-02  0.38330116966E+01  0.38332226984E+01  0.40000000000E-01 0.  1.
</event>
<event>
 5   0  0.7212170E+07  0.9118800E+02  0.7818608E-02  0.1180000E+00
       11   -1    0    0    0    0  0.00000000000E+00  0.00000000000E+00  0.39999999673E+01  0.40000000000E+01  0.51109989000E-03 0.  1.
     -623   -1    0    0    0    0  0.00000000000E+00  0.00000000000E+00  0.12525980253E-10  0.17130000000E+03  0.17130000000E+03 0. -1.
       11    1    1    2    0    0 -0.64209876186E-03 -0.77948108871E-03  0.17565238903E-02  0.20896126106E-02  0.51109989000E-03 0.  1.
     -623    1    1    2    0    0  0.70019207228E-03 -0.19472171578E-03  0.53328711936E-03  0.17130000000E+03  0.17130000000E+03 0. -1.
      622    1    1    2    0    0 -0.58093310439E-04  0.97420280450E-03  0.39977101565E+01  0.39979103851E+01  0.40000000000E-01 0.  1.
</event>
<event>
 5   0  0.7212170E+07  0.9118800E+02  0.7818608E-02  0.1180000E+00
       11   -1    0    0    0    0  0.00000000000E+00  0.00000000000E+00  0.39999999673E+01  0.40000000000E+01  0.51109989000E-03 0. -1.
     -623   -1    0    0    0    0  0.00000000000E+00  0.00000000000E+00  0.12525980253E-10  0.17130000000E+03  0.17130000000E+03 0.  1.
       11    1    1    2    0    0  0.11769639810E-01  0.15742589778E-01  0.61621587887E+00  0.61652949982E+00  0.51109989000E-03 0. -1.
     -623    1    1    2    0    0  0.15286711318E-01 -0.14167396970E-01  0.65986530587E-03  0.17130000127E+03  0.17130000000E+03 0.  1.
      622    1    1    2    0    0 -0.27056351127E-01 -0.15751928094E-02  0.33831242229E+01  0.33834692307E+01  0.40000000000E-01 0. -1.
</event>
<event>
 5   0  0.7212170E+07  0.9118800E+02  0.7818608E-02  0.1180000E+00
       11   -1    0    0    0    0  0.00000000000E+00  0.00000000000E+00  0.39999999673E+01  0.40000000000E+01  0.51109989000E-03 0.  1.
     -623   -1    0    0    0    0  0.00000000000E+00  0.00000000000E+00  0.12525980253E-10  0.17130000000E+03  0.17130000000E+03 0. -1.
       11    1    1    2    0    0 -0.60850721442E-03 -0.41911960876E-03  0.13554114450E-01  0.13583857475E-01  0.51109989000E-03 0.  1.
     -623    1    1    2    0    0  0.57775870585E-03  0.14996381163E-03  0.23040734379E-03  0.17130000000E+03  0.17130000000E+03 0. -1.
      622    1    1    2    0    0  0.30748508220E-04  0.26915579705E-03  0.39862154480E+01  0.39864161437E+01  0.40000000000E-01 0.  1.
</event>
<event>
 5   0  0.7212170E+07  0.9118800E+02  0.7818608E-02  0.1180000E+00
       11   -1    0    0    0    0  0.00000000000E+00  0.00000000000E+00  0.39999999673E+01  0.40000000000E+01  0.51109989000E-03 0.  1.
     -623   -1    0    0    0    0  0.00000000000E+00  0.00000000000E+00  0.12525980253E-10  0.17130000000E+03  0.17130000000E+03 0.  1.
       11    1    1    2    0    0 -0.33656510689E-03 -0.70345556368E-02  0.27624339425E+00  0.27633362506E+00  0.51109989000E-03 0.  1.
     -623    1    1    2    0    0  0.54699170662E-02  0.25582052390E-02  0.31138241855E-03  0.17130000011E+03  0.17130000000E+03 0.  1.
      622    1    1    2    0    0 -0.51333519598E-02  0.44763503976E-02  0.37234451910E+01  0.37236662685E+01  0.40000000000E-01 0.  1.
</event>
<event>
 5   0  0.7212170E+07  0.9118800E+02  0.7818608E-02  0.1180000E+00
       11   -1    0    0    0    0  0.00000000000E+00  0.00000000000E+00  0.39999999673E+01  0.40000000000E+01  0.51109989000E-03 0.  1.
     -623   -1    0    0    0    0  0.00000000000E+00  0.00000000000E+00  0.12525980253E-10  0.17130000000E+03  0.17130000000E+03 0. -1.
       11    1    1    2    0    0 -0.20877462454E-01 -0.10182958409E-01  0.25486651680E+01  0.25487710687E+01  0.51109989000E-03 0.  1.
     -623    1    1    2    0    0  0.42038667841E-03 -0.12043698514E-01  0.97220458358E-03  0.17130000043E+03  0.17130000000E+03 0. -1.
      622    1    1    2    0    0  0.20457075775E-01  0.22226656923E-01  0.14503625947E+01  0.14512285045E+01  0.40000000000E-01 0.  1.
</event>
<event>
 5   0  0.7212170E+07  0.9118800E+02  0.7818608E-02  0.1180000E+00
       11   -1    0    0    0    0  0.00000000000E+00  0.00000000000E+00  0.39999999673E+01  0.40000000000E+01  0.51109989000E-03 0. -1.
     -623   -1    0    0    0    0  0.00000000000E+00  0.00000000000E+00  0.12525980253E-10  0.17130000000E+03  0.17130000000E+03 0.  1.
       11    1    1    2    0    0 -0.45623044164E-01 -0.18717636257E-01  0.24095429402E+01  0.24100475626E+01  0.51109989000E-03 0. -1.
     -623    1    1    2    0    0  0.12424404655E-01  0.83517443198E-02  0.13890444280E-02  0.17130000066E+03  0.17130000000E+03 0.  1.
      622    1    1    2    0    0  0.33198639508E-01  0.10365891936E-01  0.15890679830E+01  0.15899517779E+01  0.40000000000E-01 0.  0.
</event>
<event>
 5   0  0.7212170E+07  0.9118800E+02  0.7818608E-02  0.1180000E+00
       11   -1    0    0    0    0  0.00000000000E+00  0.00000000000E+00  0.39999999673E+01  0.40000000000E+01  0.51109989000E-03 0. -1.
     -623   -1    0    0    0    0  0.00000000000E+00  0.00000000000E+00  0.12525980253E-10  0.17130000000E+03  0.17130000000E+03 0.  1.
       11    1    1    2    0    0 -0.10962447141E-01 -0.86410104201E-02  0.27267793044E+01  0.27268150797E+01  0.51109989000E-03 0. -1.
     -623    1    1    2    0    0  0.74306806790E-03  0.23654153701E-03  0.73303544909E-03  0.17130000000E+03  0.17130000000E+03 0.  1.
      622    1    1    2    0    0  0.10219379073E-01  0.84044688831E-02  0.12724876280E+01  0.12731849175E+01  0.40000000000E-01 0.  0.
</event>
<event>
 5   0  0.7212170E+07  0.9118800E+02  0.7818608E-02  0.1180000E+00
       11   -1    0    0    0    0  0.00000000000E+00  0.00000000000E+00  0.39999999673E+01  0.40000000000E+01  0.51109989000E-03 0. -1.
     -623   -1    0    0    0    0  0.00000000000E+00  0.00000000000E+00  0.12525980253E-10  0.17130000000E+03  0.17130000000E+03 0.  1.
       11    1    1    2    0    0 -0.16178177618E-02  0.69309140124E-03  0.10330550370E-02  0.21038383512E-02  0.51109989000E-03 0. -1.
     -623    1    1    2    0    0 -0.10300646486E-02  0.13685530110E-02  0.12722827377E-02  0.17130000001E+03  0.17130000000E+03 0.  1.
      622    1    1    2    0    0  0.26478824105E-02 -0.20616444123E-02  0.39976946296E+01  0.39978961484E+01  0.40000000000E-01 0. -1.
</event>
<event>
 5   0  0.7212170E+07  0.9118800E+02  0.7818608E-02  0.1180000E+00
       11   -1    0    0    0    0  0.00000000000E+00  0.00000000000E+00  0.39999999673E+01  0.40000000000E+01  0.51109989000E-03 0.  1.
     -623   -1    0    0    0    0  0.00000000000E+00  0.00000000000E+00  0.12525980253E-10  0.17130000000E+03  0.17130000000E+03 0.  1.
       11    1    1    2    0    0 -0.11272617205E-01  0.47380719406E-02  0.24723658860E+00  0.24753931645E+00  0.51109989000E-03 0.  1.
     -623    1    1    2    0    0  0.82183747134E-03  0.24892262495E-03  0.53376554845E-03  0.17130000000E+03  0.17130000000E+03 0.  1.
      622    1    1    2    0    0  0.10450779733E-01 -0.49869945656E-02  0.37522296137E+01  0.37524606810E+01  0.40000000000E-01 0.  1.
</event>
<event>
 5   0  0.7212170E+07  0.9118800E+02  0.7818608E-02  0.1180000E+00
       11   -1    0    0    0    0  0.00000000000E+00  0.00000000000E+00  0.39999999673E+01  0.40000000000E+01  0.51109989000E-03 0. -1.
     -623   -1    0    0    0    0  0.00000000000E+00  0.00000000000E+00  0.12525980253E-10  0.17130000000E+03  0.17130000000E+03 0.  1.
       11    1    1    2    0    0  0.65135472500E-02  0.14643247413E-02  0.19839733768E+01  0.19839846753E+01  0.51109989000E-03 0. -1.
     -623    1    1    2    0    0 -0.48088504147E-03 -0.46629837484E-02  0.41975774005E-03  0.17130000006E+03  0.17130000000E+03 0.  1.
      622    1    1    2    0    0 -0.60326622086E-02  0.31986590068E-02  0.20156068325E+01  0.20160152598E+01  0.40000000000E-01 0. -1.
</event>
<event>
 5   0  0.7212170E+07  0.9118800E+02  0.7818608E-02  0.1180000E+00
       11   -1    0    0    0    0  0.00000000000E+00  0.00000000000E+00  0.39999999673E+01  0.40000000000E+01  0.51109989000E-03 0.  1.
     -623   -1    0    0    0    0  0.00000000000E+00  0.00000000000E+00  0.12525980253E-10  0.17130000000E+03  0.17130000000E+03 0. -1.
       11    1    1    2    0    0 -0.11664204978E-01 -0.17772613881E-01  0.19885109602E+01  0.19886246553E+01  0.51109989000E-03 0.  1.
     -623    1    1    2    0    0  0.75890965992E-02  0.50569931759E-02  0.55601381853E-03  0.17130000024E+03  0.17130000000E+03 0. -1.
      622    1    1    2    0    0  0.40751083768E-02  0.12715620704E-01  0.20109329942E+01  0.20113751020E+01  0.40000000000E-01 0. -1.
</event>
<event>
 5   0  0.7212170E+07  0.9118800E+02  0.7818608E-02  0.1180000E+00
       11   -1    0    0    0    0  0.00000000000E+00  0.00000000000E+00  0.39999999673E+01  0.40000000000E+01  0.51109989000E-03 0. -1.
     -623   -1    0    0    0    0  0.00000000000E+00  0.00000000000E+00  0.12525980253E-10  0.17130000000E+03  0.17130000000E+03 0.  1.
       11    1    1    2    0    0 -0.44217238969E-02  0.11728680825E-02  0.81911312170E-02  0.93959095074E-02  0.51109989000E-03 0. -1.
     -623    1    1    2    0    0  0.56105954291E-03  0.16371298132E-02  0.14080930747E-02  0.17130000001E+03  0.17130000000E+03 0.  1.
      622    1    1    2    0    0  0.38606643539E-02 -0.28099978958E-02  0.39904007433E+01  0.39906040762E+01  0.40000000000E-01 0. -1.
</event>
<event>
 5   0  0.7212170E+07  0.9118800E+02  0.7818608E-02  0.1180000E+00
       11   -1    0    0    0    0  0.00000000000E+00  0.00000000000E+00  0.39999999673E+01  0.40000000000E+01  0.51109989000E-03 0. -1.
     -623   -1    0    0    0    0  0.00000000000E+00  0.00000000000E+00  0.12525980253E-10  0.17130000000E+03  0.17130000000E+03 0. -1.
       11    1    1    2    0    0 -0.58009827138E-02 -0.47928315576E-02  0.93011352733E-01  0.93316641576E-01  0.51109989000E-03 0. -1.
     -623    1    1    2    0    0 -0.51872581326E-03  0.75655618813E-03  0.51723914535E-03  0.17130000000E+03  0.17130000000E+03 0. -1.
      622    1    1    2    0    0  0.63197085270E-02  0.40362753695E-02  0.39064713751E+01  0.39066833548E+01  0.40000000000E-01 0. -1.
</event>
<event>
 5   0  0.7212170E+07  0.9118800E+02  0.7818608E-02  0.1180000E+00
       11   -1    0    0    0    0  0.00000000000E+00  0.00000000000E+00  0.39999999673E+01  0.40000000000E+01  0.51109989000E-03 0.  1.
     -623   -1    0    0    0    0  0.00000000000E+00  0.00000000000E+00  0.12525980253E-10  0.17130000000E+03  0.17130000000E+03 0.  1.
       11    1    1    2    0    0  0.30970406120E-01  0.36459546913E-01  0.31684413494E+00  0.32043553437E+00  0.51109989000E-03 0.  1.
     -623    1    1    2    0    0  0.33686639547E-01 -0.17153398165E-01  0.44318310766E-02  0.17130000423E+03  0.17130000000E+03 0.  1.
      622    1    1    2    0    0 -0.64657045667E-01 -0.19306148749E-01  0.36787240013E+01  0.36795602371E+01  0.40000000000E-01 0.  1.
</event>
<event>
 5   0  0.7212170E+07  0.9118800E+02  0.7818608E-02  0.1180000E+00
       11   -1    0    0    0    0  0.00000000000E+00  0.00000000000E+00  0.39999999673E+01  0.40000000000E+01  0.51109989000E-03 0. -1.
     -623   -1    0    0    0    0  0.00000000000E+00  0.00000000000E+00  0.12525980253E-10  0.17130000000E+03  0.17130000000E+03 0.  1.
       11    1    1    2    0    0  0.62570978224E-02 -0.38999198721E-02  0.68951336832E+00  0.68955297618E+00  0.51109989000E-03 0. -1.
     -623    1    1    2    0    0 -0.49787784724E-03 -0.42399818590E-02  0.29631493661E-03  0.17130000005E+03  0.17130000000E+03 0.  1.
      622    1    1    2    0    0 -0.57592199753E-02  0.81399017301E-02  0.33101902831E+01  0.33104469694E+01  0.40000000000E-01 0. -1.
</event>
<event>
 5   0  0.7212170E+07  0.9118800E+02  0.7818608E-02  0.1180000E+00
       11   -1    0    0    0    0  0.00000000000E+00  0.00000000000E+00  0.39999999673E+01  0.40000000000E+01  0.51109989000E-03 0. -1.
     -623   -1    0    0    0    0  0.00000000000E+00  0.00000000000E+00  0.12525980253E-10  0.17130000000E+03  0.17130000000E+03 0. -1.
       11    1    1    2    0    0  0.75908264973E-02  0.21291838908E-02  0.57279735903E-01  0.57821997883E-01  0.51109989000E-03 0. -1.
     -623    1    1    2    0    0 -0.10930358140E-02  0.73686483638E-03  0.75157203458E-03  0.17130000001E+03  0.17130000000E+03 0. -1.
      622    1    1    2    0    0 -0.64977906833E-02 -0.28660487272E-02  0.39419686595E+01  0.39421779955E+01  0.40000000000E-01 0. -1.
</event>
<event>
 5   0  0.7212170E+07  0.9118800E+02  0.7818608E-02  0.1180000E+00
       11   -1    0    0    0    0  0.00000000000E+00  0.00000000000E+00  0.39999999673E+01  0.40000000000E+01  0.51109989000E-03 0. -1.
     -623   -1    0    0    0    0  0.00000000000E+00  0.00000000000E+00  0.12525980253E-10  0.17130000000E+03  0.17130000000E+03 0.  1.
       11    1    1    2    0    0 -0.10749499851E-01  0.12712550065E-01  0.92368238434E+00  0.92383254383E+00  0.51109989000E-03 0. -1.
     -623    1    1    2    0    0  0.54003653872E-02  0.34141458312E-02  0.45724840717E-03  0.17130000012E+03  0.17130000000E+03 0.  1.
      622    1    1    2    0    0  0.53491344620E-02 -0.16126695897E-01  0.30758603356E+01  0.30761673374E+01  0.40000000000E-01 0. -1.
</event>
<event>
 5   0  0.7212170E+07  0.9118800E+02  0.7818608E-02  0.1180000E+00
       11   -1    0    0    0    0  0.00000000000E+00  0.00000000000E+00  0.39999999673E+01  0.40000000000E+01  0.51109989000E-03 0.  1.
     -623   -1    0    0    0    0  0.00000000000E+00  0.00000000000E+00  0.12525980253E-10  0.17130000000E+03  0.17130000000E+03 0.  1.
       11    1    1    2    0    0 -0.14218755871E-01 -0.17558620313E-01  0.51793379935E+00  0.51842661959E+00  0.51109989000E-03 0.  1.
     -623    1    1    2    0    0  0.26181044033E-02  0.46973119015E-03  0.78386953735E-03  0.17130000002E+03  0.17130000000E+03 0.  1.
      622    1    1    2    0    0  0.11600651467E-01  0.17088889123E-01  0.34812822989E+01  0.34815733584E+01  0.40000000000E-01 0.  1.
</event>
<event>
 5   0  0.7212170E+07  0.9118800E+02  0.7818608E-02  0.1180000E+00
       11   -1    0    0    0    0  0.00000000000E+00  0.00000000000E+00  0.39999999673E+01  0.40000000000E+01  0.51109989000E-03 0.  1.
     -623   -1    0    0    0    0  0.00000000000E+00  0.00000000000E+00  0.12525980253E-10  0.17130000000E+03  0.17130000000E+03 0. -1.
       11    1    1    2    0    0 -0.61292186978E-03  0.13982227526E-02  0.10050013804E-01  0.10178148193E-01  0.51109989000E-03 0.  1.
     -623    1    1    2    0    0  0.12876089446E-02  0.91393076310E-04  0.32895731245E-03  0.17130000001E+03  0.17130000000E+03 0. -1.
      622    1    1    2    0    0 -0.67468707480E-03 -0.14896158289E-02  0.39896209962E+01  0.39898218465E+01  0.40000000000E-01 0.  1.
</event>
<event>
 5   0  0.7212170E+07  0.9118800E+02  0.7818608E-02  0.1180000E+00
       11   -1    0    0    0    0  0.00000000000E+00  0.00000000000E+00  0.39999999673E+01  0.40000000000E+01  0.51109989000E-03 0. -1.
     -623   -1    0    0    0    0  0.00000000000E+00  0.00000000000E+00  0.12525980253E-10  0.17130000000E+03  0.17130000000E+03 0. -1.
       11    1    1    2    0    0  0.44755916438E-03 -0.14446250257E-03 -0.25178946327E-03  0.73878254692E-03  0.51109989000E-03 0. -1.
     -623    1    1    2    0    0 -0.17558273495E-02 -0.79071272677E-03  0.11909196238E-02  0.17130000001E+03  0.17130000000E+03 0. -1.
      622    1    1    2    0    0  0.13082681852E-02  0.93517522935E-03  0.39990608373E+01  0.39992612026E+01  0.40000000000E-01 0. -1.
</event>
<event>
 5   0  0.7212170E+07  0.9118800E+02  0.7818608E-02  0.1180000E+00
       11   -1    0    0    0    0  0.00000000000E+00  0.00000000000E+00  0.39999999673E+01  0.40000000000E+01  0.51109989000E-03 0. -1.
     -623   -1    0    0    0    0  0.00000000000E+00  0.00000000000E+00  0.12525980253E-10  0.17130000000E+03  0.17130000000E+03 0.  1.
       11    1    1    2    0    0 -0.50120613823E-03 -0.21625094913E-03  0.14544420171E-01  0.14563631184E-01  0.51109989000E-03 0. -1.
     -623    1    1    2    0    0  0.51593581019E-03  0.92271550235E-03  0.21998031952E-03  0.17130000000E+03  0.17130000000E+03 0.  1.
      622    1    1    2    0    0 -0.14729671795E-04 -0.70646455293E-03  0.39852355656E+01  0.39854363642E+01  0.40000000000E-01 0. -1.
</event>
<event>
 5   0  0.7212170E+07  0.9118800E+02  0.7818608E-02  0.1180000E+00
       11   -1    0    0    0    0  0.00000000000E+00  0.00000000000E+00  0.39999999673E+01  0.40000000000E+01  0.51109989000E-03 0.  1.
     -623   -1    0    0    0    0  0.00000000000E+00  0.00000000000E+00  0.12525980253E-10  0.17130000000E+03  0.17130000000E+03 0.  1.
       11    1    1    2    0    0  0.15493280361E-02  0.16118315989E-02  0.94524177267E+00  0.94524455484E+00  0.51109989000E-03 0.  1.
     -623    1    1    2    0    0 -0.16728509584E-02 -0.86559424781E-03  0.26475172192E-03  0.17130000001E+03  0.17130000000E+03 0.  1.
      622    1    1    2    0    0  0.12352292296E-03 -0.74623735078E-03  0.30544934445E+01  0.30547554361E+01  0.40000000000E-01 0.  1.
</event>
<event>
 5   0  0.7212170E+07  0.9118800E+02  0.7818608E-02  0.1180000E+00
       11   -1    0    0    0    0  0.00000000000E+00  0.00000000000E+00  0.39999999673E+01  0.40000000000E+01  0.51109989000E-03 0. -1.
     -623   -1    0    0    0    0  0.00000000000E+00  0.00000000000E+00  0.12525980253E-10  0.17130000000E+03  0.17130000000E+03 0. -1.
       11    1    1    2    0    0  0.36218113236E-02 -0.18641001114E-02  0.57411631521E-02  0.70579433212E-02  0.51109989000E-03 0. -1.
     -623    1    1    2    0    0 -0.87799844188E-02 -0.55616784609E-03  0.15214041917E-02  0.17130000023E+03  0.17130000000E+03 0. -1.
      622    1    1    2    0    0  0.51581730956E-02  0.24202679575E-02  0.39927374002E+01  0.39929418242E+01  0.40000000000E-01 0. -1.
</event>
<event>
 5   0  0.7212170E+07  0.9118800E+02  0.7818608E-02  0.1180000E+00
       11   -1    0    0    0    0  0.00000000000E+00  0.00000000000E+00  0.39999999673E+01  0.40000000000E+01  0.51109989000E-03 0.  1.
     -623   -1    0    0    0    0  0.00000000000E+00  0.00000000000E+00  0.12525980253E-10  0.17130000000E+03  0.17130000000E+03 0.  1.
       11    1    1    2    0    0  0.77002056035E-03  0.50905397620E-03  0.53081478568E-02  0.54119981874E-02  0.51109989000E-03 0. -1.
     -623    1    1    2    0    0  0.52358376555E-02 -0.61120131979E-02  0.31272782237E-03  0.17130000019E+03  0.17130000000E+03 0.  1.
      622    1    1    2    0    0 -0.60058582177E-02  0.56029592238E-02  0.39943790931E+01  0.39945878139E+01  0.40000000000E-01 0.  1.
</event>
<event>
 5   0  0.7212170E+07  0.9118800E+02  0.7818608E-02  0.1180000E+00
       11   -1    0    0    0    0  0.00000000000E+00  0.00000000000E+00  0.39999999673E+01  0.40000000000E+01  0.51109989000E-03 0. -1.
     -623   -1    0    0    0    0  0.00000000000E+00  0.00000000000E+00  0.12525980253E-10  0.17130000000E+03  0.17130000000E+03 0.  1.
       11    1    1    2    0    0  0.38858693936E-02 -0.16317301503E-01  0.55495974316E-01  0.57977743124E-01  0.51109989000E-03 0. -1.
     -623    1    1    2    0    0 -0.14583258282E-01  0.60208366790E-03  0.27311688650E-02  0.17130000064E+03  0.17130000000E+03 0.  1.
      622    1    1    2    0    0  0.10697388888E-01  0.15715217836E-01  0.39417728242E+01  0.39420216133E+01  0.40000000000E-01 0. -1.
</event>
<event>
 5   0  0.7212170E+07  0.9118800E+02  0.7818608E-02  0.1180000E+00
       11   -1    0    0    0    0  0.00000000000E+00  0.00000000000E+00  0.39999999673E+01  0.40000000000E+01  0.51109989000E-03 0.  1.
     -623   -1    0    0    0    0  0.00000000000E+00  0.00000000000E+00  0.12525980253E-10  0.17130000000E+03  0.17130000000E+03 0.  1.
       11    1    1    2    0    0  0.15030760423E-01  0.20913104069E-01  0.10383269919E+01  0.10386464678E+01  0.51109989000E-03 0.  1.
     -623    1    1    2    0    0 -0.20558721864E-02  0.32821642752E-03  0.69423217836E-03  0.17130000001E+03  0.17130000000E+03 0.  1.
      622    1    1    2    0    0 -0.12974888237E-01 -0.21241320497E-01  0.29609787429E+01  0.29613535177E+01  0.40000000000E-01 0.  1.
</event>
<event>
 5   0  0.7212170E+07  0.9118800E+02  0.7818608E-02  0.1180000E+00
       11   -1    0    0    0    0  0.00000000000E+00  0.00000000000E+00  0.39999999673E+01  0.40000000000E+01  0.51109989000E-03 0.  1.
     -623   -1    0    0    0    0  0.00000000000E+00  0.00000000000E+00  0.12525980253E-10  0.17130000000E+03  0.17130000000E+03 0. -1.
       11    1    1    2    0    0 -0.15830872225E-02 -0.44452683534E-02  0.13941282212E-01  0.14727088942E-01  0.51109989000E-03 0.  1.
     -623    1    1    2    0    0 -0.45994228157E-02  0.12765847564E-02  0.99264320710E-03  0.17130000007E+03  0.17130000000E+03 0. -1.
      622    1    1    2    0    0  0.61825100384E-02  0.31686835970E-02  0.39850660421E+01  0.39852728419E+01  0.40000000000E-01 0.  1.
</event>
<event>
 5   0  0.7212170E+07  0.9118800E+02  0.7818608E-02  0.1180000E+00
       11   -1    0    0    0    0  0.00000000000E+00  0.00000000000E+00  0.39999999673E+01  0.40000000000E+01  0.51109989000E-03 0.  1.
     -623   -1    0    0    0    0  0.00000000000E+00  0.00000000000E+00  0.12525980253E-10  0.17130000000E+03  0.17130000000E+03 0.  1.
       11    1    1    2    0    0  0.41794720437E-02 -0.68597725510E-02  0.26437079988E+00  0.26449329958E+00  0.51109989000E-03 0.  1.
     -623    1    1    2    0    0  0.23738990390E-02 -0.27786387672E-02  0.35485770061E-03  0.17130000004E+03  0.17130000000E+03 0.  1.
      622    1    1    2    0    0 -0.65533710827E-02  0.96384113183E-02  0.37352743099E+01  0.37355066612E+01  0.40000000000E-01 0.  0.
</event>
<event>
 5   0  0.7212170E+07  0.9118800E+02  0.7818608E-02  0.1180000E+00
       11   -1    0    0    0    0  0.00000000000E+00  0.00000000000E+00  0.39999999673E+01  0.40000000000E+01  0.51109989000E-03 0. -1.
     -623   -1    0    0    0    0  0.00000000000E+00  0.00000000000E+00  0.12525980253E-10  0.17130000000E+03  0.17130000000E+03 0. -1.
       11    1    1    2    0    0 -0.10121134505E-01 -0.17140884005E-01  0.26445986946E+01  0.26446736593E+01  0.51109989000E-03 0. -1.
     -623    1    1    2    0    0 -0.12813134419E-01  0.59042023771E-02  0.90665670282E-03  0.17130000058E+03  0.17130000000E+03 0. -1.
      622    1    1    2    0    0  0.22934268924E-01  0.11236681628E-01  0.13544946160E+01  0.13553257574E+01  0.40000000000E-01 0.  0.
</event>
<event>
 5   0  0.7212170E+07  0.9118800E+02  0.7818608E-02  0.1180000E+00
       11   -1    0    0    0    0  0.00000000000E+00  0.00000000000E+00  0.39999999673E+01  0.40000000000E+01  0.51109989000E-03 0. -1.
     -623   -1    0    0    0    0  0.00000000000E+00  0.00000000000E+00  0.12525980253E-10  0.17130000000E+03  0.17130000000E+03 0.  1.
       11    1    1    2    0    0  0.21538843961E-01  0.19122096378E-02  0.77015569942E+00  0.77045937006E+00  0.51109989000E-03 0. -1.
     -623    1    1    2    0    0  0.18001360696E-02 -0.32442011152E-01  0.78310587004E-03  0.17130000308E+03  0.17130000000E+03 0.  1.
      622    1    1    2    0    0 -0.23338980031E-01  0.30529801521E-01  0.32290611629E+01  0.32295375475E+01  0.40000000000E-01 0. -1.
</event>
<event>
 5   0  0.7212170E+07  0.9118800E+02  0.7818608E-02  0.1180000E+00
       11   -1    0    0    0    0  0.00000000000E+00  0.00000000000E+00  0.39999999673E+01  0.40000000000E+01  0.51109989000E-03 0.  1.
     -623   -1    0    0    0    0  0.00000000000E+00  0.00000000000E+00  0.12525980253E-10  0.17130000000E+03  0.17130000000E+03 0.  1.
       11    1    1    2    0    0 -0.22097969644E-01  0.13079481095E-01  0.10025867562E+01  0.10029156785E+01  0.51109989000E-03 0.  1.
     -623    1    1    2    0    0  0.35687113154E-03 -0.43510117176E-03  0.70136968923E-03  0.17130000000E+03  0.17130000000E+03 0.  1.
      622    1    1    2    0    0  0.21741098512E-01 -0.12644379923E-01  0.29967118412E+01  0.29970843190E+01  0.40000000000E-01 0.  0.
</event>
<event>
 5   0  0.7212170E+07  0.9118800E+02  0.7818608E-02  0.1180000E+00
       11   -1    0    0    0    0  0.00000000000E+00  0.00000000000E+00  0.39999999673E+01  0.40000000000E+01  0.51109989000E-03 0.  1.
     -623   -1    0    0    0    0  0.00000000000E+00  0.00000000000E+00  0.12525980253E-10  0.17130000000E+03  0.17130000000E+03 0. -1.
       11    1    1    2    0    0 -0.47485045429E-02  0.18156025035E-02  0.40792293406E+00  0.40795493141E+00  0.51109989000E-03 0.  1.
     -623    1    1    2    0    0 -0.78746672537E-03 -0.46318734042E-02  0.26012091320E-03  0.17130000006E+03  0.17130000000E+03 0. -1.
      622    1    1    2    0    0  0.55359712682E-02  0.28162709004E-02  0.35918169121E+01  0.35920450037E+01  0.40000000000E-01 0.  1.
</event>
<event>
 5   0  0.7212170E+07  0.9118800E+02  0.7818608E-02  0.1180000E+00
       11   -1    0    0    0    0  0.00000000000E+00  0.00000000000E+00  0.39999999673E+01  0.40000000000E+01  0.51109989000E-03 0.  1.
     -623   -1    0    0    0    0  0.00000000000E+00  0.00000000000E+00  0.12525980253E-10  0.17130000000E+03  0.17130000000E+03 0.  1.
       11    1    1    2    0    0  0.15972429250E-02  0.29643559257E-02  0.51861992491E-02  0.62045529061E-02  0.51109989000E-03 0.  1.
     -623    1    1    2    0    0  0.10674822549E-02 -0.29921586506E-03  0.12204229997E-02  0.17130000001E+03  0.17130000000E+03 0.  1.
      622    1    1    2    0    0 -0.26647251799E-02 -0.26651400607E-02  0.39935933450E+01  0.39937954391E+01  0.40000000000E-01 0.  1.
</event>
<event>
 5   0  0.7212170E+07  0.9118800E+02  0.7818608E-02  0.1180000E+00
       11   -1    0    0    0    0  0.00000000000E+00  0.00000000000E+00  0.39999999673E+01  0.40000000000E+01  0.51109989000E-03 0.  1.
     -623   -1    0    0    0    0  0.00000000000E+00  0.00000000000E+00  0.12525980253E-10  0.17130000000E+03  0.17130000000E+03 0. -1.
       11    1    1    2    0    0 -0.94979795655E-02 -0.20523452666E-01  0.65010760526E+00  0.65050102487E+00  0.51109989000E-03 0.  1.
     -623    1    1    2    0    0 -0.85988235555E-03  0.97577900773E-03  0.70530481209E-03  0.17130000001E+03  0.17130000000E+03 0. -1.
      622    1    1    2    0    0  0.10357861921E-01  0.19547673658E-01  0.33491870577E+01  0.33494989692E+01  0.40000000000E-01 0.  1.
</event>
<event>
 5   0  0.7212170E+07  0.9118800E+02  0.7818608E-02  0.1180000E+00
       11   -1    0    0    0    0  0.00000000000E+00  0.00000000000E+00  0.39999999673E+01  0.40000000000E+01  0.51109989000E-03 0. -1.
     -623   -1    0    0    0    0  0.00000000000E+00  0.00000000000E+00  0.12525980253E-10  0.17130000000E+03  0.17130000000E+03 0.  1.
       11    1    1    2    0    0 -0.15017039553E-02 -0.20301178866E-03  0.10789267710E-01  0.10907146710E-01  0.51109989000E-03 0. -1.
     -623    1    1    2    0    0  0.83870538332E-02  0.12762401040E-03  0.32454716026E-03  0.17130000021E+03  0.17130000000E+03 0.  1.
      622    1    1    2    0    0 -0.68853498802E-02  0.75387778231E-04  0.39888861536E+01  0.39890926487E+01  0.40000000000E-01 0. -1.
</event>
<event>
 5   0  0.7212170E+07  0.9118800E+02  0.7818608E-02  0.1180000E+00
       11   -1    0    0    0    0  0.00000000000E+00  0.00000000000E+00  0.39999999673E+01  0.40000000000E+01  0.51109989000E-03 0.  1.
     -623   -1    0    0    0    0  0.00000000000E+00  0.00000000000E+00  0.12525980253E-10  0.17130000000E+03  0.17130000000E+03 0. -1.
       11    1    1    2    0    0 -0.34242194550E-01 -0.21459175453E-01  0.77133479471E+00  0.77239280865E+00  0.51109989000E-03 0.  1.
     -623    1    1    2    0    0  0.97319602574E-02 -0.63154093247E-03  0.14748161168E-02  0.17130000028E+03  0.17130000000E+03 0. -1.
      622    1    1    2    0    0  0.24510234293E-01  0.22090716385E-01  0.32271903567E+01  0.32276069075E+01  0.40000000000E-01 0.  1.
</event>
<event>
 5   0  0.7212170E+07  0.9118800E+02  0.7818608E-02  0.1180000E+00
       11   -1    0    0    0    0  0.00000000000E+00  0.00000000000E+00  0.39999999673E+01  0.40000000000E+01  0.51109989000E-03 0.  1.
     -623   -1    0    0    0    0  0.00000000000E+00  0.00000000000E+00  0.12525980253E-10  0.17130000000E+03  0.17130000000E+03 0. -1.
       11    1    1    2    0    0  0.29004631009E-01  0.52898983124E-01  0.10891160439E+01  0.10907857669E+01  0.51109989000E-03 0.  1.
     -623    1    1    2    0    0 -0.22811067601E-01  0.16572225808E-02  0.24644682921E-02  0.17130000154E+03  0.17130000000E+03 0. -1.
      622    1    1    2    0    0 -0.61935634080E-02 -0.54556205705E-01  0.29084194552E+01  0.29092126886E+01  0.40000000000E-01 0.  1.
</event>
<event>
 5   0  0.7212170E+07  0.9118800E+02  0.7818608E-02  0.1180000E+00
       11   -1    0    0    0    0  0.00000000000E+00  0.00000000000E+00  0.39999999673E+01  0.40000000000E+01  0.51109989000E-03 0. -1.
     -623   -1    0    0    0    0  0.00000000000E+00  0.00000000000E+00  0.12525980253E-10  0.17130000000E+03  0.17130000000E+03 0. -1.
       11    1    1    2    0    0 -0.32742506767E-02  0.94184108250E-02  0.35762632324E-01  0.37130233958E-01  0.51109989000E-03 0. -1.
     -623    1    1    2    0    0  0.32958891537E-02 -0.61404208328E-03  0.15792691027E-02  0.17130000004E+03  0.17130000000E+03 0. -1.
      622    1    1    2    0    0 -0.21638476939E-04 -0.88043687418E-02  0.39626580659E+01  0.39628697259E+01  0.40000000000E-01 0. -1.
</event>
<event>
 5   0  0.7212170E+07  0.9118800E+02  0.7818608E-02  0.1180000E+00
       11   -1    0    0    0    0  0.00000000000E+00  0.00000000000E+00  0.39999999673E+01  0.40000000000E+01  0.51109989000E-03 0.  1.
     -623   -1    0    0    0    0  0.00000000000E+00  0.00000000000E+00  0.12525980253E-10  0.17130000000E+03  0.17130000000E+03 0. -1.
       11    1    1    2    0    0 -0.28429857509E-02 -0.34366749247E-02  0.44806120520E-01  0.45030467038E-01  0.51109989000E-03 0.  1.
     -623    1    1    2    0    0  0.64429118309E-03 -0.39186959473E-03  0.42906277669E-03  0.17130000000E+03  0.17130000000E+03 0. -1.
      622    1    1    2    0    0  0.21986945678E-02  0.38285445195E-02  0.39547647843E+01  0.39549695310E+01  0.40000000000E-01 0.  1.
</event>
<event>
 5   0  0.7212170E+07  0.9118800E+02  0.7818608E-02  0.1180000E+00
       11   -1    0    0    0    0  0.00000000000E+00  0.00000000000E+00  0.39999999673E+01  0.40000000000E+01  0.51109989000E-03 0. -1.
     -623   -1    0    0    0    0  0.00000000000E+00  0.00000000000E+00  0.12525980253E-10  0.17130000000E+03  0.17130000000E+03 0.  1.
       11    1    1    2    0    0  0.29970779308E-03 -0.15762456639E-01  0.64889546837E+00  0.64908715513E+00  0.51109989000E-03 0. -1.
     -623    1    1    2    0    0  0.39560796504E-02 -0.61314857505E-02  0.50479283305E-03  0.17130000016E+03  0.17130000000E+03 0.  1.
      622    1    1    2    0    0 -0.42557874439E-02  0.21893942390E-01  0.33505997065E+01  0.33509126891E+01  0.40000000000E-01 0. -1.
</event>
<event>
 5   0  0.7212170E+07  0.9118800E+02  0.7818608E-02  0.1180000E+00
       11   -1    0    0    0    0  0.00000000000E+00  0.00000000000E+00  0.39999999673E+01  0.40000000000E+01  0.51109989000E-03 0.  1.
     -623   -1    0    0    0    0  0.00000000000E+00  0.00000000000E+00  0.12525980253E-10  0.17130000000E+03  0.17130000000E+03 0.  1.
       11    1    1    2    0    0  0.15409886724E-02 -0.12179473104E-02  0.10597139735E-01  0.10789746772E-01  0.51109989000E-03 0. -1.
     -623    1    1    2    0    0  0.98166292221E-04  0.61852642490E-03  0.39350379697E-03  0.17130000000E+03  0.17130000000E+03 0.  1.
      622    1    1    2    0    0 -0.16391549646E-02  0.59942088563E-03  0.39890093233E+01  0.39892102511E+01  0.40000000000E-01 0.  1.
</event>
<event>
 5   0  0.7212170E+07  0.9118800E+02  0.7818608E-02  0.1180000E+00
       11   -1    0    0    0    0  0.00000000000E+00  0.00000000000E+00  0.39999999673E+01  0.40000000000E+01  0.51109989000E-03 0.  1.
     -623   -1    0    0    0    0  0.00000000000E+00  0.00000000000E+00  0.12525980253E-10  0.17130000000E+03  0.17130000000E+03 0. -1.
       11    1    1    2    0    0  0.16741393792E-02 -0.15553647143E-02  0.70710307947E-02  0.74486644207E-02  0.51109989000E-03 0. -1.
     -623    1    1    2    0    0  0.37206284726E-02  0.70593226455E-03  0.58175726926E-03  0.17130000004E+03  0.17130000000E+03 0. -1.
      622    1    1    2    0    0 -0.53947678521E-02  0.84943244963E-03  0.39923471797E+01  0.39925512932E+01  0.40000000000E-01 0.  1.
</event>
<event>
 5   0  0.7212170E+07  0.9118800E+02  0.7818608E-02  0.1180000E+00
       11   -1    0    0    0    0  0.00000000000E+00  0.00000000000E+00  0.39999999673E+01  0.40000000000E+01  0.51109989000E-03 0.  1.
     -623   -1    0    0    0    0  0.00000000000E+00  0.00000000000E+00  0.12525980253E-10  0.17130000000E+03  0.17130000000E+03 0. -1.
       11    1    1    2    0    0  0.90647729558E-02  0.20268869964E-02  0.21214253633E+01  0.21214457598E+01  0.51109989000E-03 0.  1.
     -623    1    1    2    0    0 -0.12126346932E-05 -0.16347217912E-02  0.46819071404E-03  0.17130000001E+03  0.17130000000E+03 0. -1.
      622    1    1    2    0    0 -0.90635603211E-02 -0.39216520466E-03  0.18781064146E+01  0.18785542331E+01  0.40000000000E-01 0.  1.
</event>
<event>
 5   0  0.7212170E+07  0.9118800E+02  0.7818608E-02  0.1180000E+00
       11   -1    0    0    0    0  0.00000000000E+00  0.00000000000E+00  0.39999999673E+01  0.40000000000E+01  0.51109989000E-03 0.  1.
     -623   -1    0    0    0    0  0.00000000000E+00  0.00000000000E+00  0.12525980253E-10  0.17130000000E+03  0.17130000000E+03 0. -1.
       11    1    1    2    0    0 -0.99575753464E-03  0.16997244188E-02  0.69053687467E+00  0.69053987365E+00  0.51109989000E-03 0.  1.
     -623    1    1    2    0    0  0.39168106364E-03 -0.22977961459E-03  0.24508882235E-03  0.17130000000E+03  0.17130000000E+03 0. -1.
      622    1    1    2    0    0  0.60407647099E-03 -0.14699448043E-02  0.33092180040E+01  0.33094601257E+01  0.40000000000E-01 0.  1.
</event>
<event>
 5   0  0.7212170E+07  0.9118800E+02  0.7818608E-02  0.1180000E+00
       11   -1    0    0    0    0  0.00000000000E+00  0.00000000000E+00  0.39999999673E+01  0.40000000000E+01  0.51109989000E-03 0. -1.
     -623   -1    0    0    0    0  0.00000000000E+00  0.00000000000E+00  0.12525980253E-10  0.17130000000E+03  0.17130000000E+03 0.  1.
       11    1    1    2    0    0 -0.30405575204E-02 -0.73522705543E-02  0.41838488784E+00  0.41846084221E+00  0.51109989000E-03 0. -1.
     -623    1    1    2    0    0  0.17275250929E-02  0.36370960360E-02  0.30151166728E-03  0.17130000005E+03  0.17130000000E+03 0.  1.
      622    1    1    2    0    0  0.13130324272E-02  0.37151745177E-02  0.35813135685E+01  0.35815391109E+01  0.40000000000E-01 0. -1.
</event>
<event>
 5   0  0.7212170E+07  0.9118800E+02  0.7818608E-02  0.1180000E+00
       11   -1    0    0    0    0  0.00000000000E+00  0.00000000000E+00  0.39999999673E+01  0.40000000000E+01  0.51109989000E-03 0. -1.
     -623   -1    0    0    0    0  0.00000000000E+00  0.00000000000E+00  0.12525980253E-10  0.17130000000E+03  0.17130000000E+03 0. -1.
       11    1    1    2    0    0 -0.40826879988E-03 -0.69146013633E-03  0.20669660734E-02  0.22756037395E-02  0.51109989000E-03 0. -1.
     -623    1    1    2    0    0  0.32697258722E-03 -0.13501967434E-03  0.40881099592E-03  0.17130000000E+03  0.17130000000E+03 0. -1.
      622    1    1    2    0    0  0.81296212617E-04  0.82647981069E-03  0.39975241908E+01  0.39977243959E+01  0.40000000000E-01 0. -1.
</event>
<event>
 5   0  0.7212170E+07  0.9118800E+02  0.7818608E-02  0.1180000E+00
       11   -1    0    0    0    0  0.00000000000E+00  0.00000000000E+00  0.39999999673E+01  0.40000000000E+01  0.51109989000E-03 0.  1.
     -623   -1    0    0    0    0  0.00000000000E+00  0.00000000000E+00  0.12525980253E-10  0.17130000000E+03  0.17130000000E+03 0. -1.
       11    1    1    2    0    0  0.47109542732E-02 -0.16529944920E-01  0.19023343425E+00  0.19100903879E+00  0.51109989000E-03 0.  1.
     -623    1    1    2    0    0 -0.12579521709E-01 -0.12234286543E-01  0.11032540485E-02  0.17130000090E+03  0.17130000000E+03 0. -1.
      622    1    1    2    0    0  0.78685674354E-02  0.28764231462E-01  0.38086632790E+01  0.38089900588E+01  0.40000000000E-01 0.  1.
</event>
<event>
 5   0  0.7212170E+07  0.9118800E+02  0.7818608E-02  0.1180000E+00
       11   -1    0    0    0    0  0.00000000000E+00  0.00000000000E+00  0.39999999673E+01  0.40000000000E+01  0.51109989000E-03 0. -1.
     -623   -1    0    0    0    0  0.00000000000E+00  0.00000000000E+00  0.12525980253E-10  0.17130000000E+03  0.17130000000E+03 0. -1.
       11    1    1    2    0    0 -0.62282749758E-02  0.24065221573E-02  0.42571280925E+00  0.42576547528E+00  0.51109989000E-03 0. -1.
     -623    1    1    2    0    0  0.16693112561E-02  0.33700019822E-03  0.28043393042E-03  0.17130000001E+03  0.17130000000E+03 0. -1.
      622    1    1    2    0    0  0.45589637192E-02 -0.27435223556E-02  0.35740067254E+01  0.35742345173E+01  0.40000000000E-01 0. -1.
</event>
<event>
 5   0  0.7212170E+07  0.9118800E+02  0.7818608E-02  0.1180000E+00
       11   -1    0    0    0    0  0.00000000000E+00  0.00000000000E+00  0.39999999673E+01  0.40000000000E+01  0.51109989000E-03 0. -1.
     -623   -1    0    0    0    0  0.00000000000E+00  0.00000000000E+00  0.12525980253E-10  0.17130000000E+03  0.17130000000E+03 0. -1.
       11    1    1    2    0    0  0.41996452319E-01 -0.12785071674E-02  0.10120759713E+01  0.10129478612E+01  0.51109989000E-03 0. -1.
     -623    1    1    2    0    0 -0.50907598188E-01 -0.11102532336E-01  0.11865759836E-02  0.17130000793E+03  0.17130000000E+03 0. -1.
      622    1    1    2    0    0  0.89111458741E-02  0.12381039505E-01  0.29867374204E+01  0.29870442107E+01  0.40000000000E-01 0.  0.
</event>
<event>
 5   0  0.7212170E+07  0.9118800E+02  0.7818608E-02  0.1180000E+00
       11   -1    0    0    0    0  0.00000000000E+00  0.00000000000E+00  0.39999999673E+01  0.40000000000E+01  0.51109989000E-03 0. -1.
     -623   -1    0    0    0    0  0.00000000000E+00  0.00000000000E+00  0.12525980253E-10  0.17130000000E+03  0.17130000000E+03 0.  1.
       11    1    1    2    0    0  0.27707750785E-02 -0.89858016002E-02  0.70038855563E+00  0.70045186266E+00  0.51109989000E-03 0. -1.
     -623    1    1    2    0    0  0.11127506029E-01 -0.29694275687E-02  0.35706209657E-03  0.17130000039E+03  0.17130000000E+03 0.  1.
      622    1    1    2    0    0 -0.13898281111E-01  0.11955229170E-01  0.32992543508E+01  0.32995477509E+01  0.40000000000E-01 0.  0.
</event>
<event>
 5   0  0.7212170E+07  0.9118800E+02  0.7818608E-02  0.1180000E+00
       11   -1    0    0    0    0  0.00000000000E+00  0.00000000000E+00  0.39999999673E+01  0.40000000000E+01  0.51109989000E-03 0. -1.
     -623   -1    0    0    0    0  0.00000000000E+00  0.00000000000E+00  0.12525980253E-10  0.17130000000E+03  0.17130000000E+03 0.  1.
       11    1    1    2    0    0  0.33952626240E-02 -0.15500810424E-01  0.16924859973E+01  0.16925604613E+01  0.51109989000E-03 0. -1.
     -623    1    1    2    0    0  0.17536121645E-02  0.28966844605E-03  0.47706326576E-03  0.17130000001E+03  0.17130000000E+03 0.  1.
      622    1    1    2    0    0 -0.51488747888E-02  0.15211141977E-01  0.23070369073E+01  0.23074395293E+01  0.40000000000E-01 0. -1.
</event>
<event>
 5   0  0.7212170E+07  0.9118800E+02  0.7818608E-02  0.1180000E+00
       11   -1    0    0    0    0  0.00000000000E+00  0.00000000000E+00  0.39999999673E+01  0.40000000000E+01  0.51109989000E-03 0.  1.
     -623   -1    0    0    0    0  0.00000000000E+00  0.00000000000E+00  0.12525980253E-10  0.17130000000E+03  0.17130000000E+03 0.  1.
       11    1    1    2    0    0  0.13936908745E-02 -0.51583539023E-02  0.58809955285E+00  0.58812404837E+00  0.51109989000E-03 0.  1.
     -623    1    1    2    0    0 -0.98542892234E-03 -0.71409547361E-03  0.26402912755E-03  0.17130000000E+03  0.17130000000E+03 0.  1.
      622    1    1    2    0    0 -0.40826195210E-03  0.58724493760E-02  0.34116363857E+01  0.34118759474E+01  0.40000000000E-01 0.  1.
</event>
<event>
 5   0  0.7212170E+07  0.9118800E+02  0.7818608E-02  0.1180000E+00
       11   -1    0    0    0    0  0.00000000000E+00  0.00000000000E+00  0.39999999673E+01  0.40000000000E+01  0.51109989000E-03 0. -1.
     -623   -1    0    0    0    0  0.00000000000E+00  0.00000000000E+00  0.12525980253E-10  0.17130000000E+03  0.17130000000E+03 0. -1.
       11    1    1    2    0    0  0.40644100167E-02  0.56401818903E-03  0.23754937866E-01  0.24112151322E-01  0.51109989000E-03 0. -1.
     -623    1    1    2    0    0 -0.51288639430E-02 -0.13703104260E-02  0.55870626445E-03  0.17130000008E+03  0.17130000000E+03 0. -1.
      622    1    1    2    0    0  0.10644539257E-02  0.80629223685E-03  0.39756863228E+01  0.39758877651E+01  0.40000000000E-01 0. -1.
</event>
<event>
 5   0  0.7212170E+07  0.9118800E+02  0.7818608E-02  0.1180000E+00
       11   -1    0    0    0    0  0.00000000000E+00  0.00000000000E+00  0.39999999673E+01  0.40000000000E+01  0.51109989000E-03 0. -1.
     -623   -1    0    0    0    0  0.00000000000E+00  0.00000000000E+00  0.12525980253E-10  0.17130000000E+03  0.17130000000E+03 0.  1.
       11    1    1    2    0    0 -0.11792753029E-01 -0.29991127082E-01  0.10885595927E+01  0.10890366315E+01  0.51109989000E-03 0. -1.
     -623    1    1    2    0    0  0.46255944839E-02 -0.14634267694E-01  0.11034671950E-02  0.17130000069E+03  0.17130000000E+03 0.  1.
      622    1    1    2    0    0  0.71671585447E-02  0.44625394776E-01  0.29103369075E+01  0.29109626774E+01  0.40000000000E-01 0.  0.
</event>
<event>
 5   0  0.7212170E+07  0.9118800E+02  0.7818608E-02  0.1180000E+00
       11   -1    0    0    0    0  0.00000000000E+00  0.00000000000E+00  0.39999999673E+01  0.40000000000E+01  0.51109989000E-03 0.  1.
     -623   -1    0    0    0    0  0.00000000000E+00  0.00000000000E+00  0.12525980253E-10  0.17130000000E+03  0.17130000000E+03 0.  1.
       11    1    1    2    0    0 -0.45734977171E-02  0.34956689174E-02  0.27779887245E+00  0.27785897743E+00  0.51109989000E-03 0.  1.
     -623    1    1    2    0    0  0.81501897926E-03  0.37133411327E-03  0.27891774382E-03  0.17130000000E+03  0.17130000000E+03 0.  1.
      622    1    1    2    0    0  0.37584787379E-02 -0.38670030307E-02  0.37219221768E+01  0.37221410197E+01  0.40000000000E-01 0.  1.
</event>
<event>
 5   0  0.7212170E+07  0.9118800E+02  0.7818608E-02  0.1180000E+00
       11   -1    0    0    0    0  0.00000000000E+00  0.00000000000E+00  0.39999999673E+01  0.40000000000E+01  0.51109989000E-03 0.  1.
     -623   -1    0    0    0    0  0.00000000000E+00  0.00000000000E+00  0.12525980253E-10  0.17130000000E+03  0.17130000000E+03 0. -1.
       11    1    1    2    0    0  0.18657370444E-02 -0.27509792361E-02  0.24867571383E+00  0.24869845342E+00  0.51109989000E-03 0.  1.
     -623    1    1    2    0    0 -0.27594892265E-03 -0.63560301498E-03  0.23783953500E-03  0.17130000000E+03  0.17130000000E+03 0. -1.
      622    1    1    2    0    0 -0.15897881217E-02  0.33865822513E-02  0.37510864157E+01  0.37513015467E+01  0.40000000000E-01 0.  1.
</event>
<event>
 5   0  0.7212170E+07  0.9118800E+02  0.7818608E-02  0.1180000E+00
       11   -1    0    0    0    0  0.00000000000E+00  0.00000000000E+00  0.39999999673E+01  0.40000000000E+01  0.51109989000E-03 0. -1.
     -623   -1    0    0    0    0  0.00000000000E+00  0.00000000000E+00  0.12525980253E-10  0.17130000000E+03  0.17130000000E+03 0. -1.
       11    1    1    2    0    0 -0.12805209008E-02  0.24222660657E-02  0.10327991318E-01  0.10697463925E-01  0.51109989000E-03 0. -1.
     -623    1    1    2    0    0 -0.52966921042E-03 -0.11640786011E-03  0.57106028168E-03  0.17130000000E+03  0.17130000000E+03 0. -1.
      622    1    1    2    0    0  0.18101901113E-02 -0.23058582056E-02  0.39891009163E+01  0.39893025348E+01  0.40000000000E-01 0. -1.
</event>
<event>
 5   0  0.7212170E+07  0.9118800E+02  0.7818608E-02  0.1180000E+00
       11   -1    0    0    0    0  0.00000000000E+00  0.00000000000E+00  0.39999999673E+01  0.40000000000E+01  0.51109989000E-03 0.  1.
     -623   -1    0    0    0    0  0.00000000000E+00  0.00000000000E+00  0.12525980253E-10  0.17130000000E+03  0.17130000000E+03 0.  1.
       11    1    1    2    0    0  0.12237248637E-01  0.58754731886E-03  0.19441879954E+01  0.19442266633E+01  0.51109989000E-03 0.  1.
     -623    1    1    2    0    0 -0.79509480466E-03 -0.31223403725E-03  0.45969021858E-03  0.17130000000E+03  0.17130000000E+03 0.  1.
      622    1    1    2    0    0 -0.11442153833E-01 -0.27531328168E-03  0.20553522809E+01  0.20557733332E+01  0.40000000000E-01 0.  0.
</event>
<event>
 5   0  0.7212170E+07  0.9118800E+02  0.7818608E-02  0.1180000E+00
       11   -1    0    0    0    0  0.00000000000E+00  0.00000000000E+00  0.39999999673E+01  0.40000000000E+01  0.51109989000E-03 0. -1.
     -623   -1    0    0    0    0  0.00000000000E+00  0.00000000000E+00  0.12525980253E-10  0.17130000000E+03  0.17130000000E+03 0.  1.
       11    1    1    2    0    0  0.41747806447E-02  0.80465474230E-02  0.10133284084E+00  0.10173879091E+00  0.51109989000E-03 0. -1.
     -623    1    1    2    0    0  0.24499709042E-02 -0.10002821684E-02  0.62316204851E-03  0.17130000002E+03  0.17130000000E+03 0.  1.
      622    1    1    2    0    0 -0.66247515490E-02 -0.70462652545E-02  0.38980439648E+01  0.38982611878E+01  0.40000000000E-01 0. -1.
</event>
<event>
 5   0  0.7212170E+07  0.9118800E+02  0.7818608E-02  0.1180000E+00
       11   -1    0    0    0    0  0.00000000000E+00  0.00000000000E+00  0.39999999673E+01  0.40000000000E+01  0.51109989000E-03 0. -1.
     -623   -1    0    0    0    0  0.00000000000E+00  0.00000000000E+00  0.12525980253E-10  0.17130000000E+03  0.17130000000E+03 0.  1.
       11    1    1    2    0    0  0.21049905356E-02  0.83114705123E-03  0.19486791100E-01  0.19624424604E-01  0.51109989000E-03 0. -1.
     -623    1    1    2    0    0  0.11004269047E-03 -0.47078282472E-03  0.33922568074E-03  0.17130000000E+03  0.17130000000E+03 0.  1.
      622    1    1    2    0    0 -0.22150332261E-02 -0.36036422632E-03  0.39801739522E+01  0.39803755760E+01  0.40000000000E-01 0. -1.
</event>
<event>
 5   0  0.7212170E+07  0.9118800E+02  0.7818608E-02  0.1180000E+00
       11   -1    0    0    0    0  0.00000000000E+00  0.00000000000E+00  0.39999999673E+01  0.40000000000E+01  0.51109989000E-03 0.  1.
     -623   -1    0    0    0    0  0.00000000000E+00  0.00000000000E+00  0.12525980253E-10  0.17130000000E+03  0.17130000000E+03 0.  1.
       11    1    1    2    0    0  0.63499146888E-02  0.79824298857E-02  0.23798309832E-01  0.25897130678E-01  0.51109989000E-03 0.  1.
     -623    1    1    2    0    0 -0.18265258401E-02 -0.71923085426E-02  0.23029257948E-02  0.17130000018E+03  0.17130000000E+03 0.  1.
      622    1    1    2    0    0 -0.45233888486E-02 -0.79012134278E-03  0.39738987319E+01  0.39741026933E+01  0.40000000000E-01 0.  1.
</event>
<event>
 5   0  0.7212170E+07  0.9118800E+02  0.7818608E-02  0.1180000E+00
       11   -1    0    0    0    0  0.00000000000E+00  0.00000000000E+00  0.39999999673E+01  0.40000000000E+01  0.51109989000E-03 0.  1.
     -623   -1    0    0    0    0  0.00000000000E+00  0.00000000000E+00  0.12525980253E-10  0.17130000000E+03  0.17130000000E+03 0. -1.
       11    1    1    2    0    0  0.80970055506E-02  0.22453489266E-01  0.41377550235E+00  0.41446368749E+00  0.51109989000E-03 0.  1.
     -623    1    1    2    0    0  0.85575483459E-02 -0.56914155325E-02  0.98945517965E-03  0.17130000031E+03  0.17130000000E+03 0. -1.
      622    1    1    2    0    0 -0.16654553897E-01 -0.16762073734E-01  0.35852350099E+01  0.35855360014E+01  0.40000000000E-01 0.  1.
</event>
<event>
 5   0  0.7212170E+07  0.9118800E+02  0.7818608E-02  0.1180000E+00
       11   -1    0    0    0    0  0.00000000000E+00  0.00000000000E+00  0.39999999673E+01  0.40000000000E+01  0.51109989000E-03 0. -1.
     -623   -1    0    0    0    0  0.00000000000E+00  0.00000000000E+00  0.12525980253E-10  0.17130000000E+03  0.17130000000E+03 0. -1.
       11    1    1    2    0    0 -0.20805374535E-02 -0.41533306762E-02  0.42262592992E-01  0.42520192630E-01  0.51109989000E-03 0. -1.
     -623    1    1    2    0    0 -0.16497716610E-02  0.46769921697E-02  0.46158625844E-03  0.17130000007E+03  0.17130000000E+03 0. -1.
      622    1    1    2    0    0  0.37303091143E-02 -0.52366149286E-03  0.39572757876E+01  0.39574797344E+01  0.40000000000E-01 0. -1.
</event>
<event>
 5   0  0.7212170E+07  0.9118800E+02  0.7818608E-02  0.1180000E+00
       11   -1    0    0    0    0  0.00000000000E+00  0.00000000000E+00  0.39999999673E+01  0.40000000000E+01  0.51109989000E-03 0.  1.
     -623   -1    0    0    0    0  0.00000000000E+00  0.00000000000E+00  0.12525980253E-10  0.17130000000E+03  0.17130000000E+03 0.  1.
       11    1    1    2    0    0  0.33350744734E-03  0.88885264419E-03  0.82838645413E-02  0.83537369528E-02  0.51109989000E-03 0.  1.
     -623    1    1    2    0    0 -0.48960072673E-03 -0.77296058154E-03  0.27027075559E-03  0.17130000000E+03  0.17130000000E+03 0.  1.
      622    1    1    2    0    0  0.15609327947E-03 -0.11589206252E-03  0.39914458328E+01  0.39916462611E+01  0.40000000000E-01 0.  1.
</event>
<event>
 5   0  0.7212170E+07  0.9118800E+02  0.7818608E-02  0.1180000E+00
       11   -1    0    0    0    0  0.00000000000E+00  0.00000000000E+00  0.39999999673E+01  0.40000000000E+01  0.51109989000E-03 0.  1.
     -623   -1    0    0    0    0  0.00000000000E+00  0.00000000000E+00  0.12525980253E-10  0.17130000000E+03  0.17130000000E+03 0. -1.
       11    1    1    2    0    0 -0.98136781591E-07  0.30131114729E-02  0.23210425310E-01  0.23410764766E-01  0.51109989000E-03 0.  1.
     -623    1    1    2    0    0  0.40894862856E-03  0.28547007447E-03  0.40287970945E-03  0.17130000000E+03  0.17130000000E+03 0. -1.
      622    1    1    2    0    0 -0.40885049182E-03 -0.32985815474E-02  0.39763866628E+01  0.39765892345E+01  0.40000000000E-01 0.  1.
</event>
<event>
 5   0  0.7212170E+07  0.9118800E+02  0.7818608E-02  0.1180000E+00
       11   -1    0    0    0    0  0.00000000000E+00  0.00000000000E+00  0.39999999673E+01  0.40000000000E+01  0.51109989000E-03 0. -1.
     -623   -1    0    0    0    0  0.00000000000E+00  0.00000000000E+00  0.12525980253E-10  0.17130000000E+03  0.17130000000E+03 0.  1.
       11    1    1    2    0    0 -0.15946991806E-01 -0.92208078838E-04  0.10267859951E+01  0.10269099552E+01  0.51109989000E-03 0. -1.
     -623    1    1    2    0    0  0.80002886975E-02 -0.42779471093E-02  0.40709407092E-03  0.17130000024E+03  0.17130000000E+03 0.  1.
      622    1    1    2    0    0  0.79467031078E-02  0.43701551884E-02  0.29728068785E+01  0.29730898044E+01  0.40000000000E-01 0.  1.
</event>
<event>
 5   0  0.7212170E+07  0.9118800E+02  0.7818608E-02  0.1180000E+00
       11   -1    0    0    0    0  0.00000000000E+00  0.00000000000E+00  0.39999999673E+01  0.40000000000E+01  0.51109989000E-03 0.  1.
     -623   -1    0    0    0    0  0.00000000000E+00  0.00000000000E+00  0.12525980253E-10  0.17130000000E+03  0.17130000000E+03 0. -1.
       11    1    1    2    0    0 -0.21844764257E-03 -0.10395449335E-02  0.19345981603E-01  0.19381862664E-01  0.51109989000E-03 0.  1.
     -623    1    1    2    0    0  0.40266609130E-03  0.83759895731E-03  0.23683937676E-03  0.17130000000E+03  0.17130000000E+03 0. -1.
      622    1    1    2    0    0 -0.18421844881E-03  0.20194597607E-03  0.39804171470E+01  0.39806181353E+01  0.40000000000E-01 0.  1.
</event>
<event>
 5   0  0.7212170E+07  0.9118800E+02  0.7818608E-02  0.1180000E+00
       11   -1    0    0    0    0  0.00000000000E+00  0.00000000000E+00  0.39999999673E+01  0.40000000000E+01  0.51109989000E-03 0.  1.
     -623   -1    0    0    0    0  0.00000000000E+00  0.00000000000E+00  0.12525980253E-10  0.17130000000E+03  0.17130000000E+03 0. -1.
       11    1    1    2    0    0 -0.58493930529E-02  0.18471192259E-02  0.47985414945E-02  0.78047723922E-02  0.51109989000E-03 0.  1.
     -623    1    1    2    0    0  0.25164636294E-02  0.46928944671E-02  0.32134557383E-02  0.17130000011E+03  0.17130000000E+03 0. -1.
      622    1    1    2    0    0  0.33329294234E-02 -0.65400136931E-02  0.39919879702E+01  0.39921951148E+01  0.40000000000E-01 0.  1.
</event>
<event>
 5   0  0.7212170E+07  0.9118800E+02  0.7818608E-02  0.1180000E+00
       11   -1    0    0    0    0  0.00000000000E+00  0.00000000000E+00  0.39999999673E+01  0.40000000000E+01  0.51109989000E-03 0. -1.
     -623   -1    0    0    0    0  0.00000000000E+00  0.00000000000E+00  0.12525980253E-10  0.17130000000E+03  0.17130000000E+03 0.  1.
       11    1    1    2    0    0  0.80827048310E-02  0.10206142682E-01  0.46837297342E-01  0.48615729052E-01  0.51109989000E-03 0. -1.
     -623    1    1    2    0    0  0.40892424182E-02 -0.17729613893E-02  0.20086828205E-02  0.17130000007E+03  0.17130000000E+03 0.  1.
      622    1    1    2    0    0 -0.12171947249E-01 -0.84331812931E-02  0.39511539874E+01  0.39513842013E+01  0.40000000000E-01 0. -1.
</event>
<event>
 5   0  0.7212170E+07  0.9118800E+02  0.7818608E-02  0.1180000E+00
       11   -1    0    0    0    0  0.00000000000E+00  0.00000000000E+00  0.39999999673E+01  0.40000000000E+01  0.51109989000E-03 0. -1.
     -623   -1    0    0    0    0  0.00000000000E+00  0.00000000000E+00  0.12525980253E-10  0.17130000000E+03  0.17130000000E+03 0.  1.
       11    1    1    2    0    0 -0.50059944844E-02 -0.24391185208E-02  0.47724454455E-01  0.48050952707E-01  0.51109989000E-03 0. -1.
     -623    1    1    2    0    0  0.90969060308E-03 -0.57379298660E-03  0.53217839583E-03  0.17130000000E+03  0.17130000000E+03 0.  1.
      622    1    1    2    0    0  0.40963038813E-02  0.30129115074E-02  0.39517433344E+01  0.39519490430E+01  0.40000000000E-01 0. -1.
</event>
<event>
 5   0  0.7212170E+07  0.9118800E+02  0.7818608E-02  0.1180000E+00
       11   -1    0    0    0    0  0.00000000000E+00  0.00000000000E+00  0.39999999673E+01  0.40000000000E+01  0.51109989000E-03 0.  1.
     -623   -1    0    0    0    0  0.00000000000E+00  0.00000000000E+00  0.12525980253E-10  0.17130000000E+03  0.17130000000E+03 0. -1.
       11    1    1    2    0    0  0.24756949213E-02 -0.21097521460E-02  0.50660675877E-02  0.60420512544E-02  0.51109989000E-03 0.  1.
     -623    1    1    2    0    0 -0.57477024324E-02 -0.43107922691E-03  0.11785082239E-02  0.17130000010E+03  0.17130000000E+03 0. -1.
      622    1    1    2    0    0  0.32720075116E-02  0.25408313729E-02  0.39937553920E+01  0.39939578481E+01  0.40000000000E-01 0.  1.
</event>
<event>
 5   0  0.7212170E+07  0.9118800E+02  0.7818608E-02  0.1180000E+00
       11   -1    0    0    0    0  0.00000000000E+00  0.00000000000E+00  0.39999999673E+01  0.40000000000E+01  0.51109989000E-03 0. -1.
     -623   -1    0    0    0    0  0.00000000000E+00  0.00000000000E+00  0.12525980253E-10  0.17130000000E+03  0.17130000000E+03 0.  1.
       11    1    1    2    0    0  0.46869838339E-03 -0.48440107781E-03  0.13953786830E+00  0.13954043226E+00  0.51109989000E-03 0. -1.
     -623    1    1    2    0    0  0.31290000122E-03 -0.40275004899E-04  0.20988129783E-03  0.17130000000E+03  0.17130000000E+03 0.  1.
      622    1    1    2    0    0 -0.78159838465E-03  0.52467608271E-03  0.38602522183E+01  0.38604595679E+01  0.40000000000E-01 0. -1.
</event>
<event>
 5   0  0.7212170E+07  0.9118800E+02  0.7818608E-02  0.1180000E+00
       11   -1    0    0    0    0  0.00000000000E+00  0.00000000000E+00  0.39999999673E+01  0.40000000000E+01  0.51109989000E-03 0.  1.
     -623   -1    0    0    0    0  0.00000000000E+00  0.00000000000E+00  0.12525980253E-10  0.17130000000E+03  0.17130000000E+03 0.  1.
       11    1    1    2    0    0 -0.43329119914E-03  0.49812334760E-03  0.18013970885E-02  0.19854779527E-02  0.51109989000E-03 0.  1.
     -623    1    1    2    0    0  0.26112402073E-03 -0.11245064562E-02  0.38420965447E-03  0.17130000000E+03  0.17130000000E+03 0.  1.
      622    1    1    2    0    0  0.17216717838E-03  0.62638310874E-03  0.39978143613E+01  0.39980145184E+01  0.40000000000E-01 0.  1.
</event>
<event>
 5   0  0.7212170E+07  0.9118800E+02  0.7818608E-02  0.1180000E+00
       11   -1    0    0    0    0  0.00000000000E+00  0.00000000000E+00  0.39999999673E+01  0.40000000000E+01  0.51109989000E-03 0.  1.
     -623   -1    0    0    0    0  0.00000000000E+00  0.00000000000E+00  0.12525980253E-10  0.17130000000E+03  0.17130000000E+03 0. -1.
       11    1    1    2    0    0  0.13210411210E-03 -0.56167726849E-03  0.21700291000E-02  0.23028639219E-02  0.51109989000E-03 0. -1.
     -623    1    1    2    0    0  0.21952765755E-02 -0.18851102632E-03  0.33368479970E-03  0.17130000001E+03  0.17130000000E+03 0. -1.
      622    1    1    2    0    0 -0.23273806880E-02  0.75018829485E-03  0.39974962543E+01  0.39976971224E+01  0.40000000000E-01 0.  1.
</event>
<event>
 5   0  0.7212170E+07  0.9118800E+02  0.7818608E-02  0.1180000E+00
       11   -1    0    0    0    0  0.00000000000E+00  0.00000000000E+00  0.39999999673E+01  0.40000000000E+01  0.51109989000E-03 0.  1.
     -623   -1    0    0    0    0  0.00000000000E+00  0.00000000000E+00  0.12525980253E-10  0.17130000000E+03  0.17130000000E+03 0. -1.
       11    1    1    2    0    0 -0.12929472535E-01  0.31385626476E-02  0.59808799787E+00  0.59823618769E+00  0.51109989000E-03 0.  1.
     -623    1    1    2    0    0  0.84830231255E-02 -0.57265455489E-02  0.38753433541E-03  0.17130000031E+03  0.17130000000E+03 0. -1.
      622    1    1    2    0    0  0.44464494097E-02  0.25879829012E-02  0.34015244350E+01  0.34017635060E+01  0.40000000000E-01 0.  1.
</event>
<event>
 5   0  0.7212170E+07  0.9118800E+02  0.7818608E-02  0.1180000E+00
       11   -1    0    0    0    0  0.00000000000E+00  0.00000000000E+00  0.39999999673E+01  0.40000000000E+01  0.51109989000E-03 0.  1.
     -623   -1    0    0    0    0  0.00000000000E+00  0.00000000000E+00  0.12525980253E-10  0.17130000000E+03  0.17130000000E+03 0.  1.
       11    1    1    2    0    0 -0.18048602171E-02 -0.30511354224E-03  0.10109734011E-01  0.10286814840E-01  0.51109989000E-03 0.  1.
     -623    1    1    2    0    0  0.63487452729E-02  0.40309232108E-03  0.38027629566E-03  0.17130000012E+03  0.17130000000E+03 0.  1.
      622    1    1    2    0    0 -0.45438850573E-02 -0.97978778942E-04  0.39895099580E+01  0.39897130676E+01  0.40000000000E-01 0.  1.
</event>
<event>
 5   0  0.7212170E+07  0.9118800E+02  0.7818608E-02  0.1180000E+00
       11   -1    0    0    0    0  0.00000000000E+00  0.00000000000E+00  0.39999999673E+01  0.40000000000E+01  0.51109989000E-03 0.  1.
     -623   -1    0    0    0    0  0.00000000000E+00  0.00000000000E+00  0.12525980253E-10  0.17130000000E+03  0.17130000000E+03 0. -1.
       11    1    1    2    0    0 -0.23409854213E-02  0.19815206761E-02  0.38464616186E+00  0.38465872887E+00  0.51109989000E-03 0.  1.
     -623    1    1    2    0    0  0.30029138941E-02  0.14088345518E-02  0.23550304806E-03  0.17130000003E+03  0.17130000000E+03 0. -1.
      622    1    1    2    0    0 -0.66192847367E-03 -0.33903552283E-02  0.36151183036E+01  0.36153412400E+01  0.40000000000E-01 0.  1.
</event>
<event>
 5   0  0.7212170E+07  0.9118800E+02  0.7818608E-02  0.1180000E+00
       11   -1    0    0    0    0  0.00000000000E+00  0.00000000000E+00  0.39999999673E+01  0.40000000000E+01  0.51109989000E-03 0. -1.
     -623   -1    0    0    0    0  0.00000000000E+00  0.00000000000E+00  0.12525980253E-10  0.17130000000E+03  0.17130000000E+03 0. -1.
       11    1    1    2    0    0 -0.16813417660E-03 -0.69721309311E-03  0.70769913945E-02  0.71315780508E-02  0.51109989000E-03 0. -1.
     -623    1    1    2    0    0  0.13290285248E-02  0.90819171207E-03  0.25509835550E-03  0.17130000001E+03  0.17130000000E+03 0. -1.
      622    1    1    2    0    0 -0.11608943482E-02 -0.21097861896E-03  0.39926678776E+01  0.39928684142E+01  0.40000000000E-01 0. -1.
</event>
<event>
 5   0  0.7212170E+07  0.9118800E+02  0.7818608E-02  0.1180000E+00
       11   -1    0    0    0    0  0.00000000000E+00  0.00000000000E+00  0.39999999673E+01  0.40000000000E+01  0.51109989000E-03 0. -1.
     -623   -1    0    0    0    0  0.00000000000E+00  0.00000000000E+00  0.12525980253E-10  0.17130000000E+03  0.17130000000E+03 0. -1.
       11    1    1    2    0    0 -0.43548302423E-02 -0.18047353219E-01  0.13435544566E+01  0.13436828162E+01  0.51109989000E-03 0. -1.
     -623    1    1    2    0    0  0.14060651824E-01  0.94598974174E-02  0.46196849265E-03  0.17130000084E+03  0.17130000000E+03 0. -1.
      622    1    1    2    0    0 -0.97058215821E-02  0.85874558018E-02  0.26559835424E+01  0.26563163450E+01  0.40000000000E-01 0. -1.
</event>
<event>
 5   0  0.7212170E+07  0.9118800E+02  0.7818608E-02  0.1180000E+00
       11   -1    0    0    0    0  0.00000000000E+00  0.00000000000E+00  0.39999999673E+01  0.40000000000E+01  0.51109989000E-03 0. -1.
     -623   -1    0    0    0    0  0.00000000000E+00  0.00000000000E+00  0.12525980253E-10  0.17130000000E+03  0.17130000000E+03 0.  1.
       11    1    1    2    0    0  0.18922581729E-01  0.17024752622E-01  0.26254493044E+01  0.26255727409E+01  0.51109989000E-03 0. -1.
     -623    1    1    2    0    0 -0.21158178910E-02  0.44424558702E-03  0.91948495152E-03  0.17130000002E+03  0.17130000000E+03 0.  1.
      622    1    1    2    0    0 -0.16806763838E-01 -0.17468998209E-01  0.13736311775E+01  0.13744272426E+01  0.40000000000E-01 0.  0.
</event>
<event>
 5   0  0.7212170E+07  0.9118800E+02  0.7818608E-02  0.1180000E+00
       11   -1    0    0    0    0  0.00000000000E+00  0.00000000000E+00  0.39999999673E+01  0.40000000000E+01  0.51109989000E-03 0.  1.
     -623   -1    0    0    0    0  0.00000000000E+00  0.00000000000E+00  0.12525980253E-10  0.17130000000E+03  0.17130000000E+03 0. -1.
       11    1    1    2    0    0 -0.82203063266E-02 -0.65591657167E-02  0.12816435388E+00  0.12859610772E+00  0.51109989000E-03 0.  1.
     -623    1    1    2    0    0 -0.36736508541E-02  0.10825378965E-02  0.66055980750E-03  0.17130000004E+03  0.17130000000E+03 0. -1.
      622    1    1    2    0    0  0.11893957181E-01  0.54766278201E-02  0.38711750541E+01  0.38714038486E+01  0.40000000000E-01 0.  1.
</event>
<event>
 5   0  0.7212170E+07  0.9118800E+02  0.7818608E-02  0.1180000E+00
       11   -1    0    0    0    0  0.00000000000E+00  0.00000000000E+00  0.39999999673E+01  0.40000000000E+01  0.51109989000E-03 0.  1.
     -623   -1    0    0    0    0  0.00000000000E+00  0.00000000000E+00  0.12525980253E-10  0.17130000000E+03  0.17130000000E+03 0.  1.
       11    1    1    2    0    0 -0.10438557714E-02 -0.22040505627E-03  0.49764064266E-02  0.51150813562E-02  0.51109989000E-03 0.  1.
     -623    1    1    2    0    0  0.83654635565E-03  0.43983572456E-03  0.33891773915E-03  0.17130000000E+03  0.17130000000E+03 0.  1.
      622    1    1    2    0    0  0.20730941554E-03 -0.21943066839E-03  0.39946846441E+01  0.39948849166E+01  0.40000000000E-01 0.  1.
</event>
<event>
 5   0  0.7212170E+07  0.9118800E+02  0.7818608E-02  0.1180000E+00
       11   -1    0    0    0    0  0.00000000000E+00  0.00000000000E+00  0.39999999673E+01  0.40000000000E+01  0.51109989000E-03 0.  1.
     -623   -1    0    0    0    0  0.00000000000E+00  0.00000000000E+00  0.12525980253E-10  0.17130000000E+03  0.17130000000E+03 0. -1.
       11    1    1    2    0    0  0.71105014293E-02  0.33752720095E-02  0.92881418090E+00  0.92884767080E+00  0.51109989000E-03 0.  1.
     -623    1    1    2    0    0 -0.88135905045E-03  0.89292381300E-03  0.30324563332E-03  0.17130000000E+03  0.17130000000E+03 0. -1.
      622    1    1    2    0    0 -0.62291423788E-02 -0.42681958226E-02  0.30708825411E+01  0.30711523246E+01  0.40000000000E-01 0.  1.
</event>
<event>
 5   0  0.7212170E+07  0.9118800E+02  0.7818608E-02  0.1180000E+00
       11   -1    0    0    0    0  0.00000000000E+00  0.00000000000E+00  0.39999999673E+01  0.40000000000E+01  0.51109989000E-03 0. -1.
     -623   -1    0    0    0    0  0.00000000000E+00  0.00000000000E+00  0.12525980253E-10  0.17130000000E+03  0.17130000000E+03 0. -1.
       11    1    1    2    0    0 -0.64292393578E-03 -0.47319376317E-03  0.42504318277E-03  0.10388206436E-02  0.51109989000E-03 0. -1.
     -623    1    1    2    0    0  0.73101046824E-04  0.47547894034E-03  0.81384498879E-03  0.17130000000E+03  0.17130000000E+03 0. -1.
      622    1    1    2    0    0  0.56982288896E-03 -0.22851771517E-05  0.39987610790E+01  0.39989611766E+01  0.40000000000E-01 0. -1.
</event>
<event>
 5   0  0.7212170E+07  0.9118800E+02  0.7818608E-02  0.1180000E+00
       11   -1    0    0    0    0  0.00000000000E+00  0.00000000000E+00  0.39999999673E+01  0.40000000000E+01  0.51109989000E-03 0. -1.
     -623   -1    0    0    0    0  0.00000000000E+00  0.00000000000E+00  0.12525980253E-10  0.17130000000E+03  0.17130000000E+03 0. -1.
       11    1    1    2    0    0  0.22282515158E-02  0.45976237560E-02  0.29529855272E-01  0.29972934867E-01  0.51109989000E-03 0. -1.
     -623    1    1    2    0    0  0.50195039164E-04 -0.28868681431E-02  0.64561004452E-03  0.17130000003E+03  0.17130000000E+03 0. -1.
      622    1    1    2    0    0 -0.22784465550E-02 -0.17107556129E-02  0.39698245019E+01  0.39700270395E+01  0.40000000000E-01 0. -1.
</event>
<event>
 5   0  0.7212170E+07  0.9118800E+02  0.7818608E-02  0.1180000E+00
       11   -1    0    0    0    0  0.00000000000E+00  0.00000000000E+00  0.39999999673E+01  0.40000000000E+01  0.51109989000E-03 0. -1.
     -623   -1    0    0    0    0  0.00000000000E+00  0.00000000000E+00  0.12525980253E-10  0.17130000000E+03  0.17130000000E+03 0.  1.
       11    1    1    2    0    0 -0.44900489915E-03  0.40109246422E-02  0.26298688799E-01  0.26611489577E-01  0.51109989000E-03 0. -1.
     -623    1    1    2    0    0 -0.59677458478E-02  0.83536864259E-03  0.52235672627E-03  0.17130000011E+03  0.17130000000E+03 0.  1.
      622    1    1    2    0    0  0.64167507484E-02 -0.48462932849E-02  0.39731789228E+01  0.39733884046E+01  0.40000000000E-01 0. -1.
</event>
<event>
 5   0  0.7212170E+07  0.9118800E+02  0.7818608E-02  0.1180000E+00
       11   -1    0    0    0    0  0.00000000000E+00  0.00000000000E+00  0.39999999673E+01  0.40000000000E+01  0.51109989000E-03 0.  1.
     -623   -1    0    0    0    0  0.00000000000E+00  0.00000000000E+00  0.12525980253E-10  0.17130000000E+03  0.17130000000E+03 0. -1.
       11    1    1    2    0    0 -0.10675257490E+00 -0.43844508271E-02  0.20746009638E+01  0.20773504172E+01  0.51109989000E-03 0.  1.
     -623    1    1    2    0    0  0.39287307403E-01 -0.65242354359E-02  0.43855109237E-02  0.17130000469E+03  0.17130000000E+03 0. -1.
      622    1    1    2    0    0  0.67465267499E-01  0.10908686263E-01  0.19210134926E+01  0.19226448972E+01  0.40000000000E-01 0.  0.
</event>
<event>
 5   0  0.7212170E+07  0.9118800E+02  0.7818608E-02  0.1180000E+00
       11   -1    0    0    0    0  0.00000000000E+00  0.00000000000E+00  0.39999999673E+01  0.40000000000E+01  0.51109989000E-03 0.  1.
     -623   -1    0    0    0    0  0.00000000000E+00  0.00000000000E+00  0.12525980253E-10  0.17130000000E+03  0.17130000000E+03 0.  1.
       11    1    1    2    0    0 -0.22302529829E-01 -0.30632708141E-02  0.14800526539E+01  0.14802239378E+01  0.51109989000E-03 0.  1.
     -623    1    1    2    0    0  0.20637251078E-01 -0.66611875849E-02  0.50945073673E-03  0.17130000137E+03  0.17130000000E+03 0.  1.
      622    1    1    2    0    0  0.16652787507E-02  0.97244583989E-02  0.25194378627E+01  0.25197746888E+01  0.40000000000E-01 0.  1.
</event>
<event>
 5   0  0.7212170E+07  0.9118800E+02  0.7818608E-02  0.1180000E+00
       11   -1    0    0    0    0  0.00000000000E+00  0.00000000000E+00  0.39999999673E+01  0.40000000000E+01  0.51109989000E-03 0.  1.
     -623   -1    0    0    0    0  0.00000000000E+00  0.00000000000E+00  0.12525980253E-10  0.17130000000E+03  0.17130000000E+03 0.  1.
       11    1    1    2    0    0 -0.24212148471E-02 -0.50624323284E-03  0.15182044268E+00  0.15184145219E+00  0.51109989000E-03 0.  1.
     -623    1    1    2    0    0 -0.28433501722E-02  0.22066842287E-02  0.23288916907E-03  0.17130000004E+03  0.17130000000E+03 0.  1.
      622    1    1    2    0    0  0.52645650197E-02 -0.17004409962E-02  0.38479466361E+01  0.38481585104E+01  0.40000000000E-01 0.  1.
</event>
<event>
 5   0  0.7212170E+07  0.9118800E+02  0.7818608E-02  0.1180000E+00
       11   -1    0    0    0    0  0.00000000000E+00  0.00000000000E+00  0.39999999673E+01  0.40000000000E+01  0.51109989000E-03 0. -1.
     -623   -1    0    0    0    0  0.00000000000E+00  0.00000000000E+00  0.12525980253E-10  0.17130000000E+03  0.17130000000E+03 0. -1.
       11    1    1    2    0    0 -0.25723616394E-02  0.21107644603E-01  0.64221619450E+00  0.64256832431E+00  0.51109989000E-03 0. -1.
     -623    1    1    2    0    0  0.97324739956E-02  0.26638583257E-02  0.68247849129E-03  0.17130000030E+03  0.17130000000E+03 0. -1.
      622    1    1    2    0    0 -0.71601123572E-02 -0.23771502929E-01  0.33571012948E+01  0.33574313776E+01  0.40000000000E-01 0. -1.
</event>
<event>
 5   0  0.7212170E+07  0.9118800E+02  0.7818608E-02  0.1180000E+00
       11   -1    0    0    0    0  0.00000000000E+00  0.00000000000E+00  0.39999999673E+01  0.40000000000E+01  0.51109989000E-03 0. -1.
     -623   -1    0    0    0    0  0.00000000000E+00  0.00000000000E+00  0.12525980253E-10  0.17130000000E+03  0.17130000000E+03 0.  1.
       11    1    1    2    0    0  0.95332298690E-03  0.95620750922E-03  0.77793158103E-02  0.79121511040E-02  0.51109989000E-03 0. -1.
     -623    1    1    2    0    0 -0.27691931954E-03 -0.93539851671E-03  0.33326453782E-03  0.17130000000E+03  0.17130000000E+03 0.  1.
      622    1    1    2    0    0 -0.67640366727E-03 -0.20808992180E-04  0.39918873884E+01  0.39920878472E+01  0.40000000000E-01 0. -1.
</event>
<event>
 5   0  0.7212170E+07  0.9118800E+02  0.7818608E-02  0.1180000E+00
       11   -1    0    0    0    0  0.00000000000E+00  0.00000000000E+00  0.39999999673E+01  0.40000000000E+01  0.51109989000E-03 0.  1.
     -623   -1    0    0    0    0  0.00000000000E+00  0.00000000000E+00  0.12525980253E-10  0.17130000000E+03  0.17130000000E+03 0. -1.
       11    1    1    2    0    0  0.90028796716E-03 -0.14847546060E-02  0.35660854107E-01  0.35706760612E-01  0.51109989000E-03 0.  1.
     -623    1    1    2    0    0 -0.17082238870E-02 -0.11314636318E-02  0.24863851450E-03  0.17130000001E+03  0.17130000000E+03 0. -1.
      622    1    1    2    0    0  0.80793592011E-03  0.26162182380E-02  0.39640904753E+01  0.39642932275E+01  0.40000000000E-01 0.  1.
</event>
<event>
 5   0  0.7212170E+07  0.9118800E+02  0.7818608E-02  0.1180000E+00
       11   -1    0    0    0    0  0.00000000000E+00  0.00000000000E+00  0.39999999673E+01  0.40000000000E+01  0.51109989000E-03 0.  1.
     -623   -1    0    0    0    0  0.00000000000E+00  0.00000000000E+00  0.12525980253E-10  0.17130000000E+03  0.17130000000E+03 0.  1.
       11    1    1    2    0    0  0.32901606010E-02  0.41446644428E-02  0.23487687371E-01  0.24081862080E-01  0.51109989000E-03 0.  1.
     -623    1    1    2    0    0 -0.44584476541E-02 -0.26876637499E-03  0.79747958471E-03  0.17130000006E+03  0.17130000000E+03 0.  1.
      622    1    1    2    0    0  0.11682870535E-02 -0.38758980678E-02  0.39757148008E+01  0.39759180782E+01  0.40000000000E-01 0.  1.
</event>
<event>
 5   0  0.7212170E+07  0.9118800E+02  0.7818608E-02  0.1180000E+00
       11   -1    0    0    0    0  0.00000000000E+00  0.00000000000E+00  0.39999999673E+01  0.40000000000E+01  0.51109989000E-03 0. -1.
     -623   -1    0    0    0    0  0.00000000000E+00  0.00000000000E+00  0.12525980253E-10  0.17130000000E+03  0.17130000000E+03 0.  1.
       11    1    1    2    0    0  0.16561266866E-03 -0.22438994629E-02  0.12124573406E-01  0.12342164143E-01  0.51109989000E-03 0. -1.
     -623    1    1    2    0    0  0.29373667356E-02  0.18848691569E-02  0.41944174112E-03  0.17130000004E+03  0.17130000000E+03 0.  1.
      622    1    1    2    0    0 -0.31029794041E-02  0.35903030611E-03  0.39874559519E+01  0.39876577995E+01  0.40000000000E-01 0. -1.
</event>
<event>
 5   0  0.7212170E+07  0.9118800E+02  0.7818608E-02  0.1180000E+00
       11   -1    0    0    0    0  0.00000000000E+00  0.00000000000E+00  0.39999999673E+01  0.40000000000E+01  0.51109989000E-03 0.  1.
     -623   -1    0    0    0    0  0.00000000000E+00  0.00000000000E+00  0.12525980253E-10  0.17130000000E+03  0.17130000000E+03 0.  1.
       11    1    1    2    0    0 -0.18826848730E-02 -0.76579641363E-02  0.59415250417E-01  0.59938486152E-01  0.51109989000E-03 0.  1.
     -623    1    1    2    0    0  0.12798997293E-02 -0.12756648436E-01  0.77966865758E-03  0.17130000048E+03  0.17130000000E+03 0.  1.
      622    1    1    2    0    0  0.60278514355E-03  0.20414612574E-01  0.39398050486E+01  0.39400610326E+01  0.40000000000E-01 0.  1.
</event>
<event>
 5   0  0.7212170E+07  0.9118800E+02  0.7818608E-02  0.1180000E+00
       11   -1    0    0    0    0  0.00000000000E+00  0.00000000000E+00  0.39999999673E+01  0.40000000000E+01  0.51109989000E-03 0.  1.
     -623   -1    0    0    0    0  0.00000000000E+00  0.00000000000E+00  0.12525980253E-10  0.17130000000E+03  0.17130000000E+03 0.  1.
       11    1    1    2    0    0 -0.33161072679E-02  0.34568213868E-02  0.64120985829E-02  0.80201254882E-02  0.51109989000E-03 0.  1.
     -623    1    1    2    0    0 -0.34548635345E-02 -0.54457068321E-02  0.18147701664E-02  0.17130000013E+03  0.17130000000E+03 0.  1.
      622    1    1    2    0    0  0.67709708026E-02  0.19888854456E-02  0.39917730989E+01  0.39919797438E+01  0.40000000000E-01 0.  1.
</event>
<event>
 5   0  0.7212170E+07  0.9118800E+02  0.7818608E-02  0.1180000E+00
       11   -1    0    0    0    0  0.00000000000E+00  0.00000000000E+00  0.39999999673E+01  0.40000000000E+01  0.51109989000E-03 0. -1.
     -623   -1    0    0    0    0  0.00000000000E+00  0.00000000000E+00  0.12525980253E-10  0.17130000000E+03  0.17130000000E+03 0. -1.
       11    1    1    2    0    0 -0.81466734446E-02 -0.13845838225E-02  0.44266265077E+00  0.44274006931E+00  0.51109989000E-03 0. -1.
     -623    1    1    2    0    0  0.23834645578E-03 -0.52744446118E-03  0.31159162678E-03  0.17130000000E+03  0.17130000000E+03 0. -1.
      622    1    1    2    0    0  0.79083269889E-02  0.19120282836E-02  0.35570257247E+01  0.35572599292E+01  0.40000000000E-01 0. -1.
</event>
<event>
 5   0  0.7212170E+07  0.9118800E+02  0.7818608E-02  0.1180000E+00
       11   -1    0    0    0    0  0.00000000000E+00  0.00000000000E+00  0.39999999673E+01  0.40000000000E+01  0.51109989000E-03 0.  1.
     -623   -1    0    0    0    0  0.00000000000E+00  0.00000000000E+00  0.12525980253E-10  0.17130000000E+03  0.17130000000E+03 0.  1.
       11    1    1    2    0    0  0.61082652835E-04 -0.30109553861E-02  0.19523281608E-01  0.19760802900E-01  0.51109989000E-03 0.  1.
     -623    1    1    2    0    0 -0.66436957731E-03 -0.42982652021E-03  0.44002208341E-03  0.17130000000E+03  0.17130000000E+03 0.  1.
      622    1    1    2    0    0  0.60328692453E-03  0.34407819064E-02  0.39800366640E+01  0.39802391950E+01  0.40000000000E-01 0.  1.
</event>
<event>
 5   0  0.7212170E+07  0.9118800E+02  0.7818608E-02  0.1180000E+00
       11   -1    0    0    0    0  0.00000000000E+00  0.00000000000E+00  0.39999999673E+01  0.40000000000E+01  0.51109989000E-03 0. -1.
     -623   -1    0    0    0    0  0.00000000000E+00  0.00000000000E+00  0.12525980253E-10  0.17130000000E+03  0.17130000000E+03 0.  1.
       11    1    1    2    0    0  0.48397718833E-02 -0.67957009768E-02  0.98158134114E+00  0.98161692907E+00  0.51109989000E-03 0. -1.
     -623    1    1    2    0    0 -0.96435348363E-03  0.16267728986E-02  0.30753457740E-03  0.17130000001E+03  0.17130000000E+03 0.  1.
      622    1    1    2    0    0 -0.38754183996E-02  0.51689280781E-02  0.30181110918E+01  0.30183830604E+01  0.40000000000E-01 0.  0.
</event>
<event>
 5   0  0.7212170E+07  0.9118800E+02  0.7818608E-02  0.1180000E+00
       11   -1    0    0    0    0  0.00000000000E+00  0.00000000000E+00  0.39999999673E+01  0.40000000000E+01  0.51109989000E-03 0. -1.
     -623   -1    0    0    0    0  0.00000000000E+00  0.00000000000E+00  0.12525980253E-10  0.17130000000E+03  0.17130000000E+03 0.  1.
       11    1    1    2    0    0  0.41529184528E-02  0.33960414139E-01  0.12238897828E+01  0.12243680077E+01  0.51109989000E-03 0. -1.
     -623    1    1    2    0    0  0.15575157237E-01 -0.51507771451E-02  0.98687405338E-03  0.17130000079E+03  0.17130000000E+03 0.  1.
      622    1    1    2    0    0 -0.19728075692E-01 -0.28809636993E-01  0.27751233110E+01  0.27756312045E+01  0.40000000000E-01 0.  0.
</event>
<event>
 5   0  0.7212170E+07  0.9118800E+02  0.7818608E-02  0.1180000E+00
       11   -1    0    0    0    0  0.00000000000E+00  0.00000000000E+00  0.39999999673E+01  0.40000000000E+01  0.51109989000E-03 0.  1.
     -623   -1    0    0    0    0  0.00000000000E+00  0.00000000000E+00  0.12525980253E-10  0.17130000000E+03  0.17130000000E+03 0.  1.
       11    1    1    2    0    0  0.17547525573E-02 -0.89174073198E-03  0.67793141174E-01  0.67823635787E-01  0.51109989000E-03 0.  1.
     -623    1    1    2    0    0 -0.81017199135E-03 -0.25644917089E-03  0.23420028111E-03  0.17130000000E+03  0.17130000000E+03 0.  1.
      622    1    1    2    0    0 -0.94458056603E-03  0.11481899029E-02  0.39319726256E+01  0.39321763616E+01  0.40000000000E-01 0.  1.
</event>
<event>
 5   0  0.7212170E+07  0.9118800E+02  0.7818608E-02  0.1180000E+00
       11   -1    0    0    0    0  0.00000000000E+00  0.00000000000E+00  0.39999999673E+01  0.40000000000E+01  0.51109989000E-03 0.  1.
     -623   -1    0    0    0    0  0.00000000000E+00  0.00000000000E+00  0.12525980253E-10  0.17130000000E+03  0.17130000000E+03 0. -1.
       11    1    1    2    0    0 -0.29732646936E-02  0.32556845216E-03  0.40554283168E-01  0.40667645668E-01  0.51109989000E-03 0.  1.
     -623    1    1    2    0    0  0.19483815079E-02 -0.10000442252E-02  0.31559367938E-03  0.17130000001E+03  0.17130000000E+03 0. -1.
      622    1    1    2    0    0  0.10248831859E-02  0.67447577300E-03  0.39591300902E+01  0.39593323397E+01  0.40000000000E-01 0.  1.
</event>
<event>
 5   0  0.7212170E+07  0.9118800E+02  0.7818608E-02  0.1180000E+00
       11   -1    0    0    0    0  0.00000000000E+00  0.00000000000E+00  0.39999999673E+01  0.40000000000E+01  0.51109989000E-03 0. -1.
     -623   -1    0    0    0    0  0.00000000000E+00  0.00000000000E+00  0.12525980253E-10  0.17130000000E+03  0.17130000000E+03 0.  1.
       11    1    1    2    0    0  0.10466049749E-01 -0.12907418097E-01  0.31314476997E+01  0.31314918325E+01  0.51109989000E-03 0. -1.
     -623    1    1    2    0    0 -0.14126792996E-01  0.29867428672E-01  0.11424148277E-02  0.17130000319E+03  0.17130000000E+03 0.  1.
      622    1    1    2    0    0  0.36607432462E-02 -0.16960010575E-01  0.86740985278E+00  0.86850497736E+00  0.40000000000E-01 0.  0.
</event>
<event>
 5   0  0.7212170E+07  0.9118800E+02  0.7818608E-02  0.1180000E+00
       11   -1    0    0    0    0  0.00000000000E+00  0.00000000000E+00  0.39999999673E+01  0.40000000000E+01  0.51109989000E-03 0.  1.
     -623   -1    0    0    0    0  0.00000000000E+00  0.00000000000E+00  0.12525980253E-10  0.17130000000E+03  0.17130000000E+03 0. -1.
       11    1    1    2    0    0 -0.22198231003E-02 -0.89599573578E-03  0.29845948071E-01  0.29946156052E-01  0.51109989000E-03 0.  1.
     -623    1    1    2    0    0  0.19748967263E-03 -0.88184248749E-04  0.30232656809E-03  0.17130000000E+03  0.17130000000E+03 0. -1.
      622    1    1    2    0    0  0.20223334277E-02  0.98417998452E-03  0.39698516922E+01  0.39700538430E+01  0.40000000000E-01 0.  1.
</event>
<event>
 5   0  0.7212170E+07  0.9118800E+02  0.7818608E-02  0.1180000E+00
       11   -1    0    0    0    0  0.00000000000E+00  0.00000000000E+00  0.39999999673E+01  0.40000000000E+01  0.51109989000E-03 0.  1.
     -623   -1    0    0    0    0  0.00000000000E+00  0.00000000000E+00  0.12525980253E-10  0.17130000000E+03  0.17130000000E+03 0. -1.
       11    1    1    2    0    0 -0.58459485997E-03  0.14722269156E-02  0.50876305563E-02  0.53529815072E-02  0.51109989000E-03 0.  1.
     -623    1    1    2    0    0  0.39684490734E-03 -0.19385570649E-03  0.46580151708E-03  0.17130000000E+03  0.17130000000E+03 0. -1.
      622    1    1    2    0    0  0.18774995261E-03 -0.12783712091E-02  0.39944465355E+01  0.39946470175E+01  0.40000000000E-01 0.  1.
</event>
<event>
 5   0  0.7212170E+07  0.9118800E+02  0.7818608E-02  0.1180000E+00
       11   -1    0    0    0    0  0.00000000000E+00  0.00000000000E+00  0.39999999673E+01  0.40000000000E+01  0.51109989000E-03 0.  1.
     -623   -1    0    0    0    0  0.00000000000E+00  0.00000000000E+00  0.12525980253E-10  0.17130000000E+03  0.17130000000E+03 0.  1.
       11    1    1    2    0    0 -0.65171104317E-02 -0.87362504131E-02  0.10408849508E-01  0.15079793461E-01  0.51109989000E-03 0.  1.
     -623    1    1    2    0    0  0.69002665398E-02  0.92945199467E-02  0.48721911860E-02  0.17130000046E+03  0.17130000000E+03 0.  1.
      622    1    1    2    0    0 -0.38315610803E-03 -0.55826953355E-03  0.39847189267E+01  0.39849197461E+01  0.40000000000E-01 0.  1.
</event>
<event>
 5   0  0.7212170E+07  0.9118800E+02  0.7818608E-02  0.1180000E+00
       11   -1    0    0    0    0  0.00000000000E+00  0.00000000000E+00  0.39999999673E+01  0.40000000000E+01  0.51109989000E-03 0. -1.
     -623   -1    0    0    0    0  0.00000000000E+00  0.00000000000E+00  0.12525980253E-10  0.17130000000E+03  0.17130000000E+03 0. -1.
       11    1    1    2    0    0  0.34701001931E-02  0.30958114976E-02  0.21414320915E-01  0.21919397973E-01  0.51109989000E-03 0. -1.
     -623    1    1    2    0    0 -0.13445630105E-02  0.72523320596E-03  0.70856286505E-03  0.17130000001E+03  0.17130000000E+03 0. -1.
      622    1    1    2    0    0 -0.21255371827E-02 -0.38210447035E-02  0.39778770833E+01  0.39780805934E+01  0.40000000000E-01 0. -1.
</event>
<event>
 5   0  0.7212170E+07  0.9118800E+02  0.7818608E-02  0.1180000E+00
       11   -1    0    0    0    0  0.00000000000E+00  0.00000000000E+00  0.39999999673E+01  0.40000000000E+01  0.51109989000E-03 0. -1.
     -623   -1    0    0    0    0  0.00000000000E+00  0.00000000000E+00  0.12525980253E-10  0.17130000000E+03  0.17130000000E+03 0.  1.
       11    1    1    2    0    0 -0.12411332133E-02 -0.59290204753E-03  0.22354280932E+01  0.22354285748E+01  0.51109989000E-03 0. -1.
     -623    1    1    2    0    0 -0.15499307441E-02 -0.51721442246E-02  0.46558873072E-03  0.17130000009E+03  0.17130000000E+03 0.  1.
      622    1    1    2    0    0  0.27910639576E-02  0.57650462729E-02  0.17641062860E+01  0.17645713401E+01  0.40000000000E-01 0. -1.
</event>
<event>
 5   0  0.7212170E+07  0.9118800E+02  0.7818608E-02  0.1180000E+00
       11   -1    0    0    0    0  0.00000000000E+00  0.00000000000E+00  0.39999999673E+01  0.40000000000E+01  0.51109989000E-03 0.  1.
     -623   -1    0    0    0    0  0.00000000000E+00  0.00000000000E+00  0.12525980253E-10  0.17130000000E+03  0.17130000000E+03 0.  1.
       11    1    1    2    0    0 -0.95783951544E-03  0.82260679140E-02  0.77333396087E-01  0.77777252608E-01  0.51109989000E-03 0.  1.
     -623    1    1    2    0    0  0.76807580892E-03  0.32855650067E-03  0.65713264573E-03  0.17130000000E+03  0.17130000000E+03 0.  1.
      622    1    1    2    0    0  0.18976370648E-03 -0.85546244147E-02  0.39220094388E+01  0.39222227443E+01  0.40000000000E-01 0.  1.
</event>
<event>
 5   0  0.7212170E+07  0.9118800E+02  0.7818608E-02  0.1180000E+00
       11   -1    0    0    0    0  0.00000000000E+00  0.00000000000E+00  0.39999999673E+01  0.40000000000E+01  0.51109989000E-03 0.  1.
     -623   -1    0    0    0    0  0.00000000000E+00  0.00000000000E+00  0.12525980253E-10  0.17130000000E+03  0.17130000000E+03 0.  1.
       11    1    1    2    0    0 -0.17641791212E-02 -0.83025906605E-02  0.50910076022E+00  0.50917176927E+00  0.51109989000E-03 0.  1.
     -623    1    1    2    0    0 -0.18414549889E-02  0.26362720410E-01  0.35077843895E-03  0.17130000204E+03  0.17130000000E+03 0.  1.
      622    1    1    2    0    0  0.36056341096E-02 -0.18060129743E-01  0.34905484276E+01  0.34908261908E+01  0.40000000000E-01 0.  1.
</event>
<event>
 5   0  0.7212170E+07  0.9118800E+02  0.7818608E-02  0.1180000E+00
       11   -1    0    0    0    0  0.00000000000E+00  0.00000000000E+00  0.39999999673E+01  0.40000000000E+01  0.51109989000E-03 0. -1.
     -623   -1    0    0    0    0  0.00000000000E+00  0.00000000000E+00  0.12525980253E-10  0.17130000000E+03  0.17130000000E+03 0.  1.
       11    1    1    2    0    0  0.12344653323E-01 -0.62794230922E-02  0.57183615591E+00  0.57200408394E+00  0.51109989000E-03 0. -1.
     -623    1    1    2    0    0  0.43668755162E-03  0.11419282424E-02  0.42896021477E-03  0.17130000000E+03  0.17130000000E+03 0.  1.
      622    1    1    2    0    0 -0.12781340874E-01  0.51374948499E-02  0.34277348507E+01  0.34279959106E+01  0.40000000000E-01 0. -1.
</event>
<event>
 5   0  0.7212170E+07  0.9118800E+02  0.7818608E-02  0.1180000E+00
       11   -1    0    0    0    0  0.00000000000E+00  0.00000000000E+00  0.39999999673E+01  0.40000000000E+01  0.51109989000E-03 0. -1.
     -623   -1    0    0    0    0  0.00000000000E+00  0.00000000000E+00  0.12525980253E-10  0.17130000000E+03  0.17130000000E+03 0.  1.
       11    1    1    2    0    0  0.16168484699E-02  0.79046804868E-02  0.83451186491E-01  0.83841874517E-01  0.51109989000E-03 0. -1.
     -623    1    1    2    0    0 -0.14796151398E-02 -0.46748367381E-03  0.60201543247E-03  0.17130000001E+03  0.17130000000E+03 0.  1.
      622    1    1    2    0    0 -0.13723332977E-03 -0.74371968128E-02  0.39159467663E+01  0.39161581183E+01  0.40000000000E-01 0. -1.
</event>
<event>
 5   0  0.7212170E+07  0.9118800E+02  0.7818608E-02  0.1180000E+00
       11   -1    0    0    0    0  0.00000000000E+00  0.00000000000E+00  0.39999999673E+01  0.40000000000E+01  0.51109989000E-03 0.  1.
     -623   -1    0    0    0    0  0.00000000000E+00  0.00000000000E+00  0.12525980253E-10  0.17130000000E+03  0.17130000000E+03 0.  1.
       11    1    1    2    0    0  0.15429274097E-03 -0.35018137917E-02  0.43796783230E-02  0.56328777186E-02  0.51109989000E-03 0.  1.
     -623    1    1    2    0    0 -0.10534251047E-01 -0.78334187908E-02  0.14835353992E-02  0.17130000051E+03  0.17130000000E+03 0.  1.
      622    1    1    2    0    0  0.10379958307E-01  0.11335232583E-01  0.39941367538E+01  0.39943666130E+01  0.40000000000E-01 0.  1.
</event>
<event>
 5   0  0.7212170E+07  0.9118800E+02  0.7818608E-02  0.1180000E+00
       11   -1    0    0    0    0  0.00000000000E+00  0.00000000000E+00  0.39999999673E+01  0.40000000000E+01  0.51109989000E-03 0.  1.
     -623   -1    0    0    0    0  0.00000000000E+00  0.00000000000E+00  0.12525980253E-10  0.17130000000E+03  0.17130000000E+03 0. -1.
       11    1    1    2    0    0 -0.64712814086E-03  0.10411490798E-03  0.17679940062E+00  0.17680135434E+00  0.51109989000E-03 0.  1.
     -623    1    1    2    0    0  0.42286286564E-03  0.50367075335E-03  0.21123196426E-03  0.17130000000E+03  0.17130000000E+03 0. -1.
      622    1    1    2    0    0  0.22426527525E-03 -0.60778566129E-03  0.38229893344E+01  0.38231986439E+01  0.40000000000E-01 0.  1.
</event>
<event>
 5   0  0.7212170E+07  0.9118800E+02  0.7818608E-02  0.1180000E+00
       11   -1    0    0    0    0  0.00000000000E+00  0.00000000000E+00  0.39999999673E+01  0.40000000000E+01  0.51109989000E-03 0.  1.
     -623   -1    0    0    0    0  0.00000000000E+00  0.00000000000E+00  0.12525980253E-10  0.17130000000E+03  0.17130000000E+03 0.  1.
       11    1    1    2    0    0  0.11866010840E-01  0.69183374779E-02  0.27099888027E-02  0.14009670557E-01  0.51109989000E-03 0.  1.
     -623    1    1    2    0    0 -0.36281855552E-01 -0.34913816163E-02  0.11580883083E-01  0.17130000427E+03  0.17130000000E+03 0.  1.
      622    1    1    2    0    0  0.24415844712E-01 -0.34269558616E-02  0.39857090955E+01  0.39859860601E+01  0.40000000000E-01 0.  1.
</event>
<event>
 5   0  0.7212170E+07  0.9118800E+02  0.7818608E-02  0.1180000E+00
       11   -1    0    0    0    0  0.00000000000E+00  0.00000000000E+00  0.39999999673E+01  0.40000000000E+01  0.51109989000E-03 0.  1.
     -623   -1    0    0    0    0  0.00000000000E+00  0.00000000000E+00  0.12525980253E-10  0.17130000000E+03  0.17130000000E+03 0. -1.
       11    1    1    2    0    0  0.61468861213E-02  0.36162477601E-02  0.32551618829E+00  0.32559470438E+00  0.51109989000E-03 0.  1.
     -623    1    1    2    0    0  0.31940657318E-03  0.12389066321E-02  0.30511521538E-03  0.17130000001E+03  0.17130000000E+03 0. -1.
      622    1    1    2    0    0 -0.64662926945E-02 -0.48551543924E-02  0.36741786645E+01  0.36744052912E+01  0.40000000000E-01 0.  1.
</event>
<event>
 5   0  0.7212170E+07  0.9118800E+02  0.7818608E-02  0.1180000E+00
       11   -1    0    0    0    0  0.00000000000E+00  0.00000000000E+00  0.39999999673E+01  0.40000000000E+01  0.51109989000E-03 0.  1.
     -623   -1    0    0    0    0  0.00000000000E+00  0.00000000000E+00  0.12525980253E-10  0.17130000000E+03  0.17130000000E+03 0. -1.
       11    1    1    2    0    0  0.14426268779E-01 -0.80425201062E-02  0.12844932893E+01  0.12845995761E+01  0.51109989000E-03 0.  1.
     -623    1    1    2    0    0  0.13450983842E-03  0.27670202969E-03  0.45103712960E-03  0.17130000000E+03  0.17130000000E+03 0. -1.
      622    1    1    2    0    0 -0.14560778617E-01  0.77658180765E-02  0.27150556410E+01  0.27154004231E+01  0.40000000000E-01 0.  1.
</event>
<event>
 5   0  0.7212170E+07  0.9118800E+02  0.7818608E-02  0.1180000E+00
       11   -1    0    0    0    0  0.00000000000E+00  0.00000000000E+00  0.39999999673E+01  0.40000000000E+01  0.51109989000E-03 0.  1.
     -623   -1    0    0    0    0  0.00000000000E+00  0.00000000000E+00  0.12525980253E-10  0.17130000000E+03  0.17130000000E+03 0.  1.
       11    1    1    2    0    0  0.12932280389E-01 -0.89979468110E-02  0.87834894072E+00  0.87849036979E+00  0.51109989000E-03 0.  1.
     -623    1    1    2    0    0 -0.11030575783E-02  0.17502563386E-02  0.42853687145E-03  0.17130000001E+03  0.17130000000E+03 0.  1.
      622    1    1    2    0    0 -0.11829222810E-01  0.72476904726E-02  0.31212224892E+01  0.31215096166E+01  0.40000000000E-01 0.  0.
</event>
<event>
 5   0  0.7212170E+07  0.9118800E+02  0.7818608E-02  0.1180000E+00
       11   -1    0    0    0    0  0.00000000000E+00  0.00000000000E+00  0.39999999673E+01  0.40000000000E+01  0.51109989000E-03 0.  1.
     -623   -1    0    0    0    0  0.00000000000E+00  0.00000000000E+00  0.12525980253E-10  0.17130000000E+03  0.17130000000E+03 0.  1.
       11    1    1    2    0    0 -0.17616665359E-01  0.44109621419E-02  0.44704309480E-01  0.48254947876E-01  0.51109989000E-03 0.  1.
     -623    1    1    2    0    0 -0.22664216343E-02 -0.51779924395E-02  0.38032865365E-02  0.17130000014E+03  0.17130000000E+03 0.  1.
      622    1    1    2    0    0  0.19883086993E-01  0.76703029772E-03  0.39514923714E+01  0.39517449167E+01  0.40000000000E-01 0.  1.
</event>
<event>
 5   0  0.7212170E+07  0.9118800E+02  0.7818608E-02  0.1180000E+00
       11   -1    0    0    0    0  0.00000000000E+00  0.00000000000E+00  0.39999999673E+01  0.40000000000E+01  0.51109989000E-03 0.  1.
     -623   -1    0    0    0    0  0.00000000000E+00  0.00000000000E+00  0.12525980253E-10  0.17130000000E+03  0.17130000000E+03 0. -1.
       11    1    1    2    0    0 -0.71268788983E-02  0.40988886800E-02  0.15872464224E+00  0.15893824766E+00  0.51109989000E-03 0.  1.
     -623    1    1    2    0    0  0.58170270122E-02 -0.41093719696E-02  0.42222612143E-03  0.17130000015E+03  0.17130000000E+03 0. -1.
      622    1    1    2    0    0  0.13098518847E-02  0.10483290523E-04  0.38408530999E+01  0.38410616047E+01  0.40000000000E-01 0.  1.
</event>
<event>
 5   0  0.7212170E+07  0.9118800E+02  0.7818608E-02  0.1180000E+00
       11   -1    0    0    0    0  0.00000000000E+00  0.00000000000E+00  0.39999999673E+01  0.40000000000E+01  0.51109989000E-03 0.  1.
     -623   -1    0    0    0    0  0.00000000000E+00  0.00000000000E+00  0.12525980253E-10  0.17130000000E+03  0.17130000000E+03 0.  1.
       11    1    1    2    0    0 -0.58655978121E-02 -0.54010325873E-02  0.43560022142E+00  0.43567349072E+00  0.51109989000E-03 0.  1.
     -623    1    1    2    0    0 -0.35638151153E-03  0.23169439351E-02  0.30447169908E-03  0.17130000002E+03  0.17130000000E+03 0.  1.
      622    1    1    2    0    0  0.62219793236E-02  0.30840886520E-02  0.35640952746E+01  0.35643264933E+01  0.40000000000E-01 0.  1.
</event>
<event>
 5   0  0.7212170E+07  0.9118800E+02  0.7818608E-02  0.1180000E+00
       11   -1    0    0    0    0  0.00000000000E+00  0.00000000000E+00  0.39999999673E+01  0.40000000000E+01  0.51109989000E-03 0. -1.
     -623   -1    0    0    0    0  0.00000000000E+00  0.00000000000E+00  0.12525980253E-10  0.17130000000E+03  0.17130000000E+03 0.  1.
       11    1    1    2    0    0 -0.12547558789E-01 -0.86515865575E-02  0.18649416464E+01  0.18650039938E+01  0.51109989000E-03 0. -1.
     -623    1    1    2    0    0  0.38279786782E-03 -0.78555104701E-03  0.49258222420E-03  0.17130000000E+03  0.17130000000E+03 0.  1.
      622    1    1    2    0    0  0.12164760921E-01  0.94371376046E-02  0.21345657394E+01  0.21349960039E+01  0.40000000000E-01 0. -1.
</event>
<event>
 5   0  0.7212170E+07  0.9118800E+02  0.7818608E-02  0.1180000E+00
       11   -1    0    0    0    0  0.00000000000E+00  0.00000000000E+00  0.39999999673E+01  0.40000000000E+01  0.51109989000E-03 0.  1.
     -623   -1    0    0    0    0  0.00000000000E+00  0.00000000000E+00  0.12525980253E-10  0.17130000000E+03  0.17130000000E+03 0.  1.
       11    1    1    2    0    0 -0.77582359725E-03 -0.29058389532E-03  0.15179126804E-01  0.15210307521E-01  0.51109989000E-03 0.  1.
     -623    1    1    2    0    0 -0.27123367032E-03  0.31852017954E-03  0.23205489013E-03  0.17130000000E+03  0.17130000000E+03 0.  1.
      622    1    1    2    0    0  0.10470572676E-02 -0.27936284211E-04  0.39845887855E+01  0.39847896917E+01  0.40000000000E-01 0.  1.
</event>
<event>
 5   0  0.7212170E+07  0.9118800E+02  0.7818608E-02  0.1180000E+00
       11   -1    0    0    0    0  0.00000000000E+00  0.00000000000E+00  0.39999999673E+01  0.40000000000E+01  0.51109989000E-03 0. -1.
     -623   -1    0    0    0    0  0.00000000000E+00  0.00000000000E+00  0.12525980253E-10  0.17130000000E+03  0.17130000000E+03 0. -1.
       11    1    1    2    0    0 -0.29627992750E-01 -0.27464748647E-02  0.29668786110E+01  0.29670278588E+01  0.51109989000E-03 0. -1.
     -623    1    1    2    0    0  0.25267679530E-01  0.13206760533E-01  0.98856113639E-03  0.17130000238E+03  0.17130000000E+03 0. -1.
      622    1    1    2    0    0  0.43603132206E-02 -0.10460285668E-01  0.10321327951E+01  0.10329697656E+01  0.40000000000E-01 0. -1.
</event>
<event>
 5   0  0.7212170E+07  0.9118800E+02  0.7818608E-02  0.1180000E+00
       11   -1    0    0    0    0  0.00000000000E+00  0.00000000000E+00  0.39999999673E+01  0.40000000000E+01  0.51109989000E-03 0.  1.
     -623   -1    0    0    0    0  0.00000000000E+00  0.00000000000E+00  0.12525980253E-10  0.17130000000E+03  0.17130000000E+03 0.  1.
       11    1    1    2    0    0 -0.14593185355E-03 -0.16686429761E-02  0.13017224211E-01  0.13134497125E-01  0.51109989000E-03 0.  1.
     -623    1    1    2    0    0 -0.13409489236E-02  0.23517795725E-03  0.31844490714E-03  0.17130000001E+03  0.17130000000E+03 0.  1.
      622    1    1    2    0    0  0.14868807773E-02  0.14334650188E-02  0.39866642985E+01  0.39868654974E+01  0.40000000000E-01 0.  1.
</event>
<event>
 5   0  0.7212170E+07  0.9118800E+02  0.7818608E-02  0.1180000E+00
       11   -1    0    0    0    0  0.00000000000E+00  0.00000000000E+00  0.39999999673E+01  0.40000000000E+01  0.51109989000E-03 0.  1.
     -623   -1    0    0    0    0  0.00000000000E+00  0.00000000000E+00  0.12525980253E-10  0.17130000000E+03  0.17130000000E+03 0.  1.
       11    1    1    2    0    0 -0.64317762152E-03  0.26171172472E-01  0.74882474968E+00  0.74928239730E+00  0.51109989000E-03 0.  1.
     -623    1    1    2    0    0 -0.74729770075E-03  0.16242580647E-02  0.82287683782E-03  0.17130000001E+03  0.17130000000E+03 0.  1.
      622    1    1    2    0    0  0.13904753224E-02 -0.27795430537E-01  0.32503523414E+01  0.32507175919E+01  0.40000000000E-01 0.  1.
</event>
<event>
 5   0  0.7212170E+07  0.9118800E+02  0.7818608E-02  0.1180000E+00
       11   -1    0    0    0    0  0.00000000000E+00  0.00000000000E+00  0.39999999673E+01  0.40000000000E+01  0.51109989000E-03 0. -1.
     -623   -1    0    0    0    0  0.00000000000E+00  0.00000000000E+00  0.12525980253E-10  0.17130000000E+03  0.17130000000E+03 0. -1.
       11    1    1    2    0    0 -0.16123308904E-02 -0.51607713893E-02  0.23891176309E+00  0.23897348167E+00  0.51109989000E-03 0. -1.
     -623    1    1    2    0    0 -0.78135226533E-02  0.89742186026E-02  0.28855897596E-03  0.17130000041E+03  0.17130000000E+03 0. -1.
      622    1    1    2    0    0  0.94258535464E-02 -0.38134472163E-02  0.37607996466E+01  0.37610261062E+01  0.40000000000E-01 0. -1.
</event>
<event>
 5   0  0.7212170E+07  0.9118800E+02  0.7818608E-02  0.1180000E+00
       11   -1    0    0    0    0  0.00000000000E+00  0.00000000000E+00  0.39999999673E+01  0.40000000000E+01  0.51109989000E-03 0.  1.
     -623   -1    0    0    0    0  0.00000000000E+00  0.00000000000E+00  0.12525980253E-10  0.17130000000E+03  0.17130000000E+03 0. -1.
       11    1    1    2    0    0 -0.36722888351E-02  0.43129007951E-02  0.10377759401E+00  0.10393332988E+00  0.51109989000E-03 0.  1.
     -623    1    1    2    0    0  0.56902961143E-02  0.24031794510E-02  0.36746729173E-03  0.17130000011E+03  0.17130000000E+03 0. -1.
      622    1    1    2    0    0 -0.20180072787E-02 -0.67160802459E-02  0.38958549057E+01  0.38960665580E+01  0.40000000000E-01 0.  1.
</event>
<event>
 5   0  0.7212170E+07  0.9118800E+02  0.7818608E-02  0.1180000E+00
       11   -1    0    0    0    0  0.00000000000E+00  0.00000000000E+00  0.39999999673E+01  0.40000000000E+01  0.51109989000E-03 0.  1.
     -623   -1    0    0    0    0  0.00000000000E+00  0.00000000000E+00  0.12525980253E-10  0.17130000000E+03  0.17130000000E+03 0. -1.
       11    1    1    2    0    0 -0.29205477493E-02 -0.76224953997E-02  0.42011728514E+00  0.42019689020E+00  0.51109989000E-03 0.  1.
     -623    1    1    2    0    0  0.72721576950E-02  0.11484575560E-01  0.30832354380E-03  0.17130000054E+03  0.17130000000E+03 0. -1.
      622    1    1    2    0    0 -0.43516099466E-02 -0.38620801621E-02  0.35795743591E+01  0.35798025706E+01  0.40000000000E-01 0.  1.
</event>
<event>
 5   0  0.7212170E+07  0.9118800E+02  0.7818608E-02  0.1180000E+00
       11   -1    0    0    0    0  0.00000000000E+00  0.00000000000E+00  0.39999999673E+01  0.40000000000E+01  0.51109989000E-03 0.  1.
     -623   -1    0    0    0    0  0.00000000000E+00  0.00000000000E+00  0.12525980253E-10  0.17130000000E+03  0.17130000000E+03 0.  1.
       11    1    1    2    0    0 -0.41682459656E-03 -0.70931756051E-03  0.12227123918E-02  0.15598470555E-02  0.51109989000E-03 0.  1.
     -623    1    1    2    0    0  0.76494522811E-03  0.78525569099E-03  0.53720527913E-03  0.17130000000E+03  0.17130000000E+03 0.  1.
      622    1    1    2    0    0 -0.34812063156E-03 -0.75938130485E-04  0.39982400497E+01  0.39984401486E+01  0.40000000000E-01 0.  1.
</event>
<event>
 5   0  0.7212170E+07  0.9118800E+02  0.7818608E-02  0.1180000E+00
       11   -1    0    0    0    0  0.00000000000E+00  0.00000000000E+00  0.39999999673E+01  0.40000000000E+01  0.51109989000E-03 0.  1.
     -623   -1    0    0    0    0  0.00000000000E+00  0.00000000000E+00  0.12525980253E-10  0.17130000000E+03  0.17130000000E+03 0. -1.
       11    1    1    2    0    0  0.14410003285E-02  0.98363847761E-03  0.71971307203E-02  0.74232028332E-02  0.51109989000E-03 0.  1.
     -623    1    1    2    0    0 -0.25529265173E-03  0.47130042685E-03  0.42685890634E-03  0.17130000000E+03  0.17130000000E+03 0. -1.
      622    1    1    2    0    0 -0.11857076767E-02 -0.14549389045E-02  0.39923759780E+01  0.39925767961E+01  0.40000000000E-01 0.  1.
</event>
<event>
 5   0  0.7212170E+07  0.9118800E+02  0.7818608E-02  0.1180000E+00
       11   -1    0    0    0    0  0.00000000000E+00  0.00000000000E+00  0.39999999673E+01  0.40000000000E+01  0.51109989000E-03 0. -1.
     -623   -1    0    0    0    0  0.00000000000E+00  0.00000000000E+00  0.12525980253E-10  0.17130000000E+03  0.17130000000E+03 0.  1.
       11    1    1    2    0    0 -0.10289151350E-02 -0.13035376014E-02  0.31586069990E-02  0.36049823724E-02  0.51109989000E-03 0. -1.
     -623    1    1    2    0    0  0.56666178771E-03 -0.38528260675E-03  0.64691433994E-03  0.17130000000E+03  0.17130000000E+03 0.  1.
      622    1    1    2    0    0  0.46225334738E-03  0.16888202081E-02  0.39961944457E+01  0.39963950147E+01  0.40000000000E-01 0. -1.
</event>
<event>
 5   0  0.7212170E+07  0.9118800E+02  0.7818608E-02  0.1180000E+00
       11   -1    0    0    0    0  0.00000000000E+00  0.00000000000E+00  0.39999999673E+01  0.40000000000E+01  0.51109989000E-03 0.  1.
     -623   -1    0    0    0    0  0.00000000000E+00  0.00000000000E+00  0.12525980253E-10  0.17130000000E+03  0.17130000000E+03 0. -1.
       11    1    1    2    0    0 -0.82843019391E-02 -0.40432673296E-02  0.55679013766E+00  0.55686667730E+00  0.51109989000E-03 0.  1.
     -623    1    1    2    0    0 -0.10034227854E-03  0.83715355425E-03  0.32056628987E-03  0.17130000000E+03  0.17130000000E+03 0. -1.
      622    1    1    2    0    0  0.83846442176E-02  0.32061137754E-02  0.34428892634E+01  0.34431333203E+01  0.40000000000E-01 0.  1.
</event>
<event>
 5   0  0.7212170E+07  0.9118800E+02  0.7818608E-02  0.1180000E+00
       11   -1    0    0    0    0  0.00000000000E+00  0.00000000000E+00  0.39999999673E+01  0.40000000000E+01  0.51109989000E-03 0.  1.
     -623   -1    0    0    0    0  0.00000000000E+00  0.00000000000E+00  0.12525980253E-10  0.17130000000E+03  0.17130000000E+03 0. -1.
       11    1    1    2    0    0  0.57698983258E-01  0.38794389039E-01  0.37864907172E+01  0.37871290433E+01  0.51109989000E-03 0.  1.
     -623    1    1    2    0    0 -0.18970853275E-01 -0.39136279060E-01  0.80545638319E-02  0.17130000571E+03  0.17130000000E+03 0. -1.
      622    1    1    2    0    0 -0.38728129984E-01  0.34189002108E-03  0.20545468625E+00  0.21286524621E+00  0.40000000000E-01 0.  1.
</event>
<event>
 5   0  0.7212170E+07  0.9118800E+02  0.7818608E-02  0.1180000E+00
       11   -1    0    0    0    0  0.00000000000E+00  0.00000000000E+00  0.39999999673E+01  0.40000000000E+01  0.51109989000E-03 0.  1.
     -623   -1    0    0    0    0  0.00000000000E+00  0.00000000000E+00  0.12525980253E-10  0.17130000000E+03  0.17130000000E+03 0. -1.
       11    1    1    2    0    0 -0.37960343014E-02 -0.66684562672E-02  0.98506010859E-01  0.98805736594E-01  0.51109989000E-03 0.  1.
     -623    1    1    2    0    0 -0.22315486810E-02 -0.37535053029E-02  0.52339889786E-03  0.17130000006E+03  0.17130000000E+03 0. -1.
      622    1    1    2    0    0  0.60275829827E-02  0.10421961571E-01  0.39009705580E+01  0.39011942074E+01  0.40000000000E-01 0.  1.
</event>
<event>
 5   0  0.7212170E+07  0.9118800E+02  0.7818608E-02  0.1180000E+00
       11   -1    0    0    0    0  0.00000000000E+00  0.00000000000E+00  0.39999999673E+01  0.40000000000E+01  0.51109989000E-03 0.  1.
     -623   -1    0    0    0    0  0.00000000000E+00  0.00000000000E+00  0.12525980253E-10  0.17130000000E+03  0.17130000000E+03 0. -1.
       11    1    1    2    0    0  0.37494813506E-02 -0.33733398080E-02  0.36051413286E+00  0.36054977360E+00  0.51109989000E-03 0.  1.
     -623    1    1    2    0    0 -0.25534620645E-02  0.25959981374E-02  0.25574661271E-03  0.17130000004E+03  0.17130000000E+03 0. -1.
      622    1    1    2    0    0 -0.11960192866E-02  0.77734167098E-03  0.36392300872E+01  0.36394501869E+01  0.40000000000E-01 0.  1.
</event>
<event>
 5   0  0.7212170E+07  0.9118800E+02  0.7818608E-02  0.1180000E+00
       11   -1    0    0    0    0  0.00000000000E+00  0.00000000000E+00  0.39999999673E+01  0.40000000000E+01  0.51109989000E-03 0.  1.
     -623   -1    0    0    0    0  0.00000000000E+00  0.00000000000E+00  0.12525980253E-10  0.17130000000E+03  0.17130000000E+03 0. -1.
       11    1    1    2    0    0 -0.32872530444E-01  0.89880960443E-02  0.16620996306E+00  0.16966850672E+00  0.51109989000E-03 0.  1.
     -623    1    1    2    0    0 -0.12004274262E-01  0.99179143499E-02  0.39777101858E-02  0.17130000075E+03  0.17130000000E+03 0. -1.
      622    1    1    2    0    0  0.44876804706E-01 -0.18906010395E-01  0.38298122943E+01  0.38303307395E+01  0.40000000000E-01 0.  1.
</event>
<event>
 5   0  0.7212170E+07  0.9118800E+02  0.7818608E-02  0.1180000E+00
       11   -1    0    0    0    0  0.00000000000E+00  0.00000000000E+00  0.39999999673E+01  0.40000000000E+01  0.51109989000E-03 0.  1.
     -623   -1    0    0    0    0  0.00000000000E+00  0.00000000000E+00  0.12525980253E-10  0.17130000000E+03  0.17130000000E+03 0. -1.
       11    1    1    2    0    0  0.24288323875E-02 -0.14267740602E-02  0.29848988548E-02  0.41359104507E-02  0.51109989000E-03 0.  1.
     -623    1    1    2    0    0 -0.51498677003E-02 -0.52566234730E-02  0.13578704852E-02  0.17130000016E+03  0.17130000000E+03 0. -1.
      622    1    1    2    0    0  0.27210353129E-02  0.66833975333E-02  0.39956571981E+01  0.39958639262E+01  0.40000000000E-01 0.  1.
</event>
<event>
 5   0  0.7212170E+07  0.9118800E+02  0.7818608E-02  0.1180000E+00
       11   -1    0    0    0    0  0.00000000000E+00  0.00000000000E+00  0.39999999673E+01  0.40000000000E+01  0.51109989000E-03 0.  1.
     -623   -1    0    0    0    0  0.00000000000E+00  0.00000000000E+00  0.12525980253E-10  0.17130000000E+03  0.17130000000E+03 0. -1.
       11    1    1    2    0    0 -0.16665003842E-02 -0.10379388868E-02  0.46141238865E-01  0.46185816955E-01  0.51109989000E-03 0.  1.
     -623    1    1    2    0    0  0.16971041836E-03  0.27603262343E-03  0.24724412561E-03  0.17130000000E+03  0.17130000000E+03 0. -1.
      622    1    1    2    0    0  0.14967899658E-02  0.76190626328E-03  0.39536114854E+01  0.39538141836E+01  0.40000000000E-01 0.  1.
</event>
<event>
 5   0  0.7212170E+07  0.9118800E+02  0.7818608E-02  0.1180000E+00
       11   -1    0    0    0    0  0.00000000000E+00  0.00000000000E+00  0.39999999673E+01  0.40000000000E+01  0.51109989000E-03 0.  1.
     -623   -1    0    0    0    0  0.00000000000E+00  0.00000000000E+00  0.12525980253E-10  0.17130000000E+03  0.17130000000E+03 0. -1.
       11    1    1    2    0    0 -0.30164312412E-02 -0.25440694978E-02  0.18572166949E+00  0.18576428852E+00  0.51109989000E-03 0.  1.
     -623    1    1    2    0    0 -0.25076192766E-02  0.37695300546E-02  0.25659001462E-03  0.17130000006E+03  0.17130000000E+03 0. -1.
      622    1    1    2    0    0  0.55240505178E-02 -0.12254605567E-02  0.38140217078E+01  0.38142356514E+01  0.40000000000E-01 0.  1.
</event>
<event>
 5   0  0.7212170E+07  0.9118800E+02  0.7818608E-02  0.1180000E+00
       11   -1    0    0    0    0  0.00000000000E+00  0.00000000000E+00  0.39999999673E+01  0.40000000000E+01  0.51109989000E-03 0.  1.
     -623   -1    0    0    0    0  0.00000000000E+00  0.00000000000E+00  0.12525980253E-10  0.17130000000E+03  0.17130000000E+03 0. -1.
       11    1    1    2    0    0  0.26712025556E-02  0.28728878178E-02  0.39638444907E-01  0.39835365509E-01  0.51109989000E-03 0.  1.
     -623    1    1    2    0    0 -0.19580946891E-02 -0.39284309645E-04  0.39999460105E-03  0.17130000001E+03  0.17130000000E+03 0. -1.
      622    1    1    2    0    0 -0.71310786668E-03 -0.28336035081E-02  0.39599615276E+01  0.39601646225E+01  0.40000000000E-01 0.  1.
</event>
<event>
 5   0  0.7212170E+07  0.9118800E+02  0.7818608E-02  0.1180000E+00
       11   -1    0    0    0    0  0.00000000000E+00  0.00000000000E+00  0.39999999673E+01  0.40000000000E+01  0.51109989000E-03 0. -1.
     -623   -1    0    0    0    0  0.00000000000E+00  0.00000000000E+00  0.12525980253E-10  0.17130000000E+03  0.17130000000E+03 0. -1.
       11    1    1    2    0    0 -0.22349424348E-01 -0.11241183008E-01  0.15997364883E+01  0.15999321717E+01  0.51109989000E-03 0. -1.
     -623    1    1    2    0    0  0.25773006673E-01 -0.25905784814E-01  0.82286861537E-03  0.17130000390E+03  0.17130000000E+03 0. -1.
      622    1    1    2    0    0 -0.34235823223E-02  0.37146967819E-01  0.23994406100E+01  0.24000639281E+01  0.40000000000E-01 0. -1.
</event>
<event>
 5   0  0.7212170E+07  0.9118800E+02  0.7818608E-02  0.1180000E+00
       11   -1    0    0    0    0  0.00000000000E+00  0.00000000000E+00  0.39999999673E+01  0.40000000000E+01  0.51109989000E-03 0. -1.
     -623   -1    0    0    0    0  0.00000000000E+00  0.00000000000E+00  0.12525980253E-10  0.17130000000E+03  0.17130000000E+03 0. -1.
       11    1    1    2    0    0 -0.45894449627E-02 -0.68629744828E-04  0.29746749648E-01  0.30103123639E-01  0.51109989000E-03 0. -1.
     -623    1    1    2    0    0 -0.58967237843E-02  0.17522855162E-02  0.57218141536E-03  0.17130000011E+03  0.17130000000E+03 0. -1.
      622    1    1    2    0    0  0.10486168747E-01 -0.16836557714E-02  0.39696810363E+01  0.39698967649E+01  0.40000000000E-01 0. -1.
</event>
<event>
 5   0  0.7212170E+07  0.9118800E+02  0.7818608E-02  0.1180000E+00
       11   -1    0    0    0    0  0.00000000000E+00  0.00000000000E+00  0.39999999673E+01  0.40000000000E+01  0.51109989000E-03 0.  1.
     -623   -1    0    0    0    0  0.00000000000E+00  0.00000000000E+00  0.12525980253E-10  0.17130000000E+03  0.17130000000E+03 0. -1.
       11    1    1    2    0    0  0.34660663669E-02 -0.39798031796E-02  0.17905242772E+01  0.17905321279E+01  0.51109989000E-03 0.  1.
     -623    1    1    2    0    0  0.47835642335E-03 -0.10826056963E-02  0.37925233270E-03  0.17130000000E+03  0.17130000000E+03 0. -1.
      622    1    1    2    0    0 -0.39444227903E-02  0.50624088759E-02  0.22090964382E+01  0.22094678680E+01  0.40000000000E-01 0.  1.
</event>
<event>
 5   0  0.7212170E+07  0.9118800E+02  0.7818608E-02  0.1180000E+00
       11   -1    0    0    0    0  0.00000000000E+00  0.00000000000E+00  0.39999999673E+01  0.40000000000E+01  0.51109989000E-03 0.  1.
     -623   -1    0    0    0    0  0.00000000000E+00  0.00000000000E+00  0.12525980253E-10  0.17130000000E+03  0.17130000000E+03 0.  1.
       11    1    1    2    0    0  0.63455195021E-01  0.15649435513E-01  0.86474543398E+00  0.86721185037E+00  0.51109989000E-03 0.  1.
     -623    1    1    2    0    0 -0.56307222917E-02 -0.49434357236E-02  0.32739971044E-02  0.17130000020E+03  0.17130000000E+03 0.  1.
      622    1    1    2    0    0 -0.57824472729E-01 -0.10705999789E-01  0.31319805365E+01  0.31327879547E+01  0.40000000000E-01 0.  1.
</event>
<event>
 5   0  0.7212170E+07  0.9118800E+02  0.7818608E-02  0.1180000E+00
       11   -1    0    0    0    0  0.00000000000E+00  0.00000000000E+00  0.39999999673E+01  0.40000000000E+01  0.51109989000E-03 0. -1.
     -623   -1    0    0    0    0  0.00000000000E+00  0.00000000000E+00  0.12525980253E-10  0.17130000000E+03  0.17130000000E+03 0.  1.
       11    1    1    2    0    0  0.10074850851E-01 -0.20730354380E-01  0.20822423086E+00  0.20949663901E+00  0.51109989000E-03 0. -1.
     -623    1    1    2    0    0  0.35429272356E-02  0.33958521020E-02  0.15476147416E-02  0.17130000008E+03  0.17130000000E+03 0.  1.
      622    1    1    2    0    0 -0.13617778087E-01  0.17334502278E-01  0.37902281221E+01  0.37905032840E+01  0.40000000000E-01 0. -1.
</event>
<event>
 5   0  0.7212170E+07  0.9118800E+02  0.7818608E-02  0.1180000E+00
       11   -1    0    0    0    0  0.00000000000E+00  0.00000000000E+00  0.39999999673E+01  0.40000000000E+01  0.51109989000E-03 0.  1.
     -623   -1    0    0    0    0  0.00000000000E+00  0.00000000000E+00  0.12525980253E-10  0.17130000000E+03  0.17130000000E+03 0.  1.
       11    1    1    2    0    0  0.93900814413E-03  0.63011410048E-03  0.13185550815E-02  0.18106879010E-02  0.51109989000E-03 0.  1.
     -623    1    1    2    0    0 -0.34152883445E-02 -0.10921082995E-02  0.69302826735E-03  0.17130000004E+03  0.17130000000E+03 0.  1.
      622    1    1    2    0    0  0.24762802005E-02  0.46199419903E-03  0.39979883842E+01  0.39981892733E+01  0.40000000000E-01 0.  1.
</event>
<event>
 5   0  0.7212170E+07  0.9118800E+02  0.7818608E-02  0.1180000E+00
       11   -1    0    0    0    0  0.00000000000E+00  0.00000000000E+00  0.39999999673E+01  0.40000000000E+01  0.51109989000E-03 0.  1.
     -623   -1    0    0    0    0  0.00000000000E+00  0.00000000000E+00  0.12525980253E-10  0.17130000000E+03  0.17130000000E+03 0. -1.
       11    1    1    2    0    0 -0.52934299015E-02  0.33018874814E-02  0.13293735375E+01  0.13293882752E+01  0.51109989000E-03 0.  1.
     -623    1    1    2    0    0  0.15321403706E-02  0.77422565903E-02  0.33994874938E-03  0.17130000018E+03  0.17130000000E+03 0. -1.
      622    1    1    2    0    0  0.37612895312E-02 -0.11044144070E-01  0.26702864804E+01  0.26706115419E+01  0.40000000000E-01 0.  1.
</event>
<event>
 5   0  0.7212170E+07  0.9118800E+02  0.7818608E-02  0.1180000E+00
       11   -1    0    0    0    0  0.00000000000E+00  0.00000000000E+00  0.39999999673E+01  0.40000000000E+01  0.51109989000E-03 0. -1.
     -623   -1    0    0    0    0  0.00000000000E+00  0.00000000000E+00  0.12525980253E-10  0.17130000000E+03  0.17130000000E+03 0. -1.
       11    1    1    2    0    0  0.83487808351E-03  0.73051152109E-03  0.56046077031E-01  0.56059384960E-01  0.51109989000E-03 0. -1.
     -623    1    1    2    0    0  0.84904492990E-03 -0.15083956979E-02  0.21656842271E-03  0.17130000001E+03  0.17130000000E+03 0. -1.
      622    1    1    2    0    0 -0.16839230135E-02  0.77788417695E-03  0.39437373223E+01  0.39439406065E+01  0.40000000000E-01 0. -1.
</event>
<event>
 5   0  0.7212170E+07  0.9118800E+02  0.7818608E-02  0.1180000E+00
       11   -1    0    0    0    0  0.00000000000E+00  0.00000000000E+00  0.39999999673E+01  0.40000000000E+01  0.51109989000E-03 0. -1.
     -623   -1    0    0    0    0  0.00000000000E+00  0.00000000000E+00  0.12525980253E-10  0.17130000000E+03  0.17130000000E+03 0.  1.
       11    1    1    2    0    0 -0.10953701068E-01  0.72724942710E-02  0.15006621272E+01  0.15007198119E+01  0.51109989000E-03 0. -1.
     -623    1    1    2    0    0 -0.14489193251E-02 -0.16873731598E-02  0.41479910128E-03  0.17130000001E+03  0.17130000000E+03 0.  1.
      622    1    1    2    0    0  0.12402620393E-01 -0.55851211112E-02  0.24989230412E+01  0.24992801733E+01  0.40000000000E-01 0. -1.
</event>
<event>
 5   0  0.7212170E+07  0.9118800E+02  0.7818608E-02  0.1180000E+00
       11   -1    0    0    0    0  0.00000000000E+00  0.00000000000E+00  0.39999999673E+01  0.40000000000E+01  0.51109989000E-03 0.  1.
     -623   -1    0    0    0    0  0.00000000000E+00  0.00000000000E+00  0.12525980253E-10  0.17130000000E+03  0.17130000000E+03 0. -1.
       11    1    1    2    0    0  0.61423416191E-04  0.13895322642E-02  0.10754169935E-01  0.10855780342E-01  0.51109989000E-03 0.  1.
     -623    1    1    2    0    0 -0.10962459493E-02  0.10828182130E-04  0.30251088355E-03  0.17130000000E+03  0.17130000000E+03 0. -1.
      622    1    1    2    0    0  0.10348225333E-02 -0.14003604463E-02  0.39889432871E+01  0.39891442164E+01  0.40000000000E-01 0.  1.
</event>
<event>
 5   0  0.7212170E+07  0.9118800E+02  0.7818608E-02  0.1180000E+00
       11   -1    0    0    0    0  0.00000000000E+00  0.00000000000E+00  0.39999999673E+01  0.40000000000E+01  0.51109989000E-03 0. -1.
     -623   -1    0    0    0    0  0.00000000000E+00  0.00000000000E+00  0.12525980253E-10  0.17130000000E+03  0.17130000000E+03 0. -1.
       11    1    1    2    0    0 -0.52667408042E-03 -0.47222057547E-03  0.42643972774E-01  0.42652901600E-01  0.51109989000E-03 0. -1.
     -623    1    1    2    0    0  0.29767369190E-03  0.71755978985E-03  0.21107310396E-03  0.17130000000E+03  0.17130000000E+03 0. -1.
      622    1    1    2    0    0  0.22900038855E-03 -0.24533921431E-03  0.39571449211E+01  0.39573470961E+01  0.40000000000E-01 0. -1.
</event>
<event>
 5   0  0.7212170E+07  0.9118800E+02  0.7818608E-02  0.1180000E+00
       11   -1    0    0    0    0  0.00000000000E+00  0.00000000000E+00  0.39999999673E+01  0.40000000000E+01  0.51109989000E-03 0.  1.
     -623   -1    0    0    0    0  0.00000000000E+00  0.00000000000E+00  0.12525980253E-10  0.17130000000E+03  0.17130000000E+03 0. -1.
       11    1    1    2    0    0  0.33812138370E-02  0.26857602193E-01  0.43936636432E-01  0.51608648952E-01  0.51109989000E-03 0.  1.
     -623    1    1    2    0    0 -0.77566815894E-02 -0.31722462110E-01  0.78833153907E-02  0.17130000329E+03  0.17130000000E+03 0. -1.
      622    1    1    2    0    0  0.43754677524E-02  0.48648599169E-02  0.39481800155E+01  0.39483880568E+01  0.40000000000E-01 0.  1.
</event>
<event>
 5   0  0.7212170E+07  0.9118800E+02  0.7818608E-02  0.1180000E+00
       11   -1    0    0    0    0  0.00000000000E+00  0.00000000000E+00  0.39999999673E+01  0.40000000000E+01  0.51109989000E-03 0.  1.
     -623   -1    0    0    0    0  0.00000000000E+00  0.00000000000E+00  0.12525980253E-10  0.17130000000E+03  0.17130000000E+03 0. -1.
       11    1    1    2    0    0  0.45697774326E-02  0.10353434421E-01  0.44972198516E-01  0.46377110007E-01  0.51109989000E-03 0.  1.
     -623    1    1    2    0    0  0.34695704251E-02 -0.13361010466E-02  0.16257360594E-02  0.17130000005E+03  0.17130000000E+03 0. -1.
      622    1    1    2    0    0 -0.80393478576E-02 -0.90173333748E-02  0.39534020326E+01  0.39536228418E+01  0.40000000000E-01 0.  1.
</event>
<event>
 5   0  0.7212170E+07  0.9118800E+02  0.7818608E-02  0.1180000E+00
       11   -1    0    0    0    0  0.00000000000E+00  0.00000000000E+00  0.39999999673E+01  0.40000000000E+01  0.51109989000E-03 0.  1.
     -623   -1    0    0    0    0  0.00000000000E+00  0.00000000000E+00  0.12525980253E-10  0.17130000000E+03  0.17130000000E+03 0. -1.
       11    1    1    2    0    0  0.84803327394E-03  0.66762829170E-03  0.21098374055E-02  0.24243607291E-02  0.51109989000E-03 0.  1.
     -623    1    1    2    0    0 -0.11770292858E-02 -0.23850950319E-02  0.51502090011E-03  0.17130000002E+03  0.17130000000E+03 0. -1.
      622    1    1    2    0    0  0.32899601199E-03  0.17174667404E-02  0.39973751093E+01  0.39975756181E+01  0.40000000000E-01 0.  1.
</event>
<event>
 5   0  0.7212170E+07  0.9118800E+02  0.7818608E-02  0.1180000E+00
       11   -1    0    0    0    0  0.00000000000E+00  0.00000000000E+00  0.39999999673E+01  0.40000000000E+01  0.51109989000E-03 0.  1.
     -623   -1    0    0    0    0  0.00000000000E+00  0.00000000000E+00  0.12525980253E-10  0.17130000000E+03  0.17130000000E+03 0. -1.
       11    1    1    2    0    0  0.13701253061E-02 -0.82684596800E-02  0.11558659169E+01  0.11558964156E+01  0.51109989000E-03 0.  1.
     -623    1    1    2    0    0 -0.54334389516E-03  0.35937989399E-03  0.32288363614E-03  0.17130000000E+03  0.17130000000E+03 0. -1.
      622    1    1    2    0    0 -0.82678141071E-03  0.79090797859E-02  0.28438111682E+01  0.28441035842E+01  0.40000000000E-01 0.  1.
</event>
<event>
 5   0  0.7212170E+07  0.9118800E+02  0.7818608E-02  0.1180000E+00
       11   -1    0    0    0    0  0.00000000000E+00  0.00000000000E+00  0.39999999673E+01  0.40000000000E+01  0.51109989000E-03 0.  1.
     -623   -1    0    0    0    0  0.00000000000E+00  0.00000000000E+00  0.12525980253E-10  0.17130000000E+03  0.17130000000E+03 0. -1.
       11    1    1    2    0    0 -0.31467735540E-02 -0.17335955555E-01  0.13385361172E+01  0.13386521713E+01  0.51109989000E-03 0.  1.
     -623    1    1    2    0    0 -0.76587771558E-02  0.69029836618E-02  0.45933993630E-03  0.17130000031E+03  0.17130000000E+03 0. -1.
      622    1    1    2    0    0  0.10805550710E-01  0.10432971893E-01  0.26610045101E+01  0.26613475177E+01  0.40000000000E-01 0.  1.
</event>
<event>
 5   0  0.7212170E+07  0.9118800E+02  0.7818608E-02  0.1180000E+00
       11   -1    0    0    0    0  0.00000000000E+00  0.00000000000E+00  0.39999999673E+01  0.40000000000E+01  0.51109989000E-03 0.  1.
     -623   -1    0    0    0    0  0.00000000000E+00  0.00000000000E+00  0.12525980253E-10  0.17130000000E+03  0.17130000000E+03 0. -1.
       11    1    1    2    0    0 -0.13787147743E-02  0.71201227513E-02  0.58011256863E+00  0.58015812543E+00  0.51109989000E-03 0.  1.
     -623    1    1    2    0    0  0.12680079845E-01 -0.10201854693E-01  0.30029798478E-03  0.17130000077E+03  0.17130000000E+03 0. -1.
      622    1    1    2    0    0 -0.11301365071E-01  0.30817319426E-02  0.34195871010E+01  0.34198411015E+01  0.40000000000E-01 0.  1.
</event>
<event>
 5   0  0.7212170E+07  0.9118800E+02  0.7818608E-02  0.1180000E+00
       11   -1    0    0    0    0  0.00000000000E+00  0.00000000000E+00  0.39999999673E+01  0.40000000000E+01  0.51109989000E-03 0. -1.
     -623   -1    0    0    0    0  0.00000000000E+00  0.00000000000E+00  0.12525980253E-10  0.17130000000E+03  0.17130000000E+03 0. -1.
       11    1    1    2    0    0  0.57233823975E-01 -0.24289803893E-02  0.17216681500E+01  0.17226209945E+01  0.51109989000E-03 0. -1.
     -623    1    1    2    0    0 -0.62522946150E-01  0.22448786306E-01  0.14111619838E-02  0.17130001289E+03  0.17130000000E+03 0. -1.
      622    1    1    2    0    0  0.52891221743E-02 -0.20019805916E-01  0.22769206553E+01  0.22773661185E+01  0.40000000000E-01 0. -1.
</event>
<event>
 5   0  0.7212170E+07  0.9118800E+02  0.7818608E-02  0.1180000E+00
       11   -1    0    0    0    0  0.00000000000E+00  0.00000000000E+00  0.39999999673E+01  0.40000000000E+01  0.51109989000E-03 0. -1.
     -623   -1    0    0    0    0  0.00000000000E+00  0.00000000000E+00  0.12525980253E-10  0.17130000000E+03  0.17130000000E+03 0. -1.
       11    1    1    2    0    0 -0.34154622987E-01  0.23577188464E-01  0.12978736436E+01  0.12985371301E+01  0.51109989000E-03 0. -1.
     -623    1    1    2    0    0  0.24356129340E-01 -0.92602054897E-02  0.10173057084E-02  0.17130000198E+03  0.17130000000E+03 0. -1.
      622    1    1    2    0    0  0.97984936477E-02 -0.14316982974E-01  0.27011090178E+01  0.27014608849E+01  0.40000000000E-01 0.  0.
</event>
<event>
 5   0  0.7212170E+07  0.9118800E+02  0.7818608E-02  0.1180000E+00
       11   -1    0    0    0    0  0.00000000000E+00  0.00000000000E+00  0.39999999673E+01  0.40000000000E+01  0.51109989000E-03 0. -1.
     -623   -1    0    0    0    0  0.00000000000E+00  0.00000000000E+00  0.12525980253E-10  0.17130000000E+03  0.17130000000E+03 0. -1.
       11    1    1    2    0    0 -0.42817110750E-02 -0.47441051838E-01  0.66523071025E+00  0.66693413882E+00  0.51109989000E-03 0. -1.
     -623    1    1    2    0    0 -0.11085510235E-01  0.23034953133E-02  0.22849152872E-02  0.17130000039E+03  0.17130000000E+03 0. -1.
      622    1    1    2    0    0  0.15367221310E-01  0.45137556524E-01  0.33324843418E+01  0.33330654718E+01  0.40000000000E-01 0. -1.
</event>
<event>
 5   0  0.7212170E+07  0.9118800E+02  0.7818608E-02  0.1180000E+00
       11   -1    0    0    0    0  0.00000000000E+00  0.00000000000E+00  0.39999999673E+01  0.40000000000E+01  0.51109989000E-03 0.  1.
     -623   -1    0    0    0    0  0.00000000000E+00  0.00000000000E+00  0.12525980253E-10  0.17130000000E+03  0.17130000000E+03 0.  1.
       11    1    1    2    0    0 -0.13166043913E-02  0.95410819729E-03  0.13634305051E+00  0.13635370334E+00  0.51109989000E-03 0.  1.
     -623    1    1    2    0    0 -0.12569759954E-01  0.74269545098E-02  0.25235310574E-03  0.17130000062E+03  0.17130000000E+03 0.  1.
      622    1    1    2    0    0  0.13886364348E-01 -0.83810627090E-02  0.38634045648E+01  0.38636456753E+01  0.40000000000E-01 0.  0.
</event>
<event>
 5   0  0.7212170E+07  0.9118800E+02  0.7818608E-02  0.1180000E+00
       11   -1    0    0    0    0  0.00000000000E+00  0.00000000000E+00  0.39999999673E+01  0.40000000000E+01  0.51109989000E-03 0.  1.
     -623   -1    0    0    0    0  0.00000000000E+00  0.00000000000E+00  0.12525980253E-10  0.17130000000E+03  0.17130000000E+03 0.  1.
       11    1    1    2    0    0  0.72469551254E-02  0.11722636566E-01  0.15457034969E+00  0.15518438321E+00  0.51109989000E-03 0.  1.
     -623    1    1    2    0    0  0.23731142425E-04 -0.16436904654E-02  0.84217524025E-03  0.17130000001E+03  0.17130000000E+03 0.  1.
      622    1    1    2    0    0 -0.72706862678E-02 -0.10078946101E-01  0.38445874421E+01  0.38448156065E+01  0.40000000000E-01 0.  0.
</event>
<event>
 5   0  0.7212170E+07  0.9118800E+02  0.7818608E-02  0.1180000E+00
       11   -1    0    0    0    0  0.00000000000E+00  0.00000000000E+00  0.39999999673E+01  0.40000000000E+01  0.51109989000E-03 0. -1.
     -623   -1    0    0    0    0  0.00000000000E+00  0.00000000000E+00  0.12525980253E-10  0.17130000000E+03  0.17130000000E+03 0.  1.
       11    1    1    2    0    0  0.49801387984E-02 -0.20745924989E-02  0.12638225083E+00  0.12649838048E+00  0.51109989000E-03 0. -1.
     -623    1    1    2    0    0 -0.59908497279E-04  0.52179771768E-03  0.32607143883E-03  0.17130000000E+03  0.17130000000E+03 0.  1.
      622    1    1    2    0    0 -0.49202303011E-02  0.15527947812E-02  0.38732916447E+01  0.38735016180E+01  0.40000000000E-01 0. -1.
</event>
<event>
 5   0  0.7212170E+07  0.9118800E+02  0.7818608E-02  0.1180000E+00
       11   -1    0    0    0    0  0.00000000000E+00  0.00000000000E+00  0.39999999673E+01  0.40000000000E+01  0.51109989000E-03 0. -1.
     -623   -1    0    0    0    0  0.00000000000E+00  0.00000000000E+00  0.12525980253E-10  0.17130000000E+03  0.17130000000E+03 0. -1.
       11    1    1    2    0    0  0.18780222238E-02  0.17689549116E-02  0.28945350096E-01  0.29064595029E-01  0.51109989000E-03 0. -1.
     -623    1    1    2    0    0  0.14282478314E-02 -0.20271845140E-02  0.32208441942E-03  0.17130000002E+03  0.17130000000E+03 0. -1.
      622    1    1    2    0    0 -0.33062700552E-02  0.25822960237E-03  0.39707325328E+01  0.39709353867E+01  0.40000000000E-01 0. -1.
</event>
<event>
 5   0  0.7212170E+07  0.9118800E+02  0.7818608E-02  0.1180000E+00
       11   -1    0    0    0    0  0.00000000000E+00  0.00000000000E+00  0.39999999673E+01  0.40000000000E+01  0.51109989000E-03 0. -1.
     -623   -1    0    0    0    0  0.00000000000E+00  0.00000000000E+00  0.12525980253E-10  0.17130000000E+03  0.17130000000E+03 0. -1.
       11    1    1    2    0    0  0.35514902572E-02  0.13468089432E-01  0.42037711872E+00  0.42060811415E+00  0.51109989000E-03 0. -1.
     -623    1    1    2    0    0 -0.61823331913E-03  0.51003759916E-03  0.48297120916E-03  0.17130000000E+03  0.17130000000E+03 0. -1.
      622    1    1    2    0    0 -0.29332569382E-02 -0.13978127031E-01  0.35791398770E+01  0.35793918828E+01  0.40000000000E-01 0. -1.
</event>
<event>
 5   0  0.7212170E+07  0.9118800E+02  0.7818608E-02  0.1180000E+00
       11   -1    0    0    0    0  0.00000000000E+00  0.00000000000E+00  0.39999999673E+01  0.40000000000E+01  0.51109989000E-03 0. -1.
     -623   -1    0    0    0    0  0.00000000000E+00  0.00000000000E+00  0.12525980253E-10  0.17130000000E+03  0.17130000000E+03 0.  1.
       11    1    1    2    0    0 -0.25727852780E-02  0.10803206161E-02  0.15180850852E-01  0.15443632099E-01  0.51109989000E-03 0. -1.
     -623    1    1    2    0    0  0.32855666302E-03 -0.84242299582E-03  0.46417100012E-03  0.17130000000E+03  0.17130000000E+03 0.  1.
      622    1    1    2    0    0  0.22442286151E-02 -0.23789762043E-03  0.39843549449E+01  0.39845563643E+01  0.40000000000E-01 0. -1.
</event>
<event>
 5   0  0.7212170E+07  0.9118800E+02  0.7818608E-02  0.1180000E+00
       11   -1    0    0    0    0  0.00000000000E+00  0.00000000000E+00  0.39999999673E+01  0.40000000000E+01  0.51109989000E-03 0. -1.
     -623   -1    0    0    0    0  0.00000000000E+00  0.00000000000E+00  0.12525980253E-10  0.17130000000E+03  0.17130000000E+03 0.  1.
       11    1    1    2    0    0  0.12772898028E-02  0.12690403129E-02  0.28658356699E-01  0.28719410934E-01  0.51109989000E-03 0. -1.
     -623    1    1    2    0    0 -0.94946297913E-03 -0.46756998149E-03  0.26257094021E-03  0.17130000000E+03  0.17130000000E+03 0.  1.
      622    1    1    2    0    0 -0.32782682374E-03 -0.80147033141E-03  0.39710790395E+01  0.39712805854E+01  0.40000000000E-01 0. -1.
</event>
<event>
 5   0  0.7212170E+07  0.9118800E+02  0.7818608E-02  0.1180000E+00
       11   -1    0    0    0    0  0.00000000000E+00  0.00000000000E+00  0.39999999673E+01  0.40000000000E+01  0.51109989000E-03 0. -1.
     -623   -1    0    0    0    0  0.00000000000E+00  0.00000000000E+00  0.12525980253E-10  0.17130000000E+03  0.17130000000E+03 0. -1.
       11    1    1    2    0    0 -0.60518073605E-02  0.12878416584E-01  0.39358630266E+00  0.39384377214E+00  0.51109989000E-03 0. -1.
     -623    1    1    2    0    0  0.26739836366E-02  0.13392049147E-03  0.50436843451E-03  0.17130000002E+03  0.17130000000E+03 0. -1.
      622    1    1    2    0    0  0.33778237238E-02 -0.13012337076E-01  0.36059092964E+01  0.36061562063E+01  0.40000000000E-01 0. -1.
</event>
<event>
 5   0  0.7212170E+07  0.9118800E+02  0.7818608E-02  0.1180000E+00
       11   -1    0    0    0    0  0.00000000000E+00  0.00000000000E+00  0.39999999673E+01  0.40000000000E+01  0.51109989000E-03 0.  1.
     -623   -1    0    0    0    0  0.00000000000E+00  0.00000000000E+00  0.12525980253E-10  0.17130000000E+03  0.17130000000E+03 0.  1.
       11    1    1    2    0    0 -0.47204711827E-02 -0.92308139481E-02  0.89761991288E+00  0.89767993183E+00  0.51109989000E-03 0.  1.
     -623    1    1    2    0    0  0.18883880925E-03 -0.22427822232E-02  0.34241246889E-03  0.17130000002E+03  0.17130000000E+03 0.  1.
      622    1    1    2    0    0  0.45316323734E-02  0.11473596172E-01  0.31020376429E+01  0.31023200539E+01  0.40000000000E-01 0.  1.
</event>
<event>
 5   0  0.7212170E+07  0.9118800E+02  0.7818608E-02  0.1180000E+00
       11   -1    0    0    0    0  0.00000000000E+00  0.00000000000E+00  0.39999999673E+01  0.40000000000E+01  0.51109989000E-03 0. -1.
     -623   -1    0    0    0    0  0.00000000000E+00  0.00000000000E+00  0.12525980253E-10  0.17130000000E+03  0.17130000000E+03 0. -1.
       11    1    1    2    0    0 -0.40660849801E-02  0.33267760507E-01  0.86633544810E+00  0.86698364851E+00  0.51109989000E-03 0. -1.
     -623    1    1    2    0    0 -0.19068447374E-01  0.58870020656E-02  0.12348161887E-02  0.17130000117E+03  0.17130000000E+03 0. -1.
      622    1    1    2    0    0  0.23134532357E-01 -0.39154762573E-01  0.31324297036E+01  0.31330151851E+01  0.40000000000E-01 0. -1.
</event>
<event>
 5   0  0.7212170E+07  0.9118800E+02  0.7818608E-02  0.1180000E+00
       11   -1    0    0    0    0  0.00000000000E+00  0.00000000000E+00  0.39999999673E+01  0.40000000000E+01  0.51109989000E-03 0.  1.
     -623   -1    0    0    0    0  0.00000000000E+00  0.00000000000E+00  0.12525980253E-10  0.17130000000E+03  0.17130000000E+03 0.  1.
       11    1    1    2    0    0  0.71063669730E-03  0.57164099746E-03  0.25366944342E-01  0.25388479007E-01  0.51109989000E-03 0.  1.
     -623    1    1    2    0    0  0.20633365453E-04 -0.54645718754E-03  0.22285302666E-03  0.17130000000E+03  0.17130000000E+03 0.  1.
      622    1    1    2    0    0 -0.73127006276E-03 -0.25183809758E-04  0.39744101712E+01  0.39746115212E+01  0.40000000000E-01 0.  1.
</event>
<event>
 5   0  0.7212170E+07  0.9118800E+02  0.7818608E-02  0.1180000E+00
       11   -1    0    0    0    0  0.00000000000E+00  0.00000000000E+00  0.39999999673E+01  0.40000000000E+01  0.51109989000E-03 0. -1.
     -623   -1    0    0    0    0  0.00000000000E+00  0.00000000000E+00  0.12525980253E-10  0.17130000000E+03  0.17130000000E+03 0.  1.
       11    1    1    2    0    0 -0.37892734900E-03 -0.15993871952E-02  0.14807188560E-02  0.22705454772E-02  0.51109989000E-03 0. -1.
     -623    1    1    2    0    0 -0.37417999020E-02  0.92526180548E-02  0.99965615683E-03  0.17130000029E+03  0.17130000000E+03 0.  1.
      622    1    1    2    0    0  0.41207272514E-02 -0.76532308607E-02  0.39975195928E+01  0.39977291613E+01  0.40000000000E-01 0. -1.
</event>
<event>
 5   0  0.7212170E+07  0.9118800E+02  0.7818608E-02  0.1180000E+00
       11   -1    0    0    0    0  0.00000000000E+00  0.00000000000E+00  0.39999999673E+01  0.40000000000E+01  0.51109989000E-03 0.  1.
     -623   -1    0    0    0    0  0.00000000000E+00  0.00000000000E+00  0.12525980253E-10  0.17130000000E+03  0.17130000000E+03 0.  1.
       11    1    1    2    0    0 -0.21025223456E-04 -0.11087372902E-02  0.18859642731E-02  0.22467364723E-02  0.51109989000E-03 0.  1.
     -623    1    1    2    0    0  0.26868095563E-03  0.79690491041E-03  0.56087978417E-03  0.17130000000E+03  0.17130000000E+03 0.  1.
      622    1    1    2    0    0 -0.24765573217E-03  0.31183237986E-03  0.39975531232E+01  0.39977532604E+01  0.40000000000E-01 0.  1.
</event>
<event>
 5   0  0.7212170E+07  0.9118800E+02  0.7818608E-02  0.1180000E+00
       11   -1    0    0    0    0  0.00000000000E+00  0.00000000000E+00  0.39999999673E+01  0.40000000000E+01  0.51109989000E-03 0.  1.
     -623   -1    0    0    0    0  0.00000000000E+00  0.00000000000E+00  0.12525980253E-10  0.17130000000E+03  0.17130000000E+03 0.  1.
       11    1    1    2    0    0  0.84828968059E-02  0.29768785060E-01  0.54594254311E+00  0.54681958789E+00  0.51109989000E-03 0.  1.
     -623    1    1    2    0    0 -0.38357061934E-01  0.95497006993E-02  0.14663669368E-02  0.17130000457E+03  0.17130000000E+03 0.  1.
      622    1    1    2    0    0  0.29874165129E-01 -0.39318485759E-01  0.34525910574E+01  0.34531758453E+01  0.40000000000E-01 0.  1.
</event>
<event>
 5   0  0.7212170E+07  0.9118800E+02  0.7818608E-02  0.1180000E+00
       11   -1    0    0    0    0  0.00000000000E+00  0.00000000000E+00  0.39999999673E+01  0.40000000000E+01  0.51109989000E-03 0. -1.
     -623   -1    0    0    0    0  0.00000000000E+00  0.00000000000E+00  0.12525980253E-10  0.17130000000E+03  0.17130000000E+03 0.  1.
       11    1    1    2    0    0 -0.15682307356E-01 -0.46719548101E-01  0.25462861851E+01  0.25467630924E+01  0.51109989000E-03 0. -1.
     -623    1    1    2    0    0  0.87053442011E-02  0.12937137013E-01  0.14378098358E-02  0.17130000072E+03  0.17130000000E+03 0.  1.
      622    1    1    2    0    0  0.69769631547E-02  0.33782411087E-01  0.14522759724E+01  0.14532361919E+01  0.40000000000E-01 0.  0.
</event>
<event>
 5   0  0.7212170E+07  0.9118800E+02  0.7818608E-02  0.1180000E+00
       11   -1    0    0    0    0  0.00000000000E+00  0.00000000000E+00  0.39999999673E+01  0.40000000000E+01  0.51109989000E-03 0.  1.
     -623   -1    0    0    0    0  0.00000000000E+00  0.00000000000E+00  0.12525980253E-10  0.17130000000E+03  0.17130000000E+03 0.  1.
       11    1    1    2    0    0 -0.15318421912E-01  0.67381334634E-02  0.11236214360E+01  0.11237461675E+01  0.51109989000E-03 0.  1.
     -623    1    1    2    0    0  0.26784543427E-01 -0.33149808059E-02  0.42987307373E-03  0.17130000213E+03  0.17130000000E+03 0.  1.
      622    1    1    2    0    0 -0.11466121521E-01 -0.34231526568E-02  0.28759486591E+01  0.28762517066E+01  0.40000000000E-01 0.  1.
</event>
<event>
 5   0  0.7212170E+07  0.9118800E+02  0.7818608E-02  0.1180000E+00
       11   -1    0    0    0    0  0.00000000000E+00  0.00000000000E+00  0.39999999673E+01  0.40000000000E+01  0.51109989000E-03 0. -1.
     -623   -1    0    0    0    0  0.00000000000E+00  0.00000000000E+00  0.12525980253E-10  0.17130000000E+03  0.17130000000E+03 0. -1.
       11    1    1    2    0    0 -0.78194377179E-03 -0.76553719022E-03  0.15495367876E-01  0.15542365713E-01  0.51109989000E-03 0. -1.
     -623    1    1    2    0    0  0.13823798879E-03 -0.14037683418E-03  0.24790568800E-03  0.17130000000E+03  0.17130000000E+03 0. -1.
      622    1    1    2    0    0  0.64370578298E-03  0.90591402442E-03  0.39842566943E+01  0.39844576345E+01  0.40000000000E-01 0. -1.
</event>
<event>
 5   0  0.7212170E+07  0.9118800E+02  0.7818608E-02  0.1180000E+00
       11   -1    0    0    0    0  0.00000000000E+00  0.00000000000E+00  0.39999999673E+01  0.40000000000E+01  0.51109989000E-03 0.  1.
     -623   -1    0    0    0    0  0.00000000000E+00  0.00000000000E+00  0.12525980253E-10  0.17130000000E+03  0.17130000000E+03 0.  1.
       11    1    1    2    0    0  0.26618326896E-02 -0.15284754379E-01  0.26756929562E+00  0.26801921246E+00  0.51109989000E-03 0.  1.
     -623    1    1    2    0    0 -0.95621925755E-02  0.21458451960E-02  0.69404521234E-03  0.17130000028E+03  0.17130000000E+03 0.  1.
      622    1    1    2    0    0  0.69003598852E-02  0.13138909183E-01  0.37317366263E+01  0.37319805055E+01  0.40000000000E-01 0.  1.
</event>
<event>
 5   0  0.7212170E+07  0.9118800E+02  0.7818608E-02  0.1180000E+00
       11   -1    0    0    0    0  0.00000000000E+00  0.00000000000E+00  0.39999999673E+01  0.40000000000E+01  0.51109989000E-03 0. -1.
     -623   -1    0    0    0    0  0.00000000000E+00  0.00000000000E+00  0.12525980253E-10  0.17130000000E+03  0.17130000000E+03 0.  1.
       11    1    1    2    0    0  0.85027741675E-02 -0.35057374371E-02  0.15712547436E+00  0.15739524541E+00  0.51109989000E-03 0. -1.
     -623    1    1    2    0    0 -0.53168473105E-02  0.86202705204E-02  0.48296100930E-03  0.17130000030E+03  0.17130000000E+03 0.  1.
      622    1    1    2    0    0 -0.31859268569E-02 -0.51145330835E-02  0.38423915321E+01  0.38426044546E+01  0.40000000000E-01 0. -1.
</event>
<event>
 5   0  0.7212170E+07  0.9118800E+02  0.7818608E-02  0.1180000E+00
       11   -1    0    0    0    0  0.00000000000E+00  0.00000000000E+00  0.39999999673E+01  0.40000000000E+01  0.51109989000E-03 0. -1.
     -623   -1    0    0    0    0  0.00000000000E+00  0.00000000000E+00  0.12525980253E-10  0.17130000000E+03  0.17130000000E+03 0. -1.
       11    1    1    2    0    0 -0.24422226452E-03 -0.68435124395E-02  0.87910564241E+00  0.87913246161E+00  0.51109989000E-03 0. -1.
     -623    1    1    2    0    0  0.15460690461E-03 -0.67958900153E-03  0.29220729426E-03  0.17130000000E+03  0.17130000000E+03 0. -1.
      622    1    1    2    0    0  0.89615359947E-04  0.75231014408E-02  0.31206021166E+01  0.31208675357E+01  0.40000000000E-01 0. -1.
</event>
<event>
 5   0  0.7212170E+07  0.9118800E+02  0.7818608E-02  0.1180000E+00
       11   -1    0    0    0    0  0.00000000000E+00  0.00000000000E+00  0.39999999673E+01  0.40000000000E+01  0.51109989000E-03 0. -1.
     -623   -1    0    0    0    0  0.00000000000E+00  0.00000000000E+00  0.12525980253E-10  0.17130000000E+03  0.17130000000E+03 0. -1.
       11    1    1    2    0    0 -0.27969789094E-03 -0.28188845005E-02  0.87747538222E-01  0.87794738042E-01  0.51109989000E-03 0.  1.
     -623    1    1    2    0    0 -0.44834794261E-02  0.63990563348E-02  0.25637719284E-03  0.17130000018E+03  0.17130000000E+03 0. -1.
      622    1    1    2    0    0  0.47631773167E-02 -0.35801718339E-02  0.39119960517E+01  0.39122050833E+01  0.40000000000E-01 0. -1.
</event>
<event>
 5   0  0.7212170E+07  0.9118800E+02  0.7818608E-02  0.1180000E+00
       11   -1    0    0    0    0  0.00000000000E+00  0.00000000000E+00  0.39999999673E+01  0.40000000000E+01  0.51109989000E-03 0.  1.
     -623   -1    0    0    0    0  0.00000000000E+00  0.00000000000E+00  0.12525980253E-10  0.17130000000E+03  0.17130000000E+03 0.  1.
       11    1    1    2    0    0  0.61962337471E-03  0.14527544944E-03  0.90809855367E-03  0.12210258652E-02  0.51109989000E-03 0.  1.
     -623    1    1    2    0    0 -0.12076247350E-02 -0.18827211203E-02  0.51339682656E-03  0.17130000002E+03  0.17130000000E+03 0.  1.
      622    1    1    2    0    0  0.58800136052E-03  0.17374456712E-02  0.39985784726E+01  0.39987789594E+01  0.40000000000E-01 0.  1.
</event>
<event>
 5   0  0.7212170E+07  0.9118800E+02  0.7818608E-02  0.1180000E+00
       11   -1    0    0    0    0  0.00000000000E+00  0.00000000000E+00  0.39999999673E+01  0.40000000000E+01  0.51109989000E-03 0. -1.
     -623   -1    0    0    0    0  0.00000000000E+00  0.00000000000E+00  0.12525980253E-10  0.17130000000E+03  0.17130000000E+03 0.  1.
       11    1    1    2    0    0 -0.78547719289E-02 -0.15086925115E-01  0.51390082415E+00  0.51418248807E+00  0.51109989000E-03 0. -1.
     -623    1    1    2    0    0 -0.12847584991E-02  0.32623501651E-02  0.54321642720E-03  0.17130000004E+03  0.17130000000E+03 0.  1.
      622    1    1    2    0    0  0.91395304282E-02  0.11824574949E-01  0.34855559276E+01  0.34858174760E+01  0.40000000000E-01 0. -1.
</event>
<event>
 5   0  0.7212170E+07  0.9118800E+02  0.7818608E-02  0.1180000E+00
       11   -1    0    0    0    0  0.00000000000E+00  0.00000000000E+00  0.39999999673E+01  0.40000000000E+01  0.51109989000E-03 0. -1.
     -623   -1    0    0    0    0  0.00000000000E+00  0.00000000000E+00  0.12525980253E-10  0.17130000000E+03  0.17130000000E+03 0. -1.
       11    1    1    2    0    0  0.94870699252E-02  0.12428917847E-01  0.21302681621E+00  0.21360048723E+00  0.51109989000E-03 0. -1.
     -623    1    1    2    0    0  0.68194192612E-02  0.24471107985E-02  0.84942149059E-03  0.17130000016E+03  0.17130000000E+03 0. -1.
      622    1    1    2    0    0 -0.16306489187E-01 -0.14876028646E-01  0.37861237300E+01  0.37863993578E+01  0.40000000000E-01 0. -1.
</event>
<event>
 5   0  0.7212170E+07  0.9118800E+02  0.7818608E-02  0.1180000E+00
       11   -1    0    0    0    0  0.00000000000E+00  0.00000000000E+00  0.39999999673E+01  0.40000000000E+01  0.51109989000E-03 0. -1.
     -623   -1    0    0    0    0  0.00000000000E+00  0.00000000000E+00  0.12525980253E-10  0.17130000000E+03  0.17130000000E+03 0.  1.
       11    1    1    2    0    0 -0.47782403013E-03  0.14329687216E-02  0.58348750011E-02  0.60488597717E-02  0.51109989000E-03 0. -1.
     -623    1    1    2    0    0  0.22575454087E-02 -0.36879011109E-02  0.41534826515E-03  0.17130000006E+03  0.17130000000E+03 0.  1.
      622    1    1    2    0    0 -0.17797213788E-02  0.22549323896E-02  0.39937497444E+01  0.39939510855E+01  0.40000000000E-01 0. -1.
</event>
<event>
 5   0  0.7212170E+07  0.9118800E+02  0.7818608E-02  0.1180000E+00
       11   -1    0    0    0    0  0.00000000000E+00  0.00000000000E+00  0.39999999673E+01  0.40000000000E+01  0.51109989000E-03 0.  1.
     -623   -1    0    0    0    0  0.00000000000E+00  0.00000000000E+00  0.12525980253E-10  0.17130000000E+03  0.17130000000E+03 0.  1.
       11    1    1    2    0    0 -0.44332541885E-02  0.16965553054E-02  0.39841869685E-01  0.40126896786E-01  0.51109989000E-03 0.  1.
     -623    1    1    2    0    0  0.34023499838E-02  0.68263251332E-02  0.49650344734E-03  0.17130000017E+03  0.17130000000E+03 0.  1.
      622    1    1    2    0    0  0.10309042050E-02 -0.85228804379E-02  0.39596615938E+01  0.39598729323E+01  0.40000000000E-01 0.  1.
</event>
<event>
 5   0  0.7212170E+07  0.9118800E+02  0.7818608E-02  0.1180000E+00
       11   -1    0    0    0    0  0.00000000000E+00  0.00000000000E+00  0.39999999673E+01  0.40000000000E+01  0.51109989000E-03 0.  1.
     -623   -1    0    0    0    0  0.00000000000E+00  0.00000000000E+00  0.12525980253E-10  0.17130000000E+03  0.17130000000E+03 0.  1.
       11    1    1    2    0    0  0.10020238317E-02 -0.30978204238E-03  0.27918467286E-02  0.30258301219E-02  0.51109989000E-03 0.  1.
     -623    1    1    2    0    0 -0.28529910729E-03  0.46367346136E-03  0.43417581257E-03  0.17130000000E+03  0.17130000000E+03 0.  1.
      622    1    1    2    0    0 -0.71672472439E-03 -0.15389141899E-03  0.39967739449E+01  0.39969741686E+01  0.40000000000E-01 0.  1.
</event>
<event>
 5   0  0.7212170E+07  0.9118800E+02  0.7818608E-02  0.1180000E+00
       11   -1    0    0    0    0  0.00000000000E+00  0.00000000000E+00  0.39999999673E+01  0.40000000000E+01  0.51109989000E-03 0. -1.
     -623   -1    0    0    0    0  0.00000000000E+00  0.00000000000E+00  0.12525980253E-10  0.17130000000E+03  0.17130000000E+03 0. -1.
       11    1    1    2    0    0 -0.48165118077E-02 -0.23891332684E-02  0.85673765138E-01  0.85843823306E-01  0.51109989000E-03 0. -1.
     -623    1    1    2    0    0  0.10378755254E-02  0.30610061550E-02  0.37632976541E-03  0.17130000003E+03  0.17130000000E+03 0. -1.
      622    1    1    2    0    0  0.37786362820E-02 -0.67187288736E-03  0.39139498735E+01  0.39141561468E+01  0.40000000000E-01 0. -1.
</event>
<event>
 5   0  0.7212170E+07  0.9118800E+02  0.7818608E-02  0.1180000E+00
       11   -1    0    0    0    0  0.00000000000E+00  0.00000000000E+00  0.39999999673E+01  0.40000000000E+01  0.51109989000E-03 0.  1.
     -623   -1    0    0    0    0  0.00000000000E+00  0.00000000000E+00  0.12525980253E-10  0.17130000000E+03  0.17130000000E+03 0. -1.
       11    1    1    2    0    0  0.67247098061E-02 -0.94138467478E-02  0.19319343085E+01  0.19319690152E+01  0.51109989000E-03 0.  1.
     -623    1    1    2    0    0 -0.14221697395E-02  0.48262781450E-04  0.44956877371E-03  0.17130000001E+03  0.17130000000E+03 0. -1.
      622    1    1    2    0    0 -0.53025400663E-02  0.93655839663E-02  0.20676160909E+01  0.20680309791E+01  0.40000000000E-01 0.  1.
</event>
<event>
 5   0  0.7212170E+07  0.9118800E+02  0.7818608E-02  0.1180000E+00
       11   -1    0    0    0    0  0.00000000000E+00  0.00000000000E+00  0.39999999673E+01  0.40000000000E+01  0.51109989000E-03 0. -1.
     -623   -1    0    0    0    0  0.00000000000E+00  0.00000000000E+00  0.12525980253E-10  0.17130000000E+03  0.17130000000E+03 0. -1.
       11    1    1    2    0    0 -0.46631379059E-03 -0.28531088947E-03  0.92451445441E-02  0.92753852531E-02  0.51109989000E-03 0. -1.
     -623    1    1    2    0    0  0.88323291349E-04 -0.14252305827E-03  0.23071902522E-03  0.17130000000E+03  0.17130000000E+03 0. -1.
      622    1    1    2    0    0  0.37799049922E-03  0.42783394776E-03  0.39905241045E+01  0.39907246152E+01  0.40000000000E-01 0. -1.
</event>
<event>
 5   0  0.7212170E+07  0.9118800E+02  0.7818608E-02  0.1180000E+00
       11   -1    0    0    0    0  0.00000000000E+00  0.00000000000E+00  0.39999999673E+01  0.40000000000E+01  0.51109989000E-03 0. -1.
     -623   -1    0    0    0    0  0.00000000000E+00  0.00000000000E+00  0.12525980253E-10  0.17130000000E+03  0.17130000000E+03 0. -1.
       11    1    1    2    0    0  0.21954703208E-01  0.12849561600E-01  0.38039364819E+00  0.38124363474E+00  0.51109989000E-03 0. -1.
     -623    1    1    2    0    0 -0.61153390835E-03  0.56338138425E-03  0.11588412877E-02  0.17130000001E+03  0.17130000000E+03 0. -1.
      622    1    1    2    0    0 -0.21343169299E-01 -0.13412942984E-01  0.36184474778E+01  0.36187563592E+01  0.40000000000E-01 0. -1.
</event>
<event>
 5   0  0.7212170E+07  0.9118800E+02  0.7818608E-02  0.1180000E+00
       11   -1    0    0    0    0  0.00000000000E+00  0.00000000000E+00  0.39999999673E+01  0.40000000000E+01  0.51109989000E-03 0. -1.
     -623   -1    0    0    0    0  0.00000000000E+00  0.00000000000E+00  0.12525980253E-10  0.17130000000E+03  0.17130000000E+03 0. -1.
       11    1    1    2    0    0  0.69693616183E-02  0.92560755123E-02  0.38945220863E+00  0.38962485928E+00  0.51109989000E-03 0. -1.
     -623    1    1    2    0    0 -0.99640767365E-03 -0.10053371025E-01  0.39953595215E-03  0.17130000030E+03  0.17130000000E+03 0. -1.
      622    1    1    2    0    0 -0.59729539447E-02  0.79729551183E-03  0.36101482224E+01  0.36103748419E+01  0.40000000000E-01 0. -1.
</event>
<event>
 5   0  0.7212170E+07  0.9118800E+02  0.7818608E-02  0.1180000E+00
       11   -1    0    0    0    0  0.00000000000E+00  0.00000000000E+00  0.39999999673E+01  0.40000000000E+01  0.51109989000E-03 0. -1.
     -623   -1    0    0    0    0  0.00000000000E+00  0.00000000000E+00  0.12525980253E-10  0.17130000000E+03  0.17130000000E+03 0. -1.
       11    1    1    2    0    0 -0.13515629572E-01 -0.13808508801E-02  0.25372595767E+00  0.25408994826E+00  0.51109989000E-03 0. -1.
     -623    1    1    2    0    0  0.71650981740E-03  0.27464630370E-02  0.59967130028E-03  0.17130000002E+03  0.17130000000E+03 0. -1.
      622    1    1    2    0    0  0.12799119755E-01 -0.13656121572E-02  0.37456743388E+01  0.37459100276E+01  0.40000000000E-01 0. -1.
</event>
<event>
 5   0  0.7212170E+07  0.9118800E+02  0.7818608E-02  0.1180000E+00
       11   -1    0    0    0    0  0.00000000000E+00  0.00000000000E+00  0.39999999673E+01  0.40000000000E+01  0.51109989000E-03 0.  1.
     -623   -1    0    0    0    0  0.00000000000E+00  0.00000000000E+00  0.12525980253E-10  0.17130000000E+03  0.17130000000E+03 0. -1.
       11    1    1    2    0    0 -0.60451148987E-03  0.45269447481E-05  0.95145312778E-03  0.12377159555E-02  0.51109989000E-03 0.  1.
     -623    1    1    2    0    0  0.63677769831E-03  0.68648849722E-03  0.48636018671E-03  0.17130000000E+03  0.17130000000E+03 0. -1.
      622    1    1    2    0    0 -0.32266208365E-04 -0.69101544189E-03  0.39985621536E+01  0.39987622803E+01  0.40000000000E-01 0.  1.
</event>
<event>
 5   0  0.7212170E+07  0.9118800E+02  0.7818608E-02  0.1180000E+00
       11   -1    0    0    0    0  0.00000000000E+00  0.00000000000E+00  0.39999999673E+01  0.40000000000E+01  0.51109989000E-03 0.  1.
     -623   -1    0    0    0    0  0.00000000000E+00  0.00000000000E+00  0.12525980253E-10  0.17130000000E+03  0.17130000000E+03 0.  1.
       11    1    1    2    0    0  0.43116524711E-01  0.28478054905E-01  0.37639399548E+01  0.37642946589E+01  0.51109989000E-03 0.  1.
     -623    1    1    2    0    0 -0.19235663939E-01 -0.20619947658E-01  0.51404769015E-02  0.17130000240E+03  0.17130000000E+03 0.  1.
      622    1    1    2    0    0 -0.23880860771E-01 -0.78581072467E-02  0.23091953570E+00  0.23570294298E+00  0.40000000000E-01 0. -1.
</event>
<event>
 5   0  0.7212170E+07  0.9118800E+02  0.7818608E-02  0.1180000E+00
       11   -1    0    0    0    0  0.00000000000E+00  0.00000000000E+00  0.39999999673E+01  0.40000000000E+01  0.51109989000E-03 0.  1.
     -623   -1    0    0    0    0  0.00000000000E+00  0.00000000000E+00  0.12525980253E-10  0.17130000000E+03  0.17130000000E+03 0.  1.
       11    1    1    2    0    0  0.16153065544E-01  0.41251155041E-02  0.22500641775E+01  0.22501259970E+01  0.51109989000E-03 0.  1.
     -623    1    1    2    0    0 -0.40343470915E-03 -0.79216774270E-03  0.59309746482E-03  0.17130000000E+03  0.17130000000E+03 0.  1.
      622    1    1    2    0    0 -0.15749630835E-01 -0.33329477613E-02  0.17493426925E+01  0.17498739998E+01  0.40000000000E-01 0.  1.
</event>
<event>
 5   0  0.7212170E+07  0.9118800E+02  0.7818608E-02  0.1180000E+00
       11   -1    0    0    0    0  0.00000000000E+00  0.00000000000E+00  0.39999999673E+01  0.40000000000E+01  0.51109989000E-03 0.  1.
     -623   -1    0    0    0    0  0.00000000000E+00  0.00000000000E+00  0.12525980253E-10  0.17130000000E+03  0.17130000000E+03 0.  1.
       11    1    1    2    0    0  0.32975397649E-02 -0.65600358292E-02  0.19522422425E+00  0.19536291049E+00  0.51109989000E-03 0.  1.
     -623    1    1    2    0    0 -0.63286924464E-02  0.14644841740E-01  0.35947054536E-03  0.17130000074E+03  0.17130000000E+03 0.  1.
      622    1    1    2    0    0  0.30311526813E-02 -0.80848059106E-02  0.38044162724E+01  0.38046363461E+01  0.40000000000E-01 0.  1.
</event>
<event>
 5   0  0.7212170E+07  0.9118800E+02  0.7818608E-02  0.1180000E+00
       11   -1    0    0    0    0  0.00000000000E+00  0.00000000000E+00  0.39999999673E+01  0.40000000000E+01  0.51109989000E-03 0.  1.
     -623   -1    0    0    0    0  0.00000000000E+00  0.00000000000E+00  0.12525980253E-10  0.17130000000E+03  0.17130000000E+03 0.  1.
       11    1    1    2    0    0 -0.43019345142E-02  0.24330287153E-02  0.62137181486E-02  0.79559905493E-02  0.51109989000E-03 0.  1.
     -623    1    1    2    0    0 -0.20465870761E-01 -0.13670092580E-01  0.20370781225E-02  0.17130000178E+03  0.17130000000E+03 0.  1.
      622    1    1    2    0    0  0.24767805276E-01  0.11237063865E-01  0.39917491714E+01  0.39920422296E+01  0.40000000000E-01 0.  1.
</event>
<event>
 5   0  0.7212170E+07  0.9118800E+02  0.7818608E-02  0.1180000E+00
       11   -1    0    0    0    0  0.00000000000E+00  0.00000000000E+00  0.39999999673E+01  0.40000000000E+01  0.51109989000E-03 0.  1.
     -623   -1    0    0    0    0  0.00000000000E+00  0.00000000000E+00  0.12525980253E-10  0.17130000000E+03  0.17130000000E+03 0.  1.
       11    1    1    2    0    0 -0.17281078185E-01 -0.21063898333E-01  0.18183160225E+01  0.18185202068E+01  0.51109989000E-03 0.  1.
     -623    1    1    2    0    0 -0.61856178029E-03  0.69086673138E-03  0.73951345203E-03  0.17130000000E+03  0.17130000000E+03 0.  1.
      622    1    1    2    0    0  0.17899639965E-01  0.20373031602E-01  0.21809444311E+01  0.21814797888E+01  0.40000000000E-01 0.  1.
</event>
<event>
 5   0  0.7212170E+07  0.9118800E+02  0.7818608E-02  0.1180000E+00
       11   -1    0    0    0    0  0.00000000000E+00  0.00000000000E+00  0.39999999673E+01  0.40000000000E+01  0.51109989000E-03 0. -1.
     -623   -1    0    0    0    0  0.00000000000E+00  0.00000000000E+00  0.12525980253E-10  0.17130000000E+03  0.17130000000E+03 0. -1.
       11    1    1    2    0    0  0.15039305282E-02 -0.64711232053E-03  0.19501693989E-02  0.25971032269E-02  0.51109989000E-03 0. -1.
     -623    1    1    2    0    0  0.26078338324E-03  0.60735759118E-03  0.84742925599E-03  0.17130000000E+03  0.17130000000E+03 0. -1.
      622    1    1    2    0    0 -0.17647139115E-02  0.39754729366E-04  0.39972023686E+01  0.39974028933E+01  0.40000000000E-01 0. -1.
</event>
<event>
 5   0  0.7212170E+07  0.9118800E+02  0.7818608E-02  0.1180000E+00
       11   -1    0    0    0    0  0.00000000000E+00  0.00000000000E+00  0.39999999673E+01  0.40000000000E+01  0.51109989000E-03 0.  1.
     -623   -1    0    0    0    0  0.00000000000E+00  0.00000000000E+00  0.12525980253E-10  0.17130000000E+03  0.17130000000E+03 0.  1.
       11    1    1    2    0    0 -0.27757861599E-02 -0.24524256786E-01  0.19918473292E+00  0.20070865256E+00  0.51109989000E-03 0.  1.
     -623    1    1    2    0    0  0.27105210063E-02 -0.44158692060E-03  0.18165236366E-02  0.17130000003E+03  0.17130000000E+03 0.  1.
      622    1    1    2    0    0  0.65265153570E-04  0.24965843707E-01  0.37989987109E+01  0.37992913159E+01  0.40000000000E-01 0.  1.
</event>
<event>
 5   0  0.7212170E+07  0.9118800E+02  0.7818608E-02  0.1180000E+00
       11   -1    0    0    0    0  0.00000000000E+00  0.00000000000E+00  0.39999999673E+01  0.40000000000E+01  0.51109989000E-03 0.  1.
     -623   -1    0    0    0    0  0.00000000000E+00  0.00000000000E+00  0.12525980253E-10  0.17130000000E+03  0.17130000000E+03 0.  1.
       11    1    1    2    0    0 -0.62652832485E-02  0.51458989310E-02  0.52977782107E+00  0.52984010321E+00  0.51109989000E-03 0.  1.
     -623    1    1    2    0    0 -0.27774119605E-02  0.68655833378E-03  0.30950277413E-03  0.17130000002E+03  0.17130000000E+03 0.  1.
      622    1    1    2    0    0  0.90426952099E-02 -0.58324572650E-02  0.34699126448E+01  0.34701598739E+01  0.40000000000E-01 0.  1.
</event>
<event>
 5   0  0.7212170E+07  0.9118800E+02  0.7818608E-02  0.1180000E+00
       11   -1    0    0    0    0  0.00000000000E+00  0.00000000000E+00  0.39999999673E+01  0.40000000000E+01  0.51109989000E-03 0.  1.
     -623   -1    0    0    0    0  0.00000000000E+00  0.00000000000E+00  0.12525980253E-10  0.17130000000E+03  0.17130000000E+03 0.  1.
       11    1    1    2    0    0 -0.39769607654E-02  0.81404073245E-03  0.14803952748E-01  0.15358942649E-01  0.51109989000E-03 0.  1.
     -623    1    1    2    0    0  0.80068488698E-02 -0.99887676039E-02  0.76881432292E-03  0.17130000048E+03  0.17130000000E+03 0.  1.
      622    1    1    2    0    0 -0.40298881047E-02  0.91747268719E-02  0.39844272004E+01  0.39846405774E+01  0.40000000000E-01 0.  1.
</event>
<event>
 5   0  0.7212170E+07  0.9118800E+02  0.7818608E-02  0.1180000E+00
       11   -1    0    0    0    0  0.00000000000E+00  0.00000000000E+00  0.39999999673E+01  0.40000000000E+01  0.51109989000E-03 0. -1.
     -623   -1    0    0    0    0  0.00000000000E+00  0.00000000000E+00  0.12525980253E-10  0.17130000000E+03  0.17130000000E+03 0.  1.
       11    1    1    2    0    0 -0.21348748014E-02 -0.84998235585E-02  0.28931935718E+01  0.28932068903E+01  0.51109989000E-03 0. -1.
     -623    1    1    2    0    0 -0.12453502969E-01 -0.57230605565E-01  0.27975809496E-02  0.17130001004E+03  0.17130000000E+03 0.  1.
      622    1    1    2    0    0  0.14588377771E-01  0.65730429127E-01  0.11040088148E+01  0.11067830742E+01  0.40000000000E-01 0. -1.
</event>
<event>
 5   0  0.7212170E+07  0.9118800E+02  0.7818608E-02  0.1180000E+00
       11   -1    0    0    0    0  0.00000000000E+00  0.00000000000E+00  0.39999999673E+01  0.40000000000E+01  0.51109989000E-03 0.  1.
     -623   -1    0    0    0    0  0.00000000000E+00  0.00000000000E+00  0.12525980253E-10  0.17130000000E+03  0.17130000000E+03 0. -1.
       11    1    1    2    0    0 -0.80017889117E-02  0.26138121196E-02  0.23465826234E-01  0.24935253428E-01  0.51109989000E-03 0.  1.
     -623    1    1    2    0    0 -0.49192069406E-02 -0.28504154405E-02  0.16917650268E-02  0.17130000010E+03  0.17130000000E+03 0. -1.
      622    1    1    2    0    0  0.12920995852E-01  0.23660332092E-03  0.39748423761E+01  0.39750646438E+01  0.40000000000E-01 0.  1.
</event>
<event>
 5   0  0.7212170E+07  0.9118800E+02  0.7818608E-02  0.1180000E+00
       11   -1    0    0    0    0  0.00000000000E+00  0.00000000000E+00  0.39999999673E+01  0.40000000000E+01  0.51109989000E-03 0. -1.
     -623   -1    0    0    0    0  0.00000000000E+00  0.00000000000E+00  0.12525980253E-10  0.17130000000E+03  0.17130000000E+03 0.  1.
       11    1    1    2    0    0 -0.23737614664E-01  0.30204093499E-01  0.36147947298E+00  0.36351538100E+00  0.51109989000E-03 0. -1.
     -623    1    1    2    0    0 -0.22715250458E-01 -0.16843668105E-01  0.25795024380E-02  0.17130000235E+03  0.17130000000E+03 0.  1.
      622    1    1    2    0    0  0.46452865122E-01 -0.13360425393E-01  0.36359409920E+01  0.36364822655E+01  0.40000000000E-01 0. -1.
</event>
<event>
 5   0  0.7212170E+07  0.9118800E+02  0.7818608E-02  0.1180000E+00
       11   -1    0    0    0    0  0.00000000000E+00  0.00000000000E+00  0.39999999673E+01  0.40000000000E+01  0.51109989000E-03 0.  1.
     -623   -1    0    0    0    0  0.00000000000E+00  0.00000000000E+00  0.12525980253E-10  0.17130000000E+03  0.17130000000E+03 0.  1.
       11    1    1    2    0    0 -0.11149885492E-02  0.64649778455E-02  0.13735123301E+00  0.13750876907E+00  0.51109989000E-03 0.  1.
     -623    1    1    2    0    0 -0.52229341496E-02 -0.46542154611E-02  0.37039711285E-03  0.17130000014E+03  0.17130000000E+03 0.  1.
      622    1    1    2    0    0  0.63379226989E-02 -0.18107623844E-02  0.38622783373E+01  0.38624910878E+01  0.40000000000E-01 0.  1.
</event>
<event>
 5   0  0.7212170E+07  0.9118800E+02  0.7818608E-02  0.1180000E+00
       11   -1    0    0    0    0  0.00000000000E+00  0.00000000000E+00  0.39999999673E+01  0.40000000000E+01  0.51109989000E-03 0.  1.
     -623   -1    0    0    0    0  0.00000000000E+00  0.00000000000E+00  0.12525980253E-10  0.17130000000E+03  0.17130000000E+03 0.  1.
       11    1    1    2    0    0 -0.10569447170E-01 -0.30727711214E-01  0.21287046020E+01  0.21289526649E+01  0.51109989000E-03 0.  1.
     -623    1    1    2    0    0  0.28573288899E-02  0.82492462602E-03  0.93059590392E-03  0.17130000003E+03  0.17130000000E+03 0.  1.
      622    1    1    2    0    0  0.77121182804E-02  0.29902786588E-01  0.18703647694E+01  0.18710473068E+01  0.40000000000E-01 0.  1.
</event>
<event>
 5   0  0.7212170E+07  0.9118800E+02  0.7818608E-02  0.1180000E+00
       11   -1    0    0    0    0  0.00000000000E+00  0.00000000000E+00  0.39999999673E+01  0.40000000000E+01  0.51109989000E-03 0.  1.
     -623   -1    0    0    0    0  0.00000000000E+00  0.00000000000E+00  0.12525980253E-10  0.17130000000E+03  0.17130000000E+03 0.  1.
       11    1    1    2    0    0  0.11441508827E-02  0.54268055832E-03  0.21860503604E-02  0.25775225909E-02  0.51109989000E-03 0.  1.
     -623    1    1    2    0    0 -0.12442591079E-02  0.73222591870E-03  0.59178523404E-03  0.17130000001E+03  0.17130000000E+03 0.  1.
      622    1    1    2    0    0  0.10010822526E-03 -0.12749064770E-02  0.39972221319E+01  0.39974224704E+01  0.40000000000E-01 0.  1.
</event>
<event>
 5   0  0.7212170E+07  0.9118800E+02  0.7818608E-02  0.1180000E+00
       11   -1    0    0    0    0  0.00000000000E+00  0.00000000000E+00  0.39999999673E+01  0.40000000000E+01  0.51109989000E-03 0.  1.
     -623   -1    0    0    0    0  0.00000000000E+00  0.00000000000E+00  0.12525980253E-10  0.17130000000E+03  0.17130000000E+03 0.  1.
       11    1    1    2    0    0  0.77865379804E-02  0.10563870404E-01  0.44411225417E+00  0.44430640447E+00  0.51109989000E-03 0.  1.
     -623    1    1    2    0    0 -0.84210454280E-02 -0.15033733740E-01  0.42284964392E-03  0.17130000087E+03  0.17130000000E+03 0.  1.
      622    1    1    2    0    0  0.63450745009E-03  0.44698633402E-02  0.35554648647E+01  0.35556927295E+01  0.40000000000E-01 0.  1.
</event>
<event>
 5   0  0.7212170E+07  0.9118800E+02  0.7818608E-02  0.1180000E+00
       11   -1    0    0    0    0  0.00000000000E+00  0.00000000000E+00  0.39999999673E+01  0.40000000000E+01  0.51109989000E-03 0. -1.
     -623   -1    0    0    0    0  0.00000000000E+00  0.00000000000E+00  0.12525980253E-10  0.17130000000E+03  0.17130000000E+03 0. -1.
       11    1    1    2    0    0  0.32551603288E-02 -0.61594543167E-02  0.31898814951E+00  0.31906462621E+00  0.51109989000E-03 0. -1.
     -623    1    1    2    0    0 -0.70567558415E-03 -0.13494574617E-03  0.30005330430E-03  0.17130000000E+03  0.17130000000E+03 0. -1.
      622    1    1    2    0    0 -0.25494847445E-02  0.62944000629E-02  0.36807117658E+01  0.36809353732E+01  0.40000000000E-01 0. -1.
</event>
<event>
 5   0  0.7212170E+07  0.9118800E+02  0.7818608E-02  0.1180000E+00
       11   -1    0    0    0    0  0.00000000000E+00  0.00000000000E+00  0.39999999673E+01  0.40000000000E+01  0.51109989000E-03 0.  1.
     -623   -1    0    0    0    0  0.00000000000E+00  0.00000000000E+00  0.12525980253E-10  0.17130000000E+03  0.17130000000E+03 0.  1.
       11    1    1    2    0    0  0.60980918845E-03  0.67945954253E-03  0.76010347672E-02  0.76727104172E-02  0.51109989000E-03 0.  1.
     -623    1    1    2    0    0  0.46168652488E-05 -0.22480502976E-03  0.27210594814E-03  0.17130000000E+03  0.17130000000E+03 0.  1.
      622    1    1    2    0    0 -0.61442605370E-03 -0.45465451269E-03  0.39921268281E+01  0.39923272907E+01  0.40000000000E-01 0.  1.
</event>
<event>
 5   0  0.7212170E+07  0.9118800E+02  0.7818608E-02  0.1180000E+00
       11   -1    0    0    0    0  0.00000000000E+00  0.00000000000E+00  0.39999999673E+01  0.40000000000E+01  0.51109989000E-03 0. -1.
     -623   -1    0    0    0    0  0.00000000000E+00  0.00000000000E+00  0.12525980253E-10  0.17130000000E+03  0.17130000000E+03 0.  1.
       11    1    1    2    0    0  0.37308189378E-02 -0.49920780086E-02  0.24297887409E+00  0.24305932266E+00  0.51109989000E-03 0. -1.
     -623    1    1    2    0    0  0.13859233229E-02  0.11019868243E-01  0.30204198463E-03  0.17130000036E+03  0.17130000000E+03 0.  1.
      622    1    1    2    0    0 -0.51167422606E-02 -0.60277902332E-02  0.37567190510E+01  0.37569403167E+01  0.40000000000E-01 0. -1.
</event>
<event>
 5   0  0.7212170E+07  0.9118800E+02  0.7818608E-02  0.1180000E+00
       11   -1    0    0    0    0  0.00000000000E+00  0.00000000000E+00  0.39999999673E+01  0.40000000000E+01  0.51109989000E-03 0. -1.
     -623   -1    0    0    0    0  0.00000000000E+00  0.00000000000E+00  0.12525980253E-10  0.17130000000E+03  0.17130000000E+03 0.  1.
       11    1    1    2    0    0 -0.19769738378E-01  0.20142025507E-01  0.17752388421E+01  0.17754632498E+01  0.51109989000E-03 0. -1.
     -623    1    1    2    0    0  0.17639585581E-02  0.17113890467E-02  0.76429814249E-03  0.17130000002E+03  0.17130000000E+03 0.  1.
      622    1    1    2    0    0  0.18005779820E-01 -0.21853414554E-01  0.22239968276E+01  0.22245367313E+01  0.40000000000E-01 0. -1.
</event>
<event>
 5   0  0.7212170E+07  0.9118800E+02  0.7818608E-02  0.1180000E+00
       11   -1    0    0    0    0  0.00000000000E+00  0.00000000000E+00  0.39999999673E+01  0.40000000000E+01  0.51109989000E-03 0. -1.
     -623   -1    0    0    0    0  0.00000000000E+00  0.00000000000E+00  0.12525980253E-10  0.17130000000E+03  0.17130000000E+03 0.  1.
       11    1    1    2    0    0 -0.32897431816E-02  0.59849186916E-02  0.13350745186E+01  0.13350920842E+01  0.51109989000E-03 0. -1.
     -623    1    1    2    0    0  0.74122271959E-03 -0.13966854960E-02  0.32292441896E-03  0.17130000001E+03  0.17130000000E+03 0.  1.
      622    1    1    2    0    0  0.25485204617E-02 -0.45882331951E-02  0.26646025260E+01  0.26649079099E+01  0.40000000000E-01 0. -1.
</event>
<event>
 5   0  0.7212170E+07  0.9118800E+02  0.7818608E-02  0.1180000E+00
       11   -1    0    0    0    0  0.00000000000E+00  0.00000000000E+00  0.39999999673E+01  0.40000000000E+01  0.51109989000E-03 0.  1.
     -623   -1    0    0    0    0  0.00000000000E+00  0.00000000000E+00  0.12525980253E-10  0.17130000000E+03  0.17130000000E+03 0. -1.
       11    1    1    2    0    0 -0.70577438304E-02  0.45271319280E-02  0.52770776991E-01  0.53435220584E-01  0.51109989000E-03 0.  1.
     -623    1    1    2    0    0 -0.25560425835E-02 -0.33035532562E-03  0.88108745308E-03  0.17130000002E+03  0.17130000000E+03 0. -1.
      622    1    1    2    0    0  0.96137864139E-02 -0.41967766024E-02  0.39463481029E+01  0.39465647577E+01  0.40000000000E-01 0.  1.
</event>
<event>
 5   0  0.7212170E+07  0.9118800E+02  0.7818608E-02  0.1180000E+00
       11   -1    0    0    0    0  0.00000000000E+00  0.00000000000E+00  0.39999999673E+01  0.40000000000E+01  0.51109989000E-03 0.  1.
     -623   -1    0    0    0    0  0.00000000000E+00  0.00000000000E+00  0.12525980253E-10  0.17130000000E+03  0.17130000000E+03 0.  1.
       11    1    1    2    0    0  0.70596274444E-02  0.13908615696E-01  0.30454004760E+00  0.30493964935E+00  0.51109989000E-03 0.  1.
     -623    1    1    2    0    0 -0.14160838136E-01 -0.12524492393E-01  0.62420834406E-03  0.17130000104E+03  0.17130000000E+03 0.  1.
      622    1    1    2    0    0  0.71012106916E-02 -0.13841233028E-02  0.36948357115E+01  0.36950593064E+01  0.40000000000E-01 0.  1.
</event>
<event>
 5   0  0.7212170E+07  0.9118800E+02  0.7818608E-02  0.1180000E+00
       11   -1    0    0    0    0  0.00000000000E+00  0.00000000000E+00  0.39999999673E+01  0.40000000000E+01  0.51109989000E-03 0. -1.
     -623   -1    0    0    0    0  0.00000000000E+00  0.00000000000E+00  0.12525980253E-10  0.17130000000E+03  0.17130000000E+03 0. -1.
       11    1    1    2    0    0 -0.16399631285E-02 -0.72738282780E-02  0.38078700080E+00  0.38086034089E+00  0.51109989000E-03 0. -1.
     -623    1    1    2    0    0  0.63556977706E-02 -0.12511456406E-02  0.30759748219E-03  0.17130000012E+03  0.17130000000E+03 0. -1.
      622    1    1    2    0    0 -0.47157346427E-02  0.85249739186E-02  0.36189053694E+01  0.36191395367E+01  0.40000000000E-01 0. -1.
</event>
<event>
 5   0  0.7212170E+07  0.9118800E+02  0.7818608E-02  0.1180000E+00
       11   -1    0    0    0    0  0.00000000000E+00  0.00000000000E+00  0.39999999673E+01  0.40000000000E+01  0.51109989000E-03 0.  1.
     -623   -1    0    0    0    0  0.00000000000E+00  0.00000000000E+00  0.12525980253E-10  0.17130000000E+03  0.17130000000E+03 0. -1.
       11    1    1    2    0    0 -0.24309415960E-03  0.51066969023E-02  0.19606656168E+00  0.19613387082E+00  0.51109989000E-03 0.  1.
     -623    1    1    2    0    0  0.81338367600E-03 -0.16493484263E-02  0.27921878864E-03  0.17130000001E+03  0.17130000000E+03 0. -1.
      622    1    1    2    0    0 -0.57028951617E-03 -0.34573484765E-02  0.38036541857E+01  0.38038661179E+01  0.40000000000E-01 0.  1.
</event>
<event>
 5   0  0.7212170E+07  0.9118800E+02  0.7818608E-02  0.1180000E+00
       11   -1    0    0    0    0  0.00000000000E+00  0.00000000000E+00  0.39999999673E+01  0.40000000000E+01  0.51109989000E-03 0. -1.
     -623   -1    0    0    0    0  0.00000000000E+00  0.00000000000E+00  0.12525980253E-10  0.17130000000E+03  0.17130000000E+03 0.  1.
       11    1    1    2    0    0  0.43418896868E-02  0.20458164735E-02  0.12316899518E+00  0.12326353868E+00  0.51109989000E-03 0. -1.
     -623    1    1    2    0    0 -0.18812603415E-02 -0.36333480630E-02  0.30203063219E-03  0.17130000005E+03  0.17130000000E+03 0.  1.
      622    1    1    2    0    0 -0.24606293453E-02  0.15875315896E-02  0.38765289416E+01  0.38767364123E+01  0.40000000000E-01 0. -1.
</event>
<event>
 5   0  0.7212170E+07  0.9118800E+02  0.7818608E-02  0.1180000E+00
       11   -1    0    0    0    0  0.00000000000E+00  0.00000000000E+00  0.39999999673E+01  0.40000000000E+01  0.51109989000E-03 0.  1.
     -623   -1    0    0    0    0  0.00000000000E+00  0.00000000000E+00  0.12525980253E-10  0.17130000000E+03  0.17130000000E+03 0.  1.
       11    1    1    2    0    0 -0.13019575260E-01 -0.11564412910E-01  0.10855658295E+01  0.10857056122E+01  0.51109989000E-03 0.  1.
     -623    1    1    2    0    0 -0.95711350556E-02  0.23255217064E-01  0.52713869583E-03  0.17130000185E+03  0.17130000000E+03 0.  1.
      622    1    1    2    0    0  0.22590710315E-01 -0.11690804153E-01  0.29139069989E+01  0.29142925408E+01  0.40000000000E-01 0.  0.
</event>
<event>
 5   0  0.7212170E+07  0.9118800E+02  0.7818608E-02  0.1180000E+00
       11   -1    0    0    0    0  0.00000000000E+00  0.00000000000E+00  0.39999999673E+01  0.40000000000E+01  0.51109989000E-03 0. -1.
     -623   -1    0    0    0    0  0.00000000000E+00  0.00000000000E+00  0.12525980253E-10  0.17130000000E+03  0.17130000000E+03 0. -1.
       11    1    1    2    0    0 -0.13140852644E-02  0.32355721352E-01  0.19014657732E+00  0.19288494398E+00  0.51109989000E-03 0. -1.
     -623    1    1    2    0    0  0.10267154963E-02  0.52276055684E-02  0.31341185881E-02  0.17130000011E+03  0.17130000000E+03 0. -1.
      622    1    1    2    0    0  0.28736976811E-03 -0.37583326920E-01  0.38067192715E+01  0.38071149445E+01  0.40000000000E-01 0. -1.
</event>
<event>
 5   0  0.7212170E+07  0.9118800E+02  0.7818608E-02  0.1180000E+00
       11   -1    0    0    0    0  0.00000000000E+00  0.00000000000E+00  0.39999999673E+01  0.40000000000E+01  0.51109989000E-03 0. -1.
     -623   -1    0    0    0    0  0.00000000000E+00  0.00000000000E+00  0.12525980253E-10  0.17130000000E+03  0.17130000000E+03 0. -1.
       11    1    1    2    0    0 -0.25199759036E-01 -0.20414882810E-02  0.54029681395E+00  0.54088825455E+00  0.51109989000E-03 0. -1.
     -623    1    1    2    0    0  0.57239409286E-01 -0.86252199527E-02  0.99731638806E-03  0.17130000978E+03  0.17130000000E+03 0. -1.
      622    1    1    2    0    0 -0.32039650268E-01  0.10666708237E-01  0.34587058383E+01  0.34591019635E+01  0.40000000000E-01 0. -1.
</event>
<event>
 5   0  0.7212170E+07  0.9118800E+02  0.7818608E-02  0.1180000E+00
       11   -1    0    0    0    0  0.00000000000E+00  0.00000000000E+00  0.39999999673E+01  0.40000000000E+01  0.51109989000E-03 0. -1.
     -623   -1    0    0    0    0  0.00000000000E+00  0.00000000000E+00  0.12525980253E-10  0.17130000000E+03  0.17130000000E+03 0.  1.
       11    1    1    2    0    0  0.29211158733E-02  0.37896785092E-02  0.14718134142E-01  0.15484807938E-01  0.51109989000E-03 0. -1.
     -623    1    1    2    0    0 -0.63132425638E-02  0.14998624261E-02  0.97250428887E-03  0.17130000013E+03  0.17130000000E+03 0.  1.
      622    1    1    2    0    0  0.33921266906E-02 -0.52895409354E-02  0.39843093290E+01  0.39845150664E+01  0.40000000000E-01 0. -1.
</event>
<event>
 5   0  0.7212170E+07  0.9118800E+02  0.7818608E-02  0.1180000E+00
       11   -1    0    0    0    0  0.00000000000E+00  0.00000000000E+00  0.39999999673E+01  0.40000000000E+01  0.51109989000E-03 0. -1.
     -623   -1    0    0    0    0  0.00000000000E+00  0.00000000000E+00  0.12525980253E-10  0.17130000000E+03  0.17130000000E+03 0. -1.
       11    1    1    2    0    0  0.20912946454E-01 -0.19734810051E-01  0.32407555586E+00  0.32534910663E+00  0.51109989000E-03 0. -1.
     -623    1    1    2    0    0  0.60238894666E-02  0.10163501791E-01  0.16028502244E-02  0.17130000041E+03  0.17130000000E+03 0. -1.
      622    1    1    2    0    0 -0.26936835920E-01  0.95713082601E-02  0.36743215612E+01  0.36746504784E+01  0.40000000000E-01 0. -1.
</event>
<event>
 5   0  0.7212170E+07  0.9118800E+02  0.7818608E-02  0.1180000E+00
       11   -1    0    0    0    0  0.00000000000E+00  0.00000000000E+00  0.39999999673E+01  0.40000000000E+01  0.51109989000E-03 0.  1.
     -623   -1    0    0    0    0  0.00000000000E+00  0.00000000000E+00  0.12525980253E-10  0.17130000000E+03  0.17130000000E+03 0.  1.
       11    1    1    2    0    0 -0.15614171483E-02 -0.11595255323E-03  0.32703014721E+00  0.32703429464E+00  0.51109989000E-03 0.  1.
     -623    1    1    2    0    0 -0.78506890477E-03  0.34705902720E-03  0.22268803925E-03  0.17130000000E+03  0.17130000000E+03 0.  1.
      622    1    1    2    0    0  0.23464860535E-02 -0.23110647416E-03  0.36727471344E+01  0.36729657053E+01  0.40000000000E-01 0.  1.
</event>
<event>
 5   0  0.7212170E+07  0.9118800E+02  0.7818608E-02  0.1180000E+00
       11   -1    0    0    0    0  0.00000000000E+00  0.00000000000E+00  0.39999999673E+01  0.40000000000E+01  0.51109989000E-03 0. -1.
     -623   -1    0    0    0    0  0.00000000000E+00  0.00000000000E+00  0.12525980253E-10  0.17130000000E+03  0.17130000000E+03 0.  1.
       11    1    1    2    0    0  0.59726108045E-03 -0.78162754481E-03  0.16165652550E-02  0.19601450810E-02  0.51109989000E-03 0. -1.
     -623    1    1    2    0    0 -0.15091958537E-02  0.36558805724E-03  0.54378380772E-03  0.17130000001E+03  0.17130000000E+03 0.  1.
      622    1    1    2    0    0  0.91193477308E-03  0.41603948761E-03  0.39978396178E+01  0.39980398465E+01  0.40000000000E-01 0. -1.
</event>
<event>
 5   0  0.7212170E+07  0.9118800E+02  0.7818608E-02  0.1180000E+00
       11   -1    0    0    0    0  0.00000000000E+00  0.00000000000E+00  0.39999999673E+01  0.40000000000E+01  0.51109989000E-03 0.  1.
     -623   -1    0    0    0    0  0.00000000000E+00  0.00000000000E+00  0.12525980253E-10  0.17130000000E+03  0.17130000000E+03 0.  1.
       11    1    1    2    0    0  0.23583400033E-01  0.53510552760E-02  0.57912041470E+00  0.57962533286E+00  0.51109989000E-03 0.  1.
     -623    1    1    2    0    0 -0.45954719655E-02  0.31088658325E-03  0.79624543759E-03  0.17130000006E+03  0.17130000000E+03 0.  1.
      622    1    1    2    0    0 -0.18987928068E-01 -0.56619418593E-02  0.34200833074E+01  0.34203746035E+01  0.40000000000E-01 0.  0.
</event>
<event>
 5   0  0.7212170E+07  0.9118800E+02  0.7818608E-02  0.1180000E+00
       11   -1    0    0    0    0  0.00000000000E+00  0.00000000000E+00  0.39999999673E+01  0.40000000000E+01  0.51109989000E-03 0.  1.
     -623   -1    0    0    0    0  0.00000000000E+00  0.00000000000E+00  0.12525980253E-10  0.17130000000E+03  0.17130000000E+03 0. -1.
       11    1    1    2    0    0 -0.37391540180E-03 -0.22353559119E-02  0.53757507203E-01  0.53807689344E-01  0.51109989000E-03 0.  1.
     -623    1    1    2    0    0  0.87870749661E-04 -0.13546376202E-03  0.25360462384E-03  0.17130000000E+03  0.17130000000E+03 0. -1.
      622    1    1    2    0    0  0.28604465210E-03  0.23708196740E-02  0.39459888572E+01  0.39461923120E+01  0.40000000000E-01 0.  1.
</event>
<event>
 5   0  0.7212170E+07  0.9118800E+02  0.7818608E-02  0.1180000E+00
       11   -1    0    0    0    0  0.00000000000E+00  0.00000000000E+00  0.39999999673E+01  0.40000000000E+01  0.51109989000E-03 0. -1.
     -623   -1    0    0    0    0  0.00000000000E+00  0.00000000000E+00  0.12525980253E-10  0.17130000000E+03  0.17130000000E+03 0.  1.
       11    1    1    2    0    0 -0.72095624114E-02 -0.19748667615E-02  0.17556035337E+01  0.17556195222E+01  0.51109989000E-03 0. -1.
     -623    1    1    2    0    0  0.11639613286E-02  0.21975845001E-02  0.38060318734E-03  0.17130000002E+03  0.17130000000E+03 0.  1.
      622    1    1    2    0    0  0.60456010825E-02 -0.22271773917E-03  0.22440158315E+01  0.22443804603E+01  0.40000000000E-01 0. -1.
</event>
<event>
 5   0  0.7212170E+07  0.9118800E+02  0.7818608E-02  0.1180000E+00
       11   -1    0    0    0    0  0.00000000000E+00  0.00000000000E+00  0.39999999673E+01  0.40000000000E+01  0.51109989000E-03 0.  1.
     -623   -1    0    0    0    0  0.00000000000E+00  0.00000000000E+00  0.12525980253E-10  0.17130000000E+03  0.17130000000E+03 0.  1.
       11    1    1    2    0    0 -0.53688427204E-02  0.12450351635E-01  0.19502994539E+01  0.19503466504E+01  0.51109989000E-03 0.  1.
     -623    1    1    2    0    0 -0.28183013522E-02  0.16433186166E-02  0.50236243237E-03  0.17130000003E+03  0.17130000000E+03 0.  1.
      622    1    1    2    0    0  0.81871440726E-02 -0.14093670251E-01  0.20491981510E+01  0.20496533178E+01  0.40000000000E-01 0.  0.
</event>
<event>
 5   0  0.7212170E+07  0.9118800E+02  0.7818608E-02  0.1180000E+00
       11   -1    0    0    0    0  0.00000000000E+00  0.00000000000E+00  0.39999999673E+01  0.40000000000E+01  0.51109989000E-03 0.  1.
     -623   -1    0    0    0    0  0.00000000000E+00  0.00000000000E+00  0.12525980253E-10  0.17130000000E+03  0.17130000000E+03 0.  1.
       11    1    1    2    0    0 -0.19149103903E-02 -0.84566160731E-02  0.12998094773E+01  0.12998384975E+01  0.51109989000E-03 0.  1.
     -623    1    1    2    0    0 -0.11420887370E-01  0.15967499871E-01  0.36979132944E-03  0.17130000113E+03  0.17130000000E+03 0.  1.
      622    1    1    2    0    0  0.13335797759E-01 -0.75108837964E-02  0.26998206983E+01  0.27001603767E+01  0.40000000000E-01 0.  0.
</event>
<event>
 5   0  0.7212170E+07  0.9118800E+02  0.7818608E-02  0.1180000E+00
       11   -1    0    0    0    0  0.00000000000E+00  0.00000000000E+00  0.39999999673E+01  0.40000000000E+01  0.51109989000E-03 0.  1.
     -623   -1    0    0    0    0  0.00000000000E+00  0.00000000000E+00  0.12525980253E-10  0.17130000000E+03  0.17130000000E+03 0. -1.
       11    1    1    2    0    0  0.25158051949E-03  0.25094718464E-02 -0.33836123283E-03  0.25954678051E-02  0.51109989000E-03 0.  1.
     -623    1    1    2    0    0  0.39534599347E-04  0.52237766362E-02  0.31415309593E-02  0.17130000011E+03  0.17130000000E+03 0. -1.
      622    1    1    2    0    0 -0.29111511884E-03 -0.77332484828E-02  0.39971967978E+01  0.39974044239E+01  0.40000000000E-01 0.  1.
</event>
<event>
 5   0  0.7212170E+07  0.9118800E+02  0.7818608E-02  0.1180000E+00
       11   -1    0    0    0    0  0.00000000000E+00  0.00000000000E+00  0.39999999673E+01  0.40000000000E+01  0.51109989000E-03 0.  1.
     -623   -1    0    0    0    0  0.00000000000E+00  0.00000000000E+00  0.12525980253E-10  0.17130000000E+03  0.17130000000E+03 0.  1.
       11    1    1    2    0    0  0.40215711114E-02 -0.45150523651E-02  0.71716488270E+00  0.71719055273E+00  0.51109989000E-03 0.  1.
     -623    1    1    2    0    0  0.59955827520E-03  0.10466229117E-03  0.27555707825E-03  0.17130000000E+03  0.17130000000E+03 0.  1.
      622    1    1    2    0    0 -0.46211293867E-02  0.44103900739E-02  0.32825595279E+01  0.32828094463E+01  0.40000000000E-01 0.  1.
</event>
<event>
 5   0  0.7212170E+07  0.9118800E+02  0.7818608E-02  0.1180000E+00
       11   -1    0    0    0    0  0.00000000000E+00  0.00000000000E+00  0.39999999673E+01  0.40000000000E+01  0.51109989000E-03 0.  1.
     -623   -1    0    0    0    0  0.00000000000E+00  0.00000000000E+00  0.12525980253E-10  0.17130000000E+03  0.17130000000E+03 0. -1.
       11    1    1    2    0    0  0.32101723844E-02 -0.35790636770E-02  0.47938791490E+00  0.47941229550E+00  0.51109989000E-03 0.  1.
     -623    1    1    2    0    0  0.55263687687E-03  0.12254164684E-02  0.25439332864E-03  0.17130000001E+03  0.17130000000E+03 0. -1.
      622    1    1    2    0    0 -0.37628092615E-02  0.23536472081E-02  0.35203576608E+01  0.35205877007E+01  0.40000000000E-01 0.  1.
</event>
<event>
 5   0  0.7212170E+07  0.9118800E+02  0.7818608E-02  0.1180000E+00
       11   -1    0    0    0    0  0.00000000000E+00  0.00000000000E+00  0.39999999673E+01  0.40000000000E+01  0.51109989000E-03 0.  1.
     -623   -1    0    0    0    0  0.00000000000E+00  0.00000000000E+00  0.12525980253E-10  0.17130000000E+03  0.17130000000E+03 0.  1.
       11    1    1    2    0    0 -0.87116466766E-03 -0.53341624010E-03  0.99527440150E-02  0.10018073532E-01  0.51109989000E-03 0.  1.
     -623    1    1    2    0    0 -0.58264337245E-05  0.51481425091E-03  0.26590148490E-03  0.17130000000E+03  0.17130000000E+03 0.  1.
      622    1    1    2    0    0  0.87699110138E-03  0.18601989144E-04  0.39897813223E+01  0.39899819259E+01  0.40000000000E-01 0.  1.
</event>
<event>
 5   0  0.7212170E+07  0.9118800E+02  0.7818608E-02  0.1180000E+00
       11   -1    0    0    0    0  0.00000000000E+00  0.00000000000E+00  0.39999999673E+01  0.40000000000E+01  0.51109989000E-03 0. -1.
     -623   -1    0    0    0    0  0.00000000000E+00  0.00000000000E+00  0.12525980253E-10  0.17130000000E+03  0.17130000000E+03 0.  1.
       11    1    1    2    0    0  0.29415861727E-01  0.28437914247E-02  0.14402776038E+01  0.14405808611E+01  0.51109989000E-03 0. -1.
     -623    1    1    2    0    0  0.69890830222E-02  0.95466673323E-02  0.90517950424E-03  0.17130000041E+03  0.17130000000E+03 0.  1.
      622    1    1    2    0    0 -0.36404944750E-01 -0.12390458757E-01  0.25588171841E+01  0.25594187280E+01  0.40000000000E-01 0. -1.
</event>
<event>
 5   0  0.7212170E+07  0.9118800E+02  0.7818608E-02  0.1180000E+00
       11   -1    0    0    0    0  0.00000000000E+00  0.00000000000E+00  0.39999999673E+01  0.40000000000E+01  0.51109989000E-03 0.  1.
     -623   -1    0    0    0    0  0.00000000000E+00  0.00000000000E+00  0.12525980253E-10  0.17130000000E+03  0.17130000000E+03 0. -1.
       11    1    1    2    0    0  0.25368818834E-03 -0.10409284066E-02  0.32234522232E-03  0.12300484480E-02  0.51109989000E-03 0.  1.
     -623    1    1    2    0    0 -0.20382709163E-02  0.15161600581E-02  0.11081860088E-02  0.17130000002E+03  0.17130000000E+03 0. -1.
      622    1    1    2    0    0  0.17845827279E-02 -0.47523165148E-03  0.39985694360E+01  0.39987699290E+01  0.40000000000E-01 0.  1.
</event>
<event>
 5   0  0.7212170E+07  0.9118800E+02  0.7818608E-02  0.1180000E+00
       11   -1    0    0    0    0  0.00000000000E+00  0.00000000000E+00  0.39999999673E+01  0.40000000000E+01  0.51109989000E-03 0.  1.
     -623   -1    0    0    0    0  0.00000000000E+00  0.00000000000E+00  0.12525980253E-10  0.17130000000E+03  0.17130000000E+03 0.  1.
       11    1    1    2    0    0 -0.50154422531E-03 -0.27299855307E-03  0.36891663896E-02  0.37679233761E-02  0.51109989000E-03 0.  1.
     -623    1    1    2    0    0  0.77769337464E-03  0.49385046867E-04  0.27893573255E-03  0.17130000000E+03  0.17130000000E+03 0.  1.
      622    1    1    2    0    0 -0.27614914930E-03  0.22361350621E-03  0.39960318651E+01  0.39962320745E+01  0.40000000000E-01 0.  1.
</event>
<event>
 5   0  0.7212170E+07  0.9118800E+02  0.7818608E-02  0.1180000E+00
       11   -1    0    0    0    0  0.00000000000E+00  0.00000000000E+00  0.39999999673E+01  0.40000000000E+01  0.51109989000E-03 0.  1.
     -623   -1    0    0    0    0  0.00000000000E+00  0.00000000000E+00  0.12525980253E-10  0.17130000000E+03  0.17130000000E+03 0.  1.
       11    1    1    2    0    0  0.10499633797E-01  0.34167138135E-01  0.18347748687E+01  0.18351230791E+01  0.51109989000E-03 0.  1.
     -623    1    1    2    0    0 -0.15356560958E-02 -0.65175982060E-02  0.91304739872E-03  0.17130000013E+03  0.17130000000E+03 0.  1.
      622    1    1    2    0    0 -0.89639777017E-02 -0.27649539929E-01  0.21643120513E+01  0.21648767876E+01  0.40000000000E-01 0.  0.
</event>
<event>
 5   0  0.7212170E+07  0.9118800E+02  0.7818608E-02  0.1180000E+00
       11   -1    0    0    0    0  0.00000000000E+00  0.00000000000E+00  0.39999999673E+01  0.40000000000E+01  0.51109989000E-03 0. -1.
     -623   -1    0    0    0    0  0.00000000000E+00  0.00000000000E+00  0.12525980253E-10  0.17130000000E+03  0.17130000000E+03 0.  1.
       11    1    1    2    0    0 -0.68642485062E-01 -0.44012858786E-01  0.36930353969E+01  0.36939355201E+01  0.51109989000E-03 0. -1.
     -623    1    1    2    0    0  0.19648787541E-02  0.31593685075E-01  0.11205695460E-01  0.17130000329E+03  0.17130000000E+03 0.  1.
      622    1    1    2    0    0  0.66677606308E-01  0.12419173711E-01  0.29575887498E+00  0.30606118863E+00  0.40000000000E-01 0.  1.
</event>
<event>
 5   0  0.7212170E+07  0.9118800E+02  0.7818608E-02  0.1180000E+00
       11   -1    0    0    0    0  0.00000000000E+00  0.00000000000E+00  0.39999999673E+01  0.40000000000E+01  0.51109989000E-03 0. -1.
     -623   -1    0    0    0    0  0.00000000000E+00  0.00000000000E+00  0.12525980253E-10  0.17130000000E+03  0.17130000000E+03 0. -1.
       11    1    1    2    0    0 -0.51701936294E-02 -0.52679422126E-01  0.34011109737E+00  0.34420585729E+00  0.51109989000E-03 0. -1.
     -623    1    1    2    0    0  0.55753351546E-02  0.69967071143E-02  0.45993356754E-02  0.17130000030E+03  0.17130000000E+03 0. -1.
      622    1    1    2    0    0 -0.40514152533E-03  0.45682715012E-01  0.36552895344E+01  0.36557938475E+01  0.40000000000E-01 0. -1.
</event>
<event>
 5   0  0.7212170E+07  0.9118800E+02  0.7818608E-02  0.1180000E+00
       11   -1    0    0    0    0  0.00000000000E+00  0.00000000000E+00  0.39999999673E+01  0.40000000000E+01  0.51109989000E-03 0.  1.
     -623   -1    0    0    0    0  0.00000000000E+00  0.00000000000E+00  0.12525980253E-10  0.17130000000E+03  0.17130000000E+03 0.  1.
       11    1    1    2    0    0  0.20678666243E-01 -0.18996521392E-01  0.12073319256E+01  0.12076585258E+01  0.51109989000E-03 0.  1.
     -623    1    1    2    0    0 -0.28227745076E-02 -0.14662122708E-03  0.73582967486E-03  0.17130000002E+03  0.17130000000E+03 0.  1.
      622    1    1    2    0    0 -0.17855891735E-01  0.19143142619E-01  0.27919322122E+01  0.27923414494E+01  0.40000000000E-01 0.  1.
</event>
<event>
 5   0  0.7212170E+07  0.9118800E+02  0.7818608E-02  0.1180000E+00
       11   -1    0    0    0    0  0.00000000000E+00  0.00000000000E+00  0.39999999673E+01  0.40000000000E+01  0.51109989000E-03 0. -1.
     -623   -1    0    0    0    0  0.00000000000E+00  0.00000000000E+00  0.12525980253E-10  0.17130000000E+03  0.17130000000E+03 0.  1.
       11    1    1    2    0    0 -0.12660302510E-01 -0.48397357661E-02  0.32020703746E+00  0.32049417212E+00  0.51109989000E-03 0. -1.
     -623    1    1    2    0    0  0.23520783420E-02  0.51699882632E-02  0.51907897672E-03  0.17130000009E+03  0.17130000000E+03 0.  1.
      622    1    1    2    0    0  0.10308224168E-01 -0.33025249715E-03  0.36792738510E+01  0.36795057330E+01  0.40000000000E-01 0. -1.
</event>
<event>
 5   0  0.7212170E+07  0.9118800E+02  0.7818608E-02  0.1180000E+00
       11   -1    0    0    0    0  0.00000000000E+00  0.00000000000E+00  0.39999999673E+01  0.40000000000E+01  0.51109989000E-03 0.  1.
     -623   -1    0    0    0    0  0.00000000000E+00  0.00000000000E+00  0.12525980253E-10  0.17130000000E+03  0.17130000000E+03 0. -1.
       11    1    1    2    0    0  0.13604587166E-02 -0.94411520265E-03  0.40655742435E-01  0.40692662944E-01  0.51109989000E-03 0.  1.
     -623    1    1    2    0    0  0.34440465064E-03  0.14980280204E-03  0.23939590223E-03  0.17130000000E+03  0.17130000000E+03 0. -1.
      622    1    1    2    0    0 -0.17048633673E-02  0.79431240055E-03  0.39591048304E+01  0.39593073379E+01  0.40000000000E-01 0.  1.
</event>
<event>
 5   0  0.7212170E+07  0.9118800E+02  0.7818608E-02  0.1180000E+00
       11   -1    0    0    0    0  0.00000000000E+00  0.00000000000E+00  0.39999999673E+01  0.40000000000E+01  0.51109989000E-03 0.  1.
     -623   -1    0    0    0    0  0.00000000000E+00  0.00000000000E+00  0.12525980253E-10  0.17130000000E+03  0.17130000000E+03 0. -1.
       11    1    1    2    0    0 -0.17610471912E-02  0.19588253537E-01  0.41581189111E+00  0.41627706035E+00  0.51109989000E-03 0.  1.
     -623    1    1    2    0    0 -0.50294517213E-02 -0.20795322325E-02  0.73767043883E-03  0.17130000009E+03  0.17130000000E+03 0. -1.
      622    1    1    2    0    0  0.67904989121E-02 -0.17508721305E-01  0.35834504055E+01  0.35837228513E+01  0.40000000000E-01 0.  1.
</event>
<event>
 5   0  0.7212170E+07  0.9118800E+02  0.7818608E-02  0.1180000E+00
       11   -1    0    0    0    0  0.00000000000E+00  0.00000000000E+00  0.39999999673E+01  0.40000000000E+01  0.51109989000E-03 0. -1.
     -623   -1    0    0    0    0  0.00000000000E+00  0.00000000000E+00  0.12525980253E-10  0.17130000000E+03  0.17130000000E+03 0. -1.
       11    1    1    2    0    0 -0.46368059831E-02 -0.88259091995E-03  0.23018583894E+00  0.23023479452E+00  0.51109989000E-03 0. -1.
     -623    1    1    2    0    0  0.30556740062E-02  0.29095686757E-03  0.26154945484E-03  0.17130000003E+03  0.17130000000E+03 0. -1.
      622    1    1    2    0    0  0.15811319776E-02  0.59163405245E-03  0.37695525781E+01  0.37697651769E+01  0.40000000000E-01 0. -1.
</event>
<event>
 5   0  0.7212170E+07  0.9118800E+02  0.7818608E-02  0.1180000E+00
       11   -1    0    0    0    0  0.00000000000E+00  0.00000000000E+00  0.39999999673E+01  0.40000000000E+01  0.51109989000E-03 0. -1.
     -623   -1    0    0    0    0  0.00000000000E+00  0.00000000000E+00  0.12525980253E-10  0.17130000000E+03  0.17130000000E+03 0. -1.
       11    1    1    2    0    0  0.18545887990E-02 -0.41214847727E-02  0.39545263293E-01  0.39805969507E-01  0.51109989000E-03 0. -1.
     -623    1    1    2    0    0  0.11203195494E-02  0.10381016872E-01  0.46907254534E-03  0.17130000032E+03  0.17130000000E+03 0. -1.
      622    1    1    2    0    0 -0.29749083483E-02 -0.62595320987E-02  0.39599856311E+01  0.39601937113E+01  0.40000000000E-01 0. -1.
</event>
<event>
 5   0  0.7212170E+07  0.9118800E+02  0.7818608E-02  0.1180000E+00
       11   -1    0    0    0    0  0.00000000000E+00  0.00000000000E+00  0.39999999673E+01  0.40000000000E+01  0.51109989000E-03 0. -1.
     -623   -1    0    0    0    0  0.00000000000E+00  0.00000000000E+00  0.12525980253E-10  0.17130000000E+03  0.17130000000E+03 0. -1.
       11    1    1    2    0    0 -0.11916227801E-02  0.78132267785E-03  0.14028755890E-01  0.14110196487E-01  0.51109989000E-03 0. -1.
     -623    1    1    2    0    0  0.10310300937E-02  0.13973475541E-03  0.28223406927E-03  0.17130000000E+03  0.17130000000E+03 0. -1.
      622    1    1    2    0    0  0.16059268603E-03 -0.92105743333E-03  0.39856889792E+01  0.39858898019E+01  0.40000000000E-01 0. -1.
</event>
<event>
 5   0  0.7212170E+07  0.9118800E+02  0.7818608E-02  0.1180000E+00
       11   -1    0    0    0    0  0.00000000000E+00  0.00000000000E+00  0.39999999673E+01  0.40000000000E+01  0.51109989000E-03 0. -1.
     -623   -1    0    0    0    0  0.00000000000E+00  0.00000000000E+00  0.12525980253E-10  0.17130000000E+03  0.17130000000E+03 0.  1.
       11    1    1    2    0    0 -0.59476627919E-03 -0.70367234857E-03  0.16844281221E-01  0.16877201624E-01  0.51109989000E-03 0. -1.
     -623    1    1    2    0    0  0.15672520111E-02  0.47600803844E-03  0.23387348286E-03  0.17130000001E+03  0.17130000000E+03 0.  1.
      622    1    1    2    0    0 -0.97248573235E-03  0.22766430999E-03  0.39829218139E+01  0.39831227916E+01  0.40000000000E-01 0. -1.
</event>
<event>
 5   0  0.7212170E+07  0.9118800E+02  0.7818608E-02  0.1180000E+00
       11   -1    0    0    0    0  0.00000000000E+00  0.00000000000E+00  0.39999999673E+01  0.40000000000E+01  0.51109989000E-03 0.  1.
     -623   -1    0    0    0    0  0.00000000000E+00  0.00000000000E+00  0.12525980253E-10  0.17130000000E+03  0.17130000000E+03 0. -1.
       11    1    1    2    0    0 -0.16479246884E-02  0.79812003063E-03  0.11443723348E+00  0.11445302216E+00  0.51109989000E-03 0.  1.
     -623    1    1    2    0    0  0.12944908307E-02 -0.93650067130E-02  0.23137452538E-03  0.17130000026E+03  0.17130000000E+03 0. -1.
      622    1    1    2    0    0  0.35343385796E-03  0.85668866804E-02  0.38853313585E+01  0.38855467160E+01  0.40000000000E-01 0.  1.
</event>
<event>
 5   0  0.7212170E+07  0.9118800E+02  0.7818608E-02  0.1180000E+00
       11   -1    0    0    0    0  0.00000000000E+00  0.00000000000E+00  0.39999999673E+01  0.40000000000E+01  0.51109989000E-03 0.  1.
     -623   -1    0    0    0    0  0.00000000000E+00  0.00000000000E+00  0.12525980253E-10  0.17130000000E+03  0.17130000000E+03 0. -1.
       11    1    1    2    0    0 -0.16860459017E-03 -0.25041580950E-02  0.45568036534E-01  0.45639965074E-01  0.51109989000E-03 0.  1.
     -623    1    1    2    0    0  0.72123079560E-02  0.25148564254E-01  0.34732125834E-03  0.17130000200E+03  0.17130000000E+03 0. -1.
      622    1    1    2    0    0 -0.70437033656E-02 -0.22644406158E-01  0.39540846094E+01  0.39543580366E+01  0.40000000000E-01 0.  1.
</event>
<event>
 5   0  0.7212170E+07  0.9118800E+02  0.7818608E-02  0.1180000E+00
       11   -1    0    0    0    0  0.00000000000E+00  0.00000000000E+00  0.39999999673E+01  0.40000000000E+01  0.51109989000E-03 0.  1.
     -623   -1    0    0    0    0  0.00000000000E+00  0.00000000000E+00  0.12525980253E-10  0.17130000000E+03  0.17130000000E+03 0.  1.
       11    1    1    2    0    0  0.27650636279E-02 -0.23290445648E-01  0.59242032349E+00  0.59288463577E+00  0.51109989000E-03 0.  1.
     -623    1    1    2    0    0  0.29476526744E-02  0.54905807857E-02  0.75049476778E-03  0.17130000011E+03  0.17130000000E+03 0.  1.
      622    1    1    2    0    0 -0.57127163022E-02  0.17799864863E-01  0.34068291490E+01  0.34071152491E+01  0.40000000000E-01 0.  0.
</event>
<event>
 5   0  0.7212170E+07  0.9118800E+02  0.7818608E-02  0.1180000E+00
       11   -1    0    0    0    0  0.00000000000E+00  0.00000000000E+00  0.39999999673E+01  0.40000000000E+01  0.51109989000E-03 0. -1.
     -623   -1    0    0    0    0  0.00000000000E+00  0.00000000000E+00  0.12525980253E-10  0.17130000000E+03  0.17130000000E+03 0.  1.
       11    1    1    2    0    0 -0.19837946760E-02 -0.64822683220E-02  0.37547367484E+00  0.37553521401E+00  0.51109989000E-03 0. -1.
     -623    1    1    2    0    0  0.13904334788E-02  0.25573165132E-02  0.28443434695E-03  0.17130000002E+03  0.17130000000E+03 0.  1.
      622    1    1    2    0    0  0.59336119727E-03  0.39249518089E-02  0.36242418579E+01  0.36244647608E+01  0.40000000000E-01 0.  0.
</event>
<event>
 5   0  0.7212170E+07  0.9118800E+02  0.7818608E-02  0.1180000E+00
       11   -1    0    0    0    0  0.00000000000E+00  0.00000000000E+00  0.39999999673E+01  0.40000000000E+01  0.51109989000E-03 0.  1.
     -623   -1    0    0    0    0  0.00000000000E+00  0.00000000000E+00  0.12525980253E-10  0.17130000000E+03  0.17130000000E+03 0. -1.
       11    1    1    2    0    0  0.13426850569E-01 -0.71220008941E-02  0.11631856622E+01  0.11632850679E+01  0.51109989000E-03 0.  1.
     -623    1    1    2    0    0  0.21686179171E-02  0.30536551207E-02  0.42723696181E-03  0.17130000004E+03  0.17130000000E+03 0. -1.
      622    1    1    2    0    0 -0.15595468486E-01  0.40683457736E-02  0.28363870680E+01  0.28367148904E+01  0.40000000000E-01 0.  1.
</event>
<event>
 5   0  0.7212170E+07  0.9118800E+02  0.7818608E-02  0.1180000E+00
       11   -1    0    0    0    0  0.00000000000E+00  0.00000000000E+00  0.39999999673E+01  0.40000000000E+01  0.51109989000E-03 0.  1.
     -623   -1    0    0    0    0  0.00000000000E+00  0.00000000000E+00  0.12525980253E-10  0.17130000000E+03  0.17130000000E+03 0. -1.
       11    1    1    2    0    0  0.19638058317E-01  0.57176200242E-02  0.18439107312E+01  0.18440242380E+01  0.51109989000E-03 0.  1.
     -623    1    1    2    0    0  0.99583594764E-03  0.60253446809E-02  0.61542344605E-03  0.17130000011E+03  0.17130000000E+03 0. -1.
      622    1    1    2    0    0 -0.20633894265E-01 -0.11742964706E-01  0.21554738134E+01  0.21559756527E+01  0.40000000000E-01 0. -1.
</event>
<event>
 5   0  0.7212170E+07  0.9118800E+02  0.7818608E-02  0.1180000E+00
       11   -1    0    0    0    0  0.00000000000E+00  0.00000000000E+00  0.39999999673E+01  0.40000000000E+01  0.51109989000E-03 0.  1.
     -623   -1    0    0    0    0  0.00000000000E+00  0.00000000000E+00  0.12525980253E-10  0.17130000000E+03  0.17130000000E+03 0. -1.
       11    1    1    2    0    0 -0.82578763067E-02 -0.16382098678E-02  0.26077503706E-01  0.27407547780E-01  0.51109989000E-03 0.  1.
     -623    1    1    2    0    0 -0.78445658565E-04  0.43605588556E-02  0.15411388307E-02  0.17130000006E+03  0.17130000000E+03 0. -1.
      622    1    1    2    0    0  0.83363219653E-02 -0.27223489879E-02  0.39723813249E+01  0.39725923898E+01  0.40000000000E-01 0.  1.
</event>
<event>
 5   0  0.7212170E+07  0.9118800E+02  0.7818608E-02  0.1180000E+00
       11   -1    0    0    0    0  0.00000000000E+00  0.00000000000E+00  0.39999999673E+01  0.40000000000E+01  0.51109989000E-03 0.  1.
     -623   -1    0    0    0    0  0.00000000000E+00  0.00000000000E+00  0.12525980253E-10  0.17130000000E+03  0.17130000000E+03 0.  1.
       11    1    1    2    0    0 -0.13477655985E-02  0.40118412521E-02  0.55491184129E-02  0.69975196033E-02  0.51109989000E-03 0.  1.
     -623    1    1    2    0    0  0.57316827944E-02 -0.66558881569E-02  0.16522393663E-02  0.17130000023E+03  0.17130000000E+03 0.  1.
      622    1    1    2    0    0 -0.43839171959E-02  0.26440469047E-02  0.39927986096E+01  0.39930022472E+01  0.40000000000E-01 0.  1.
</event>
<event>
 5   0  0.7212170E+07  0.9118800E+02  0.7818608E-02  0.1180000E+00
       11   -1    0    0    0    0  0.00000000000E+00  0.00000000000E+00  0.39999999673E+01  0.40000000000E+01  0.51109989000E-03 0.  1.
     -623   -1    0    0    0    0  0.00000000000E+00  0.00000000000E+00  0.12525980253E-10  0.17130000000E+03  0.17130000000E+03 0.  1.
       11    1    1    2    0    0  0.23011556458E-02  0.15010839598E-02  0.12293480958E-01  0.12607119716E-01  0.51109989000E-03 0.  1.
     -623    1    1    2    0    0 -0.13415146681E-02 -0.16515111746E-02  0.51437582264E-03  0.17130000001E+03  0.17130000000E+03 0.  1.
      622    1    1    2    0    0 -0.95964097767E-03  0.15042721472E-03  0.39871921105E+01  0.39873928662E+01  0.40000000000E-01 0.  1.
</event>
<event>
 5   0  0.7212170E+07  0.9118800E+02  0.7818608E-02  0.1180000E+00
       11   -1    0    0    0    0  0.00000000000E+00  0.00000000000E+00  0.39999999673E+01  0.40000000000E+01  0.51109989000E-03 0. -1.
     -623   -1    0    0    0    0  0.00000000000E+00  0.00000000000E+00  0.12525980253E-10  0.17130000000E+03  0.17130000000E+03 0. -1.
       11    1    1    2    0    0  0.33232427931E-01 -0.21645402273E-01  0.16156186826E+00  0.16635929852E+00  0.51109989000E-03 0. -1.
     -623    1    1    2    0    0 -0.22991609429E-01  0.12666347508E-02  0.50755520853E-02  0.17130000162E+03  0.17130000000E+03 0. -1.
      622    1    1    2    0    0 -0.10240818502E-01  0.20378767522E-01  0.38333625470E+01  0.38336390787E+01  0.40000000000E-01 0. -1.
</event>
<event>
 5   0  0.7212170E+07  0.9118800E+02  0.7818608E-02  0.1180000E+00
       11   -1    0    0    0    0  0.00000000000E+00  0.00000000000E+00  0.39999999673E+01  0.40000000000E+01  0.51109989000E-03 0. -1.
     -623   -1    0    0    0    0  0.00000000000E+00  0.00000000000E+00  0.12525980253E-10  0.17130000000E+03  0.17130000000E+03 0. -1.
       11    1    1    2    0    0 -0.33998313997E-01 -0.99987493235E-02  0.90646050469E-01  0.97328454377E-01  0.51109989000E-03 0. -1.
     -623    1    1    2    0    0 -0.16493589376E-01  0.42027846718E-02  0.72193241429E-02  0.17130000100E+03  0.17130000000E+03 0. -1.
      622    1    1    2    0    0  0.50491903373E-01  0.57959646517E-02  0.39021345927E+01  0.39026705479E+01  0.40000000000E-01 0. -1.
</event>
<event>
 5   0  0.7212170E+07  0.9118800E+02  0.7818608E-02  0.1180000E+00
       11   -1    0    0    0    0  0.00000000000E+00  0.00000000000E+00  0.39999999673E+01  0.40000000000E+01  0.51109989000E-03 0. -1.
     -623   -1    0    0    0    0  0.00000000000E+00  0.00000000000E+00  0.12525980253E-10  0.17130000000E+03  0.17130000000E+03 0.  1.
       11    1    1    2    0    0 -0.68472117283E-03  0.45630419191E-03  0.59996343939E-02  0.60773261026E-02  0.51109989000E-03 0. -1.
     -623    1    1    2    0    0  0.10841671874E-03  0.31412984676E-03  0.27808486229E-03  0.17130000000E+03  0.17130000000E+03 0.  1.
      622    1    1    2    0    0  0.57630445407E-03 -0.77043403871E-03  0.39937222486E+01  0.39939226738E+01  0.40000000000E-01 0. -1.
</event>
<event>
 5   0  0.7212170E+07  0.9118800E+02  0.7818608E-02  0.1180000E+00
       11   -1    0    0    0    0  0.00000000000E+00  0.00000000000E+00  0.39999999673E+01  0.40000000000E+01  0.51109989000E-03 0.  1.
     -623   -1    0    0    0    0  0.00000000000E+00  0.00000000000E+00  0.12525980253E-10  0.17130000000E+03  0.17130000000E+03 0.  1.
       11    1    1    2    0    0 -0.33584443948E-02  0.47976090529E-01  0.14202942927E+01  0.14211084137E+01  0.51109989000E-03 0.  1.
     -623    1    1    2    0    0  0.26525160806E-02 -0.19325399296E-02  0.15355659751E-02  0.17130000004E+03  0.17130000000E+03 0.  1.
      622    1    1    2    0    0  0.70592831418E-03 -0.46043550599E-01  0.25781701088E+01  0.25788915480E+01  0.40000000000E-01 0.  1.
</event>
<event>
 5   0  0.7212170E+07  0.9118800E+02  0.7818608E-02  0.1180000E+00
       11   -1    0    0    0    0  0.00000000000E+00  0.00000000000E+00  0.39999999673E+01  0.40000000000E+01  0.51109989000E-03 0.  1.
     -623   -1    0    0    0    0  0.00000000000E+00  0.00000000000E+00  0.12525980253E-10  0.17130000000E+03  0.17130000000E+03 0. -1.
       11    1    1    2    0    0 -0.41721042214E-03  0.20814153097E-02  0.10138764726E+00  0.10141115616E+00  0.51109989000E-03 0.  1.
     -623    1    1    2    0    0 -0.59240208550E-03 -0.97810234777E-03  0.22897495253E-03  0.17130000000E+03  0.17130000000E+03 0. -1.
      622    1    1    2    0    0  0.10096125075E-02 -0.11033129621E-02  0.38983833443E+01  0.38985888390E+01  0.40000000000E-01 0.  1.
</event>
<event>
 5   0  0.7212170E+07  0.9118800E+02  0.7818608E-02  0.1180000E+00
       11   -1    0    0    0    0  0.00000000000E+00  0.00000000000E+00  0.39999999673E+01  0.40000000000E+01  0.51109989000E-03 0. -1.
     -623   -1    0    0    0    0  0.00000000000E+00  0.00000000000E+00  0.12525980253E-10  0.17130000000E+03  0.17130000000E+03 0.  1.
       11    1    1    2    0    0  0.74065617335E-03  0.40667277490E-03  0.37915230145E-02  0.39180127845E-02  0.51109989000E-03 0. -1.
     -623    1    1    2    0    0 -0.10218118678E-02 -0.31720676641E-03  0.32667278330E-03  0.17130000000E+03  0.17130000000E+03 0.  1.
      622    1    1    2    0    0  0.28115569457E-03 -0.89466008437E-04  0.39958817722E+01  0.39960819842E+01  0.40000000000E-01 0. -1.
</event>
<event>
 5   0  0.7212170E+07  0.9118800E+02  0.7818608E-02  0.1180000E+00
       11   -1    0    0    0    0  0.00000000000E+00  0.00000000000E+00  0.39999999673E+01  0.40000000000E+01  0.51109989000E-03 0. -1.
     -623   -1    0    0    0    0  0.00000000000E+00  0.00000000000E+00  0.12525980253E-10  0.17130000000E+03  0.17130000000E+03 0.  1.
       11    1    1    2    0    0 -0.11435936444E-02  0.77594730383E-02  0.14886169554E+01  0.14886377055E+01  0.51109989000E-03 0. -1.
     -623    1    1    2    0    0  0.24603455280E-02  0.96673019582E-03  0.35481831406E-03  0.17130000002E+03  0.17130000000E+03 0.  1.
      622    1    1    2    0    0 -0.13167518835E-02 -0.87262032341E-02  0.25110281935E+01  0.25113622736E+01  0.40000000000E-01 0. -1.
</event>
<event>
 5   0  0.7212170E+07  0.9118800E+02  0.7818608E-02  0.1180000E+00
       11   -1    0    0    0    0  0.00000000000E+00  0.00000000000E+00  0.39999999673E+01  0.40000000000E+01  0.51109989000E-03 0. -1.
     -623   -1    0    0    0    0  0.00000000000E+00  0.00000000000E+00  0.12525980253E-10  0.17130000000E+03  0.17130000000E+03 0. -1.
       11    1    1    2    0    0  0.23831896453E-02 -0.21458666292E-02  0.42387959349E-01  0.42512170696E-01  0.51109989000E-03 0. -1.
     -623    1    1    2    0    0 -0.59847437503E-03  0.11193336581E-02  0.32687291921E-03  0.17130000001E+03  0.17130000000E+03 0. -1.
      622    1    1    2    0    0 -0.17847152701E-02  0.10265329709E-02  0.39572851361E+01  0.39574878253E+01  0.40000000000E-01 0. -1.
</event>
<event>
 5   0  0.7212170E+07  0.9118800E+02  0.7818608E-02  0.1180000E+00
       11   -1    0    0    0    0  0.00000000000E+00  0.00000000000E+00  0.39999999673E+01  0.40000000000E+01  0.51109989000E-03 0.  1.
     -623   -1    0    0    0    0  0.00000000000E+00  0.00000000000E+00  0.12525980253E-10  0.17130000000E+03  0.17130000000E+03 0.  1.
       11    1    1    2    0    0 -0.11985069659E-02  0.67560046695E-03  0.47746847995E-03  0.15433904837E-02  0.51109989000E-03 0.  1.
     -623    1    1    2    0    0  0.10702134333E-02  0.13647481621E-02  0.12665076943E-02  0.17130000001E+03  0.17130000000E+03 0.  1.
      622    1    1    2    0    0  0.12829353253E-03 -0.20403486291E-02  0.39982559912E+01  0.39984565960E+01  0.40000000000E-01 0.  1.
</event>
<event>
 5   0  0.7212170E+07  0.9118800E+02  0.7818608E-02  0.1180000E+00
       11   -1    0    0    0    0  0.00000000000E+00  0.00000000000E+00  0.39999999673E+01  0.40000000000E+01  0.51109989000E-03 0.  1.
     -623   -1    0    0    0    0  0.00000000000E+00  0.00000000000E+00  0.12525980253E-10  0.17130000000E+03  0.17130000000E+03 0.  1.
       11    1    1    2    0    0 -0.57372829881E-01  0.34813605405E-01  0.16376208503E+01  0.16389954055E+01  0.51109989000E-03 0.  1.
     -623    1    1    2    0    0  0.74251053886E-02  0.70884058235E-02  0.26141722256E-02  0.17130000033E+03  0.17130000000E+03 0.  1.
      622    1    1    2    0    0  0.49947724492E-01 -0.41902011228E-01  0.23597649449E+01  0.23610042670E+01  0.40000000000E-01 0.  1.
</event>
<event>
 5   0  0.7212170E+07  0.9118800E+02  0.7818608E-02  0.1180000E+00
       11   -1    0    0    0    0  0.00000000000E+00  0.00000000000E+00  0.39999999673E+01  0.40000000000E+01  0.51109989000E-03 0. -1.
     -623   -1    0    0    0    0  0.00000000000E+00  0.00000000000E+00  0.12525980253E-10  0.17130000000E+03  0.17130000000E+03 0.  1.
       11    1    1    2    0    0 -0.61803996855E-02 -0.15587882826E-01  0.82855411794E+00  0.82872393896E+00  0.51109989000E-03 0. -1.
     -623    1    1    2    0    0 -0.17634324638E-02 -0.18731126121E-02  0.48010730148E-03  0.17130000002E+03  0.17130000000E+03 0.  1.
      622    1    1    2    0    0  0.79438321499E-02  0.17460995439E-01  0.31709657432E+01  0.31712760422E+01  0.40000000000E-01 0.  0.
</event>
<event>
 5   0  0.7212170E+07  0.9118800E+02  0.7818608E-02  0.1180000E+00
       11   -1    0    0    0    0  0.00000000000E+00  0.00000000000E+00  0.39999999673E+01  0.40000000000E+01  0.51109989000E-03 0.  1.
     -623   -1    0    0    0    0  0.00000000000E+00  0.00000000000E+00  0.12525980253E-10  0.17130000000E+03  0.17130000000E+03 0.  1.
       11    1    1    2    0    0 -0.46321738217E-02  0.12857792029E-01  0.66155194521E+00  0.66169329548E+00  0.51109989000E-03 0.  1.
     -623    1    1    2    0    0 -0.61541428234E-03 -0.94856977154E-05  0.40982185537E-03  0.17130000000E+03  0.17130000000E+03 0.  1.
      622    1    1    2    0    0  0.52475881041E-02 -0.12848306331E-01  0.33380382008E+01  0.33383067034E+01  0.40000000000E-01 0.  1.
</event>
<event>
 5   0  0.7212170E+07  0.9118800E+02  0.7818608E-02  0.1180000E+00
       11   -1    0    0    0    0  0.00000000000E+00  0.00000000000E+00  0.39999999673E+01  0.40000000000E+01  0.51109989000E-03 0.  1.
     -623   -1    0    0    0    0  0.00000000000E+00  0.00000000000E+00  0.12525980253E-10  0.17130000000E+03  0.17130000000E+03 0. -1.
       11    1    1    2    0    0 -0.36807873933E-02 -0.56504242842E-03  0.80736186835E-01  0.80823638600E-01  0.51109989000E-03 0.  1.
     -623    1    1    2    0    0  0.14365292342E-03 -0.10500757476E-02  0.29348156101E-03  0.17130000000E+03  0.17130000000E+03 0. -1.
      622    1    1    2    0    0  0.35371344698E-02  0.16151181765E-02  0.39189703005E+01  0.39191763594E+01  0.40000000000E-01 0.  1.
</event>
<event>
 5   0  0.7212170E+07  0.9118800E+02  0.7818608E-02  0.1180000E+00
       11   -1    0    0    0    0  0.00000000000E+00  0.00000000000E+00  0.39999999673E+01  0.40000000000E+01  0.51109989000E-03 0. -1.
     -623   -1    0    0    0    0  0.00000000000E+00  0.00000000000E+00  0.12525980253E-10  0.17130000000E+03  0.17130000000E+03 0.  1.
       11    1    1    2    0    0  0.57302048441E-03  0.34753638189E-03  0.14498746294E-02  0.16770490604E-02  0.51109989000E-03 0. -1.
     -623    1    1    2    0    0 -0.53300594834E-03 -0.33341631318E-03  0.42723259657E-03  0.17130000000E+03  0.17130000000E+03 0.  1.
      622    1    1    2    0    0 -0.40014535922E-04 -0.14120068615E-04  0.39981228612E+01  0.39983229504E+01  0.40000000000E-01 0. -1.
</event>
<event>
 5   0  0.7212170E+07  0.9118800E+02  0.7818608E-02  0.1180000E+00
       11   -1    0    0    0    0  0.00000000000E+00  0.00000000000E+00  0.39999999673E+01  0.40000000000E+01  0.51109989000E-03 0.  1.
     -623   -1    0    0    0    0  0.00000000000E+00  0.00000000000E+00  0.12525980253E-10  0.17130000000E+03  0.17130000000E+03 0.  1.
       11    1    1    2    0    0  0.10421132032E-03  0.64980564294E-03  0.27207065164E-01  0.27219822286E-01  0.51109989000E-03 0.  1.
     -623    1    1    2    0    0 -0.76067335947E-03 -0.43249275279E-04  0.21420227646E-03  0.17130000000E+03  0.17130000000E+03 0.  1.
      622    1    1    2    0    0  0.65646203917E-03 -0.60655636766E-03  0.39725787000E+01  0.39727801760E+01  0.40000000000E-01 0.  1.
</event>
<event>
 5   0  0.7212170E+07  0.9118800E+02  0.7818608E-02  0.1180000E+00
       11   -1    0    0    0    0  0.00000000000E+00  0.00000000000E+00  0.39999999673E+01  0.40000000000E+01  0.51109989000E-03 0. -1.
     -623   -1    0    0    0    0  0.00000000000E+00  0.00000000000E+00  0.12525980253E-10  0.17130000000E+03  0.17130000000E+03 0.  1.
       11    1    1    2    0    0 -0.20757369606E-01  0.19318788428E-01  0.10759978856E+01  0.10763715878E+01  0.51109989000E-03 0. -1.
     -623    1    1    2    0    0 -0.54487996765E-04 -0.58928540793E-03  0.78140098019E-03  0.17130000000E+03  0.17130000000E+03 0.  1.
      622    1    1    2    0    0  0.20811857603E-01 -0.18729503020E-01  0.29232206809E+01  0.29236284095E+01  0.40000000000E-01 0. -1.
</event>
<event>
 5   0  0.7212170E+07  0.9118800E+02  0.7818608E-02  0.1180000E+00
       11   -1    0    0    0    0  0.00000000000E+00  0.00000000000E+00  0.39999999673E+01  0.40000000000E+01  0.51109989000E-03 0. -1.
     -623   -1    0    0    0    0  0.00000000000E+00  0.00000000000E+00  0.12525980253E-10  0.17130000000E+03  0.17130000000E+03 0.  1.
       11    1    1    2    0    0  0.54352176856E-02 -0.16538580703E-01  0.70478453690E+00  0.70499969569E+00  0.51109989000E-03 0. -1.
     -623    1    1    2    0    0  0.24266773604E-01  0.26715497952E-01  0.61133215375E-03  0.17130000380E+03  0.17130000000E+03 0.  1.
      622    1    1    2    0    0 -0.29701991289E-01 -0.10176917248E-01  0.32946040982E+01  0.32949965010E+01  0.40000000000E-01 0. -1.
</event>
<event>
 5   0  0.7212170E+07  0.9118800E+02  0.7818608E-02  0.1180000E+00
       11   -1    0    0    0    0  0.00000000000E+00  0.00000000000E+00  0.39999999673E+01  0.40000000000E+01  0.51109989000E-03 0.  1.
     -623   -1    0    0    0    0  0.00000000000E+00  0.00000000000E+00  0.12525980253E-10  0.17130000000E+03  0.17130000000E+03 0.  1.
       11    1    1    2    0    0 -0.24762144839E-03 -0.17657151069E-02  0.26792721905E-01  0.26856847105E-01  0.51109989000E-03 0.  1.
     -623    1    1    2    0    0 -0.22841163239E-03  0.35286584528E-03  0.26573003895E-03  0.17130000000E+03  0.17130000000E+03 0.  1.
      622    1    1    2    0    0  0.47603308088E-03  0.14128492614E-02  0.39729415173E+01  0.39731431541E+01  0.40000000000E-01 0.  1.
</event>
<event>
 5   0  0.7212170E+07  0.9118800E+02  0.7818608E-02  0.1180000E+00
       11   -1    0    0    0    0  0.00000000000E+00  0.00000000000E+00  0.39999999673E+01  0.40000000000E+01  0.51109989000E-03 0.  1.
     -623   -1    0    0    0    0  0.00000000000E+00  0.00000000000E+00  0.12525980253E-10  0.17130000000E+03  0.17130000000E+03 0. -1.
       11    1    1    2    0    0 -0.13885242498E-02  0.53335375440E-02  0.12108304740E+00  0.12120948896E+00  0.51109989000E-03 0.  1.
     -623    1    1    2    0    0 -0.36964358905E-02  0.10027177595E-02  0.34121632607E-03  0.17130000004E+03  0.17130000000E+03 0. -1.
      622    1    1    2    0    0  0.50849601407E-02 -0.63362553035E-02  0.38785757040E+01  0.38787904683E+01  0.40000000000E-01 0.  1.
</event>
<event>
 5   0  0.7212170E+07  0.9118800E+02  0.7818608E-02  0.1180000E+00
       11   -1    0    0    0    0  0.00000000000E+00  0.00000000000E+00  0.39999999673E+01  0.40000000000E+01  0.51109989000E-03 0. -1.
     -623   -1    0    0    0    0  0.00000000000E+00  0.00000000000E+00  0.12525980253E-10  0.17130000000E+03  0.17130000000E+03 0. -1.
       11    1    1    2    0    0 -0.12734178565E-01 -0.34640862955E-01  0.43223829559E+00  0.43381142687E+00  0.51109989000E-03 0. -1.
     -623    1    1    2    0    0 -0.18281529128E-02  0.18502681858E-01  0.18647064083E-02  0.17130000102E+03  0.17130000000E+03 0. -1.
      622    1    1    2    0    0  0.14562331477E-01  0.16138181098E-01  0.35658969653E+01  0.35661875538E+01  0.40000000000E-01 0. -1.
</event>
<event>
 5   0  0.7212170E+07  0.9118800E+02  0.7818608E-02  0.1180000E+00
       11   -1    0    0    0    0  0.00000000000E+00  0.00000000000E+00  0.39999999673E+01  0.40000000000E+01  0.51109989000E-03 0.  1.
     -623   -1    0    0    0    0  0.00000000000E+00  0.00000000000E+00  0.12525980253E-10  0.17130000000E+03  0.17130000000E+03 0.  1.
       11    1    1    2    0    0  0.57209923357E-02  0.39445036533E-02  0.16934162528E+01  0.16934305877E+01  0.51109989000E-03 0.  1.
     -623    1    1    2    0    0  0.24525246629E-02 -0.28471614364E-02  0.37595045744E-03  0.17130000004E+03  0.17130000000E+03 0.  1.
      622    1    1    2    0    0 -0.81735169988E-02 -0.10973422166E-02  0.23062077645E+01  0.23065693710E+01  0.40000000000E-01 0.  0.
</event>
<event>
 5   0  0.7212170E+07  0.9118800E+02  0.7818608E-02  0.1180000E+00
       11   -1    0    0    0    0  0.00000000000E+00  0.00000000000E+00  0.39999999673E+01  0.40000000000E+01  0.51109989000E-03 0.  1.
     -623   -1    0    0    0    0  0.00000000000E+00  0.00000000000E+00  0.12525980253E-10  0.17130000000E+03  0.17130000000E+03 0.  1.
       11    1    1    2    0    0  0.14221561347E-01  0.57871331027E-02  0.52652287554E+00  0.52674694438E+00  0.51109989000E-03 0.  1.
     -623    1    1    2    0    0 -0.17248039080E-01  0.88900277920E-03  0.46298218398E-03  0.17130000087E+03  0.17130000000E+03 0.  1.
      622    1    1    2    0    0  0.30264777302E-02 -0.66761358818E-02  0.34730141090E+01  0.34732521837E+01  0.40000000000E-01 0.  1.
</event>
<event>
 5   0  0.7212170E+07  0.9118800E+02  0.7818608E-02  0.1180000E+00
       11   -1    0    0    0    0  0.00000000000E+00  0.00000000000E+00  0.39999999673E+01  0.40000000000E+01  0.51109989000E-03 0.  1.
     -623   -1    0    0    0    0  0.00000000000E+00  0.00000000000E+00  0.12525980253E-10  0.17130000000E+03  0.17130000000E+03 0.  1.
       11    1    1    2    0    0  0.11754249666E-01  0.39578575376E-01  0.16634730352E+01  0.16639854044E+01  0.51109989000E-03 0.  1.
     -623    1    1    2    0    0  0.40155643806E-02 -0.19191062536E-01  0.99817036324E-03  0.17130000112E+03  0.17130000000E+03 0.  1.
      622    1    1    2    0    0 -0.15769814047E-01 -0.20387512841E-01  0.23355287617E+01  0.23360134705E+01  0.40000000000E-01 0.  0.
</event>
<event>
 5   0  0.7212170E+07  0.9118800E+02  0.7818608E-02  0.1180000E+00
       11   -1    0    0    0    0  0.00000000000E+00  0.00000000000E+00  0.39999999673E+01  0.40000000000E+01  0.51109989000E-03 0. -1.
     -623   -1    0    0    0    0  0.00000000000E+00  0.00000000000E+00  0.12525980253E-10  0.17130000000E+03  0.17130000000E+03 0. -1.
       11    1    1    2    0    0 -0.40830504985E-02  0.32108759404E-02  0.79776180705E-01  0.79946740125E-01  0.51109989000E-03 0. -1.
     -623    1    1    2    0    0 -0.27889931667E-02 -0.63153014723E-03  0.38150771246E-03  0.17130000002E+03  0.17130000000E+03 0. -1.
      622    1    1    2    0    0  0.68720436652E-02 -0.25793457931E-02  0.39198422791E+01  0.39200532357E+01  0.40000000000E-01 0. -1.
</event>
<event>
 5   0  0.7212170E+07  0.9118800E+02  0.7818608E-02  0.1180000E+00
       11   -1    0    0    0    0  0.00000000000E+00  0.00000000000E+00  0.39999999673E+01  0.40000000000E+01  0.51109989000E-03 0. -1.
     -623   -1    0    0    0    0  0.00000000000E+00  0.00000000000E+00  0.12525980253E-10  0.17130000000E+03  0.17130000000E+03 0. -1.
       11    1    1    2    0    0  0.51357518732E-02 -0.86696782174E-02  0.12766428592E+00  0.12806236914E+00  0.51109989000E-03 0. -1.
     -623    1    1    2    0    0  0.54200518428E-03  0.14930189721E-03  0.61821141003E-03  0.17130000000E+03  0.17130000000E+03 0. -1.
      622    1    1    2    0    0 -0.56777570575E-02  0.85203763201E-02  0.38717174703E+01  0.38719376291E+01  0.40000000000E-01 0. -1.
</event>
<event>
 5   0  0.7212170E+07  0.9118800E+02  0.7818608E-02  0.1180000E+00
       11   -1    0    0    0    0  0.00000000000E+00  0.00000000000E+00  0.39999999673E+01  0.40000000000E+01  0.51109989000E-03 0. -1.
     -623   -1    0    0    0    0  0.00000000000E+00  0.00000000000E+00  0.12525980253E-10  0.17130000000E+03  0.17130000000E+03 0. -1.
       11    1    1    2    0    0  0.49870014930E-02 -0.35852479817E-02  0.35001890272E+00  0.35007316046E+00  0.51109989000E-03 0. -1.
     -623    1    1    2    0    0 -0.75465337914E-03  0.12400278709E-02  0.27662802178E-03  0.17130000001E+03  0.17130000000E+03 0. -1.
      622    1    1    2    0    0 -0.42323481138E-02  0.23452201109E-02  0.36497044365E+01  0.36499268331E+01  0.40000000000E-01 0.  0.
</event>
<event>
 5   0  0.7212170E+07  0.9118800E+02  0.7818608E-02  0.1180000E+00
       11   -1    0    0    0    0  0.00000000000E+00  0.00000000000E+00  0.39999999673E+01  0.40000000000E+01  0.51109989000E-03 0.  1.
     -623   -1    0    0    0    0  0.00000000000E+00  0.00000000000E+00  0.12525980253E-10  0.17130000000E+03  0.17130000000E+03 0.  1.
       11    1    1    2    0    0  0.23918482880E-02  0.17238599793E-01  0.53199262747E+00  0.53227747197E+00  0.51109989000E-03 0.  1.
     -623    1    1    2    0    0  0.61340487764E-02  0.19982863242E-02  0.57948435052E-03  0.17130000012E+03  0.17130000000E+03 0.  1.
      622    1    1    2    0    0 -0.85258970639E-02 -0.19236886117E-01  0.34674278552E+01  0.34677224052E+01  0.40000000000E-01 0.  1.
</event>
<event>
 5   0  0.7212170E+07  0.9118800E+02  0.7818608E-02  0.1180000E+00
       11   -1    0    0    0    0  0.00000000000E+00  0.00000000000E+00  0.39999999673E+01  0.40000000000E+01  0.51109989000E-03 0.  1.
     -623   -1    0    0    0    0  0.00000000000E+00  0.00000000000E+00  0.12525980253E-10  0.17130000000E+03  0.17130000000E+03 0. -1.
       11    1    1    2    0    0  0.85776959188E-02  0.10671429452E-01  0.30702938092E+00  0.30733492845E+00  0.51109989000E-03 0.  1.
     -623    1    1    2    0    0 -0.30421449765E-02 -0.77583444782E-02  0.52766890970E-03  0.17130000020E+03  0.17130000000E+03 0. -1.
      622    1    1    2    0    0 -0.55355509426E-02 -0.29130849745E-02  0.36924429171E+01  0.36926648676E+01  0.40000000000E-01 0.  1.
</event>
<event>
 5   0  0.7212170E+07  0.9118800E+02  0.7818608E-02  0.1180000E+00
       11   -1    0    0    0    0  0.00000000000E+00  0.00000000000E+00  0.39999999673E+01  0.40000000000E+01  0.51109989000E-03 0.  1.
     -623   -1    0    0    0    0  0.00000000000E+00  0.00000000000E+00  0.12525980253E-10  0.17130000000E+03  0.17130000000E+03 0. -1.
       11    1    1    2    0    0  0.62415009967E-02 -0.12712091879E-02  0.20145537377E+00  0.20155669463E+00  0.51109989000E-03 0.  1.
     -623    1    1    2    0    0 -0.27175525652E-02  0.17140090788E-02  0.31359762365E-03  0.17130000003E+03  0.17130000000E+03 0. -1.
      622    1    1    2    0    0 -0.35239484320E-02 -0.44279989061E-03  0.37982309952E+01  0.37984432742E+01  0.40000000000E-01 0.  1.
</event>
<event>
 5   0  0.7212170E+07  0.9118800E+02  0.7818608E-02  0.1180000E+00
       11   -1    0    0    0    0  0.00000000000E+00  0.00000000000E+00  0.39999999673E+01  0.40000000000E+01  0.51109989000E-03 0. -1.
     -623   -1    0    0    0    0  0.00000000000E+00  0.00000000000E+00  0.12525980253E-10  0.17130000000E+03  0.17130000000E+03 0.  1.
       11    1    1    2    0    0 -0.28655170095E-01 -0.14503401787E-01  0.11477143860E+01  0.11481637690E+01  0.51109989000E-03 0. -1.
     -623    1    1    2    0    0 -0.10899255497E-02  0.58535699666E-03  0.91900266447E-03  0.17130000001E+03  0.17130000000E+03 0.  1.
      622    1    1    2    0    0  0.29745095645E-01  0.13918044790E-01  0.28513665790E+01  0.28518362243E+01  0.40000000000E-01 0. -1.
</event>
<event>
 5   0  0.7212170E+07  0.9118800E+02  0.7818608E-02  0.1180000E+00
       11   -1    0    0    0    0  0.00000000000E+00  0.00000000000E+00  0.39999999673E+01  0.40000000000E+01  0.51109989000E-03 0. -1.
     -623   -1    0    0    0    0  0.00000000000E+00  0.00000000000E+00  0.12525980253E-10  0.17130000000E+03  0.17130000000E+03 0.  1.
       11    1    1    2    0    0  0.74133113203E-03 -0.44540410872E-03  0.68208649832E-03  0.12142576976E-02  0.51109989000E-03 0. -1.
     -623    1    1    2    0    0 -0.19720898639E-02  0.15716304351E-02  0.73257244131E-03  0.17130000002E+03  0.17130000000E+03 0.  1.
      622    1    1    2    0    0  0.12307587320E-02 -0.11262263264E-02  0.39985853087E+01  0.39987857224E+01  0.40000000000E-01 0. -1.
</event>
<event>
 5   0  0.7212170E+07  0.9118800E+02  0.7818608E-02  0.1180000E+00
       11   -1    0    0    0    0  0.00000000000E+00  0.00000000000E+00  0.39999999673E+01  0.40000000000E+01  0.51109989000E-03 0.  1.
     -623   -1    0    0    0    0  0.00000000000E+00  0.00000000000E+00  0.12525980253E-10  0.17130000000E+03  0.17130000000E+03 0.  1.
       11    1    1    2    0    0 -0.30243840238E-02  0.44062512857E-02  0.45091870327E-01  0.45410350602E-01  0.51109989000E-03 0.  1.
     -623    1    1    2    0    0 -0.46365196194E-04 -0.17305730272E-02  0.52285645856E-03  0.17130000001E+03  0.17130000000E+03 0.  1.
      622    1    1    2    0    0  0.30707492200E-02 -0.26756782580E-02  0.39543852416E+01  0.39545896409E+01  0.40000000000E-01 0.  1.
</event>
<event>
 5   0  0.7212170E+07  0.9118800E+02  0.7818608E-02  0.1180000E+00
       11   -1    0    0    0    0  0.00000000000E+00  0.00000000000E+00  0.39999999673E+01  0.40000000000E+01  0.51109989000E-03 0.  1.
     -623   -1    0    0    0    0  0.00000000000E+00  0.00000000000E+00  0.12525980253E-10  0.17130000000E+03  0.17130000000E+03 0. -1.
       11    1    1    2    0    0 -0.79073315545E-02  0.34529105064E-02  0.62361082019E+00  0.62367071822E+00  0.51109989000E-03 0.  1.
     -623    1    1    2    0    0  0.89611439338E-03  0.46857799502E-02  0.31397427654E-03  0.17130000007E+03  0.17130000000E+03 0. -1.
      622    1    1    2    0    0  0.70112171608E-02 -0.81386904582E-02  0.33760751743E+01  0.33763292165E+01  0.40000000000E-01 0.  1.
</event>
<event>
 5   0  0.7212170E+07  0.9118800E+02  0.7818608E-02  0.1180000E+00
       11   -1    0    0    0    0  0.00000000000E+00  0.00000000000E+00  0.39999999673E+01  0.40000000000E+01  0.51109989000E-03 0.  1.
     -623   -1    0    0    0    0  0.00000000000E+00  0.00000000000E+00  0.12525980253E-10  0.17130000000E+03  0.17130000000E+03 0. -1.
       11    1    1    2    0    0 -0.17834388591E-02  0.35222841590E-04  0.93287314036E-02  0.95114850318E-02  0.51109989000E-03 0.  1.
     -623    1    1    2    0    0  0.78515156409E-03  0.71531718571E-03  0.38340191462E-03  0.17130000000E+03  0.17130000000E+03 0. -1.
      622    1    1    2    0    0  0.99828729489E-03 -0.75054002740E-03  0.39902878346E+01  0.39904885118E+01  0.40000000000E-01 0.  1.
</event>
<event>
 5   0  0.7212170E+07  0.9118800E+02  0.7818608E-02  0.1180000E+00
       11   -1    0    0    0    0  0.00000000000E+00  0.00000000000E+00  0.39999999673E+01  0.40000000000E+01  0.51109989000E-03 0. -1.
     -623   -1    0    0    0    0  0.00000000000E+00  0.00000000000E+00  0.12525980253E-10  0.17130000000E+03  0.17130000000E+03 0.  1.
       11    1    1    2    0    0 -0.26489544895E-02  0.37155661016E-02  0.64631944632E-01  0.64794844559E-01  0.51109989000E-03 0. -1.
     -623    1    1    2    0    0 -0.75205765406E-03  0.32047295547E-03  0.36970755331E-03  0.17130000000E+03  0.17130000000E+03 0.  1.
      622    1    1    2    0    0  0.34010121437E-02 -0.40360390571E-02  0.39349983155E+01  0.39352051534E+01  0.40000000000E-01 0. -1.
</event>
<event>
 5   0  0.7212170E+07  0.9118800E+02  0.7818608E-02  0.1180000E+00
       11   -1    0    0    0    0  0.00000000000E+00  0.00000000000E+00  0.39999999673E+01  0.40000000000E+01  0.51109989000E-03 0.  1.
     -623   -1    0    0    0    0  0.00000000000E+00  0.00000000000E+00  0.12525980253E-10  0.17130000000E+03  0.17130000000E+03 0. -1.
       11    1    1    2    0    0 -0.18463342171E-02  0.95983248213E-03  0.17075625620E-01  0.17209545080E-01  0.51109989000E-03 0.  1.
     -623    1    1    2    0    0 -0.62148194913E-02 -0.48825828710E-02  0.34502896200E-03  0.17130000018E+03  0.17130000000E+03 0. -1.
      622    1    1    2    0    0  0.80611537104E-02  0.39227503904E-02  0.39825793140E+01  0.39827902735E+01  0.40000000000E-01 0.  1.
</event>
<event>
 5   0  0.7212170E+07  0.9118800E+02  0.7818608E-02  0.1180000E+00
       11   -1    0    0    0    0  0.00000000000E+00  0.00000000000E+00  0.39999999673E+01  0.40000000000E+01  0.51109989000E-03 0. -1.
     -623   -1    0    0    0    0  0.00000000000E+00  0.00000000000E+00  0.12525980253E-10  0.17130000000E+03  0.17130000000E+03 0. -1.
       11    1    1    2    0    0 -0.31723536141E-02  0.12713138194E-01  0.13952410542E+00  0.14013894864E+00  0.51109989000E-03 0. -1.
     -623    1    1    2    0    0  0.18723466447E-02 -0.27802661708E-02  0.83511247338E-03  0.17130000003E+03  0.17130000000E+03 0. -1.
      622    1    1    2    0    0  0.13000069692E-02 -0.99328720229E-02  0.38596407500E+01  0.38598610171E+01  0.40000000000E-01 0. -1.
</event>
<event>
 5   0  0.7212170E+07  0.9118800E+02  0.7818608E-02  0.1180000E+00
       11   -1    0    0    0    0  0.00000000000E+00  0.00000000000E+00  0.39999999673E+01  0.40000000000E+01  0.51109989000E-03 0.  1.
     -623   -1    0    0    0    0  0.00000000000E+00  0.00000000000E+00  0.12525980253E-10  0.17130000000E+03  0.17130000000E+03 0. -1.
       11    1    1    2    0    0 -0.26060814527E-01  0.12107277994E-01  0.15633609650E+01  0.15636251214E+01  0.51109989000E-03 0.  1.
     -623    1    1    2    0    0  0.40147946131E-01  0.41178816828E-02  0.69202578122E-03  0.17130000476E+03  0.17130000000E+03 0. -1.
      622    1    1    2    0    0 -0.14087131614E-01 -0.16225159678E-01  0.24359469775E+01  0.24363701239E+01  0.40000000000E-01 0.  1.
</event>
<event>
 5   0  0.7212170E+07  0.9118800E+02  0.7818608E-02  0.1180000E+00
       11   -1    0    0    0    0  0.00000000000E+00  0.00000000000E+00  0.39999999673E+01  0.40000000000E+01  0.51109989000E-03 0.  1.
     -623   -1    0    0    0    0  0.00000000000E+00  0.00000000000E+00  0.12525980253E-10  0.17130000000E+03  0.17130000000E+03 0. -1.
       11    1    1    2    0    0  0.25715359218E-01 -0.66539903103E-01  0.22318408726E+01  0.22329806941E+01  0.51109989000E-03 0.  1.
     -623    1    1    2    0    0 -0.24182026668E-01  0.38311390333E-01  0.18248057692E-02  0.17130000600E+03  0.17130000000E+03 0. -1.
      622    1    1    2    0    0 -0.15333325480E-02  0.28228512768E-01  0.17663342892E+01  0.17670133053E+01  0.40000000000E-01 0.  0.
</event>
<event>
 5   0  0.7212170E+07  0.9118800E+02  0.7818608E-02  0.1180000E+00
       11   -1    0    0    0    0  0.00000000000E+00  0.00000000000E+00  0.39999999673E+01  0.40000000000E+01  0.51109989000E-03 0. -1.
     -623   -1    0    0    0    0  0.00000000000E+00  0.00000000000E+00  0.12525980253E-10  0.17130000000E+03  0.17130000000E+03 0.  1.
       11    1    1    2    0    0  0.10184645350E-01 -0.14155868543E-01  0.61960099369E+00  0.61984656829E+00  0.51109989000E-03 0. -1.
     -623    1    1    2    0    0 -0.19458197872E-01  0.10653707247E-01  0.49819963034E-03  0.17130000144E+03  0.17130000000E+03 0.  1.
      622    1    1    2    0    0  0.92735525203E-02  0.35021612964E-02  0.33799007738E+01  0.33801519943E+01  0.40000000000E-01 0. -1.
</event>
<event>
 5   0  0.7212170E+07  0.9118800E+02  0.7818608E-02  0.1180000E+00
       11   -1    0    0    0    0  0.00000000000E+00  0.00000000000E+00  0.39999999673E+01  0.40000000000E+01  0.51109989000E-03 0.  1.
     -623   -1    0    0    0    0  0.00000000000E+00  0.00000000000E+00  0.12525980253E-10  0.17130000000E+03  0.17130000000E+03 0. -1.
       11    1    1    2    0    0 -0.11351733363E-01  0.14127816345E-02  0.70713810626E+00  0.70723081122E+00  0.51109989000E-03 0.  1.
     -623    1    1    2    0    0  0.95267856059E-03  0.17409897044E-02  0.35358232523E-03  0.17130000001E+03  0.17130000000E+03 0. -1.
      622    1    1    2    0    0  0.10399054802E-01 -0.31537713394E-02  0.32925082799E+01  0.32927691781E+01  0.40000000000E-01 0.  1.
</event>
<event>
 5   0  0.7212170E+07  0.9118800E+02  0.7818608E-02  0.1180000E+00
       11   -1    0    0    0    0  0.00000000000E+00  0.00000000000E+00  0.39999999673E+01  0.40000000000E+01  0.51109989000E-03 0. -1.
     -623   -1    0    0    0    0  0.00000000000E+00  0.00000000000E+00  0.12525980253E-10  0.17130000000E+03  0.17130000000E+03 0.  1.
       11    1    1    2    0    0  0.58818244563E-02 -0.65247995317E-02  0.10986815183E+01  0.10987167555E+01  0.51109989000E-03 0. -1.
     -623    1    1    2    0    0  0.27743196961E-03  0.26258604799E-03  0.32425585710E-03  0.17130000000E+03  0.17130000000E+03 0.  1.
      622    1    1    2    0    0 -0.61592564259E-02  0.62622134837E-02  0.29009941938E+01  0.29012832444E+01  0.40000000000E-01 0. -1.
</event>
<event>
 5   0  0.7212170E+07  0.9118800E+02  0.7818608E-02  0.1180000E+00
       11   -1    0    0    0    0  0.00000000000E+00  0.00000000000E+00  0.39999999673E+01  0.40000000000E+01  0.51109989000E-03 0.  1.
     -623   -1    0    0    0    0  0.00000000000E+00  0.00000000000E+00  0.12525980253E-10  0.17130000000E+03  0.17130000000E+03 0.  1.
       11    1    1    2    0    0  0.19830213944E-02  0.15521253291E-02  0.12821497850E-01  0.13076448184E-01  0.51109989000E-03 0.  1.
     -623    1    1    2    0    0 -0.43983305653E-03 -0.17372519746E-02  0.45589165946E-03  0.17130000001E+03  0.17130000000E+03 0.  1.
      622    1    1    2    0    0 -0.15431883378E-02  0.18512664582E-03  0.39867225786E+01  0.39869235426E+01  0.40000000000E-01 0.  1.
</event>
<event>
 5   0  0.7212170E+07  0.9118800E+02  0.7818608E-02  0.1180000E+00
       11   -1    0    0    0    0  0.00000000000E+00  0.00000000000E+00  0.39999999673E+01  0.40000000000E+01  0.51109989000E-03 0.  1.
     -623   -1    0    0    0    0  0.00000000000E+00  0.00000000000E+00  0.12525980253E-10  0.17130000000E+03  0.17130000000E+03 0. -1.
       11    1    1    2    0    0  0.25861913591E-02  0.37250030198E-03  0.30915424356E-01  0.31029853825E-01  0.51109989000E-03 0.  1.
     -623    1    1    2    0    0  0.71955295470E-04 -0.26896468747E-03  0.31685760846E-03  0.17130000000E+03  0.17130000000E+03 0. -1.
      622    1    1    2    0    0 -0.26581466546E-02 -0.10353561452E-03  0.39687676853E+01  0.39689701456E+01  0.40000000000E-01 0.  1.
</event>
<event>
 5   0  0.7212170E+07  0.9118800E+02  0.7818608E-02  0.1180000E+00
       11   -1    0    0    0    0  0.00000000000E+00  0.00000000000E+00  0.39999999673E+01  0.40000000000E+01  0.51109989000E-03 0.  1.
     -623   -1    0    0    0    0  0.00000000000E+00  0.00000000000E+00  0.12525980253E-10  0.17130000000E+03  0.17130000000E+03 0. -1.
       11    1    1    2    0    0 -0.22704582733E-02 -0.18588036736E-02  0.10036740366E-01  0.10469360636E-01  0.51109989000E-03 0.  1.
     -623    1    1    2    0    0  0.19528241642E-02  0.23197452479E-02  0.63318479638E-03  0.17130000003E+03  0.17130000000E+03 0. -1.
      622    1    1    2    0    0  0.31763410928E-03 -0.46094157415E-03  0.39893300418E+01  0.39895306110E+01  0.40000000000E-01 0.  1.
</event>
<event>
 5   0  0.7212170E+07  0.9118800E+02  0.7818608E-02  0.1180000E+00
       11   -1    0    0    0    0  0.00000000000E+00  0.00000000000E+00  0.39999999673E+01  0.40000000000E+01  0.51109989000E-03 0. -1.
     -623   -1    0    0    0    0  0.00000000000E+00  0.00000000000E+00  0.12525980253E-10  0.17130000000E+03  0.17130000000E+03 0. -1.
       11    1    1    2    0    0  0.40550159946E-02  0.16492128723E-03  0.73640402351E-01  0.73753918101E-01  0.51109989000E-03 0. -1.
     -623    1    1    2    0    0 -0.23803203707E-02 -0.52765375575E-02  0.32102826101E-03  0.17130000010E+03  0.17130000000E+03 0. -1.
      622    1    1    2    0    0 -0.16746956243E-02  0.51116162693E-02  0.39260385360E+01  0.39262459831E+01  0.40000000000E-01 0. -1.
</event>
<event>
 5   0  0.7212170E+07  0.9118800E+02  0.7818608E-02  0.1180000E+00
       11   -1    0    0    0    0  0.00000000000E+00  0.00000000000E+00  0.39999999673E+01  0.40000000000E+01  0.51109989000E-03 0.  1.
     -623   -1    0    0    0    0  0.00000000000E+00  0.00000000000E+00  0.12525980253E-10  0.17130000000E+03  0.17130000000E+03 0.  1.
       11    1    1    2    0    0 -0.15186774890E-01  0.13711069270E-01  0.63927875636E+00  0.63960630165E+00  0.51109989000E-03 0.  1.
     -623    1    1    2    0    0  0.21725205916E-02 -0.37518157825E-02  0.60560667014E-03  0.17130000006E+03  0.17130000000E+03 0.  1.
      622    1    1    2    0    0  0.13014254299E-01 -0.99592534878E-02  0.33601156041E+01  0.33603936422E+01  0.40000000000E-01 0.  0.
</event>
<event>
 5   0  0.7212170E+07  0.9118800E+02  0.7818608E-02  0.1180000E+00
       11   -1    0    0    0    0  0.00000000000E+00  0.00000000000E+00  0.39999999673E+01  0.40000000000E+01  0.51109989000E-03 0.  1.
     -623   -1    0    0    0    0  0.00000000000E+00  0.00000000000E+00  0.12525980253E-10  0.17130000000E+03  0.17130000000E+03 0.  1.
       11    1    1    2    0    0 -0.24585341595E-01  0.18234288292E-01  0.59722500151E+00  0.59800910691E+00  0.51109989000E-03 0.  1.
     -623    1    1    2    0    0 -0.10763027519E-01 -0.16511438823E-02  0.12436719563E-02  0.17130000035E+03  0.17130000000E+03 0.  1.
      622    1    1    2    0    0  0.35348369115E-01 -0.16583144410E-01  0.34015312941E+01  0.34019905427E+01  0.40000000000E-01 0.  1.
</event>
<event>
 5   0  0.7212170E+07  0.9118800E+02  0.7818608E-02  0.1180000E+00
       11   -1    0    0    0    0  0.00000000000E+00  0.00000000000E+00  0.39999999673E+01  0.40000000000E+01  0.51109989000E-03 0. -1.
     -623   -1    0    0    0    0  0.00000000000E+00  0.00000000000E+00  0.12525980253E-10  0.17130000000E+03  0.17130000000E+03 0. -1.
       11    1    1    2    0    0  0.16041720525E-01  0.63121963355E-02  0.10166959121E+01  0.10168421803E+01  0.51109989000E-03 0. -1.
     -623    1    1    2    0    0  0.41481716798E-03 -0.30285964941E-02  0.46165052815E-03  0.17130000003E+03  0.17130000000E+03 0. -1.
      622    1    1    2    0    0 -0.16456537693E-01 -0.32835998412E-02  0.29828424051E+01  0.29831577922E+01  0.40000000000E-01 0.  1.
</event>
<event>
 5   0  0.7212170E+07  0.9118800E+02  0.7818608E-02  0.1180000E+00
       11   -1    0    0    0    0  0.00000000000E+00  0.00000000000E+00  0.39999999673E+01  0.40000000000E+01  0.51109989000E-03 0. -1.
     -623   -1    0    0    0    0  0.00000000000E+00  0.00000000000E+00  0.12525980253E-10  0.17130000000E+03  0.17130000000E+03 0.  1.
       11    1    1    2    0    0 -0.17668436852E-01  0.83611817295E-02  0.13813286992E+01  0.13814670896E+01  0.51109989000E-03 0. -1.
     -623    1    1    2    0    0  0.93422266845E-02 -0.22879085009E-04  0.47066229136E-03  0.17130000026E+03  0.17130000000E+03 0.  1.
      622    1    1    2    0    0  0.83262101668E-02 -0.83383026445E-02  0.26182006061E+01  0.26185326553E+01  0.40000000000E-01 0. -1.
</event>
<event>
 5   0  0.7212170E+07  0.9118800E+02  0.7818608E-02  0.1180000E+00
       11   -1    0    0    0    0  0.00000000000E+00  0.00000000000E+00  0.39999999673E+01  0.40000000000E+01  0.51109989000E-03 0. -1.
     -623   -1    0    0    0    0  0.00000000000E+00  0.00000000000E+00  0.12525980253E-10  0.17130000000E+03  0.17130000000E+03 0.  1.
       11    1    1    2    0    0  0.11305026759E-01  0.21632034406E-02  0.46991556427E+00  0.47005678577E+00  0.51109989000E-03 0. -1.
     -623    1    1    2    0    0  0.24991693430E-02 -0.58515323327E-02  0.39686754607E-03  0.17130000012E+03  0.17130000000E+03 0.  1.
      622    1    1    2    0    0 -0.13804196103E-01  0.36883288927E-02  0.35296875360E+01  0.35299430960E+01  0.40000000000E-01 0.  0.
</event>
<event>
 5   0  0.7212170E+07  0.9118800E+02  0.7818608E-02  0.1180000E+00
       11   -1    0    0    0    0  0.00000000000E+00  0.00000000000E+00  0.39999999673E+01  0.40000000000E+01  0.51109989000E-03 0.  1.
     -623   -1    0    0    0    0  0.00000000000E+00  0.00000000000E+00  0.12525980253E-10  0.17130000000E+03  0.17130000000E+03 0.  1.
       11    1    1    2    0    0  0.15589611685E-01 -0.13320584524E-01  0.34027048952E+00  0.34088816528E+00  0.51109989000E-03 0.  1.
     -623    1    1    2    0    0 -0.12245403579E-01  0.72237733078E-02  0.84348190444E-03  0.17130000059E+03  0.17130000000E+03 0.  1.
      622    1    1    2    0    0 -0.33442081063E-02  0.60968112160E-02  0.36588859958E+01  0.36591112426E+01  0.40000000000E-01 0.  1.
</event>
<event>
 5   0  0.7212170E+07  0.9118800E+02  0.7818608E-02  0.1180000E+00
       11   -1    0    0    0    0  0.00000000000E+00  0.00000000000E+00  0.39999999673E+01  0.40000000000E+01  0.51109989000E-03 0.  1.
     -623   -1    0    0    0    0  0.00000000000E+00  0.00000000000E+00  0.12525980253E-10  0.17130000000E+03  0.17130000000E+03 0. -1.
       11    1    1    2    0    0 -0.26736037565E-01  0.22966102347E-01  0.16458642192E+01  0.16462416429E+01  0.51109989000E-03 0.  1.
     -623    1    1    2    0    0  0.63155557108E-02 -0.11758713390E-01  0.83310198543E-03  0.17130000052E+03  0.17130000000E+03 0. -1.
      622    1    1    2    0    0  0.20420481853E-01 -0.11207388956E-01  0.23533026465E+01  0.23537578354E+01  0.40000000000E-01 0.  1.
</event>
<event>
 5   0  0.7212170E+07  0.9118800E+02  0.7818608E-02  0.1180000E+00
       11   -1    0    0    0    0  0.00000000000E+00  0.00000000000E+00  0.39999999673E+01  0.40000000000E+01  0.51109989000E-03 0. -1.
     -623   -1    0    0    0    0  0.00000000000E+00  0.00000000000E+00  0.12525980253E-10  0.17130000000E+03  0.17130000000E+03 0. -1.
       11    1    1    2    0    0  0.14351463596E-01  0.14769471684E-01  0.25688213864E+00  0.25770680273E+00  0.51109989000E-03 0. -1.
     -623    1    1    2    0    0  0.16859602939E-01  0.22205920157E-01  0.13535334054E-02  0.17130000227E+03  0.17130000000E+03 0. -1.
      622    1    1    2    0    0 -0.31211066536E-01 -0.36975391841E-01  0.37417642953E+01  0.37422909229E+01  0.40000000000E-01 0. -1.
</event>
<event>
 5   0  0.7212170E+07  0.9118800E+02  0.7818608E-02  0.1180000E+00
       11   -1    0    0    0    0  0.00000000000E+00  0.00000000000E+00  0.39999999673E+01  0.40000000000E+01  0.51109989000E-03 0.  1.
     -623   -1    0    0    0    0  0.00000000000E+00  0.00000000000E+00  0.12525980253E-10  0.17130000000E+03  0.17130000000E+03 0. -1.
       11    1    1    2    0    0  0.13179412566E-02 -0.11337793529E-01  0.48412499092E-01  0.49742475036E-01  0.51109989000E-03 0.  1.
     -623    1    1    2    0    0 -0.44690670994E-02  0.46534032736E-02  0.15395080171E-02  0.17130000013E+03  0.17130000000E+03 0. -1.
      622    1    1    2    0    0  0.31511258430E-02  0.66843902556E-02  0.39500479604E+01  0.39502573967E+01  0.40000000000E-01 0.  1.
</event>
<event>
 5   0  0.7212170E+07  0.9118800E+02  0.7818608E-02  0.1180000E+00
       11   -1    0    0    0    0  0.00000000000E+00  0.00000000000E+00  0.39999999673E+01  0.40000000000E+01  0.51109989000E-03 0.  1.
     -623   -1    0    0    0    0  0.00000000000E+00  0.00000000000E+00  0.12525980253E-10  0.17130000000E+03  0.17130000000E+03 0. -1.
       11    1    1    2    0    0  0.23694044986E-03  0.30254259674E-02  0.52602282652E-01  0.52692226242E-01  0.51109989000E-03 0.  1.
     -623    1    1    2    0    0  0.14339247397E-02  0.10275382617E-02  0.29502975408E-03  0.17130000001E+03  0.17130000000E+03 0. -1.
      622    1    1    2    0    0 -0.16708651896E-02 -0.40529642291E-02  0.39471026548E+01  0.39473077643E+01  0.40000000000E-01 0.  1.
</event>
<event>
 5   0  0.7212170E+07  0.9118800E+02  0.7818608E-02  0.1180000E+00
       11   -1    0    0    0    0  0.00000000000E+00  0.00000000000E+00  0.39999999673E+01  0.40000000000E+01  0.51109989000E-03 0.  1.
     -623   -1    0    0    0    0  0.00000000000E+00  0.00000000000E+00  0.12525980253E-10  0.17130000000E+03  0.17130000000E+03 0. -1.
       11    1    1    2    0    0  0.20113732486E-01 -0.36994530121E-02  0.13593475364E+01  0.13595014653E+01  0.51109989000E-03 0.  1.
     -623    1    1    2    0    0  0.78583305189E-03 -0.43823731300E-02  0.55203631658E-03  0.17130000006E+03  0.17130000000E+03 0. -1.
      622    1    1    2    0    0 -0.20899565538E-01  0.80818261424E-02  0.26401003950E+01  0.26404984763E+01  0.40000000000E-01 0.  1.
</event>
<event>
 5   0  0.7212170E+07  0.9118800E+02  0.7818608E-02  0.1180000E+00
       11   -1    0    0    0    0  0.00000000000E+00  0.00000000000E+00  0.39999999673E+01  0.40000000000E+01  0.51109989000E-03 0. -1.
     -623   -1    0    0    0    0  0.00000000000E+00  0.00000000000E+00  0.12525980253E-10  0.17130000000E+03  0.17130000000E+03 0. -1.
       11    1    1    2    0    0  0.14861113831E-01  0.17657504466E-01  0.13329437629E+00  0.13527857237E+00  0.51109989000E-03 0. -1.
     -623    1    1    2    0    0 -0.36938810893E-02  0.58074760353E-02  0.22786976095E-02  0.17130000015E+03  0.17130000000E+03 0. -1.
      622    1    1    2    0    0 -0.11167232741E-01 -0.23464980501E-01  0.38644268936E+01  0.38647212743E+01  0.40000000000E-01 0. -1.
</event>
<event>
 5   0  0.7212170E+07  0.9118800E+02  0.7818608E-02  0.1180000E+00
       11   -1    0    0    0    0  0.00000000000E+00  0.00000000000E+00  0.39999999673E+01  0.40000000000E+01  0.51109989000E-03 0. -1.
     -623   -1    0    0    0    0  0.00000000000E+00  0.00000000000E+00  0.12525980253E-10  0.17130000000E+03  0.17130000000E+03 0.  1.
       11    1    1    2    0    0  0.25272678422E-02  0.44081464437E-04  0.57433710783E-02  0.62957573303E-02  0.51109989000E-03 0. -1.
     -623    1    1    2    0    0 -0.51758173655E-03 -0.18511572814E-02  0.75360089292E-03  0.17130000001E+03  0.17130000000E+03 0.  1.
      622    1    1    2    0    0 -0.20096861057E-02  0.18070758171E-02  0.39935029955E+01  0.39937042304E+01  0.40000000000E-01 0. -1.
</event>
<event>
 5   0  0.7212170E+07  0.9118800E+02  0.7818608E-02  0.1180000E+00
       11   -1    0    0    0    0  0.00000000000E+00  0.00000000000E+00  0.39999999673E+01  0.40000000000E+01  0.51109989000E-03 0. -1.
     -623   -1    0    0    0    0  0.00000000000E+00  0.00000000000E+00  0.12525980253E-10  0.17130000000E+03  0.17130000000E+03 0. -1.
       11    1    1    2    0    0 -0.24112450284E-01  0.61970728359E-02  0.23202691017E+00  0.23335929859E+00  0.51109989000E-03 0. -1.
     -623    1    1    2    0    0  0.11358586916E-02 -0.69960759266E-02  0.16150750771E-02  0.17130000015E+03  0.17130000000E+03 0. -1.
      622    1    1    2    0    0  0.22976591592E-01  0.79900309094E-03  0.37663579822E+01  0.37666405473E+01  0.40000000000E-01 0. -1.
</event>
<event>
 5   0  0.7212170E+07  0.9118800E+02  0.7818608E-02  0.1180000E+00
       11   -1    0    0    0    0  0.00000000000E+00  0.00000000000E+00  0.39999999673E+01  0.40000000000E+01  0.51109989000E-03 0.  1.
     -623   -1    0    0    0    0  0.00000000000E+00  0.00000000000E+00  0.12525980253E-10  0.17130000000E+03  0.17130000000E+03 0.  1.
       11    1    1    2    0    0 -0.53866054861E-01 -0.67422846840E-02  0.26265606998E+01  0.26271216914E+01  0.51109989000E-03 0.  1.
     -623    1    1    2    0    0  0.58078836753E-02 -0.44063196033E-02  0.20310452838E-02  0.17130000017E+03  0.17130000000E+03 0.  1.
      622    1    1    2    0    0  0.48058171186E-01  0.11148604288E-01  0.13714082225E+01  0.13728781416E+01  0.40000000000E-01 0. -1.
</event>
<event>
 5   0  0.7212170E+07  0.9118800E+02  0.7818608E-02  0.1180000E+00
       11   -1    0    0    0    0  0.00000000000E+00  0.00000000000E+00  0.39999999673E+01  0.40000000000E+01  0.51109989000E-03 0.  1.
     -623   -1    0    0    0    0  0.00000000000E+00  0.00000000000E+00  0.12525980253E-10  0.17130000000E+03  0.17130000000E+03 0.  1.
       11    1    1    2    0    0  0.10267187611E-02  0.28062711124E-03  0.53377904634E-01  0.53390962056E-01  0.51109989000E-03 0.  1.
     -623    1    1    2    0    0 -0.29412046140E-03 -0.53240146137E-03  0.21581289569E-03  0.17130000000E+03  0.17130000000E+03 0.  1.
      622    1    1    2    0    0 -0.73259829972E-03  0.25177435017E-03  0.39464062501E+01  0.39466090370E+01  0.40000000000E-01 0.  1.
</event>
<event>
 5   0  0.7212170E+07  0.9118800E+02  0.7818608E-02  0.1180000E+00
       11   -1    0    0    0    0  0.00000000000E+00  0.00000000000E+00  0.39999999673E+01  0.40000000000E+01  0.51109989000E-03 0. -1.
     -623   -1    0    0    0    0  0.00000000000E+00  0.00000000000E+00  0.12525980253E-10  0.17130000000E+03  0.17130000000E+03 0.  1.
       11    1    1    2    0    0 -0.87477036318E-04 -0.46641370482E-03  0.71109720229E-03  0.99603027292E-03  0.51109989000E-03 0. -1.
     -623    1    1    2    0    0 -0.13854480656E-02 -0.17850870198E-02  0.48587595809E-03  0.17130000002E+03  0.17130000000E+03 0.  1.
      622    1    1    2    0    0  0.14729251021E-02  0.22515007249E-02  0.39988029948E+01  0.39990039548E+01  0.40000000000E-01 0. -1.
</event>
<event>
 5   0  0.7212170E+07  0.9118800E+02  0.7818608E-02  0.1180000E+00
       11   -1    0    0    0    0  0.00000000000E+00  0.00000000000E+00  0.39999999673E+01  0.40000000000E+01  0.51109989000E-03 0.  1.
     -623   -1    0    0    0    0  0.00000000000E+00  0.00000000000E+00  0.12525980253E-10  0.17130000000E+03  0.17130000000E+03 0.  1.
       11    1    1    2    0    0  0.37275131727E-02 -0.20724979051E-02  0.61147093966E-01  0.61297780756E-01  0.51109989000E-03 0.  1.
     -623    1    1    2    0    0 -0.12943563491E-02  0.14388097110E-03  0.35500108683E-03  0.17130000001E+03  0.17130000000E+03 0.  1.
      622    1    1    2    0    0 -0.24331568237E-02  0.19286169340E-02  0.39384978721E+01  0.39387022137E+01  0.40000000000E-01 0.  1.
</event>
<event>
 5   0  0.7212170E+07  0.9118800E+02  0.7818608E-02  0.1180000E+00
       11   -1    0    0    0    0  0.00000000000E+00  0.00000000000E+00  0.39999999673E+01  0.40000000000E+01  0.51109989000E-03 0. -1.
     -623   -1    0    0    0    0  0.00000000000E+00  0.00000000000E+00  0.12525980253E-10  0.17130000000E+03  0.17130000000E+03 0. -1.
       11    1    1    2    0    0  0.29421505799E-02 -0.32817455268E-02  0.19663691039E+00  0.19668696412E+00  0.51109989000E-03 0. -1.
     -623    1    1    2    0    0  0.40359633281E-02  0.46983289104E-02  0.26714774466E-03  0.17130000011E+03  0.17130000000E+03 0. -1.
      622    1    1    2    0    0 -0.69781139087E-02 -0.14165833845E-02  0.38030959100E+01  0.38033129245E+01  0.40000000000E-01 0. -1.
</event>
<event>
 5   0  0.7212170E+07  0.9118800E+02  0.7818608E-02  0.1180000E+00
       11   -1    0    0    0    0  0.00000000000E+00  0.00000000000E+00  0.39999999673E+01  0.40000000000E+01  0.51109989000E-03 0.  1.
     -623   -1    0    0    0    0  0.00000000000E+00  0.00000000000E+00  0.12525980253E-10  0.17130000000E+03  0.17130000000E+03 0. -1.
       11    1    1    2    0    0 -0.94487164617E-03 -0.23427053814E-02  0.25822968674E-01  0.25951261726E-01  0.51109989000E-03 0.  1.
     -623    1    1    2    0    0 -0.54584879807E-03  0.84266377527E-03  0.33013753334E-03  0.17130000000E+03  0.17130000000E+03 0. -1.
      622    1    1    2    0    0  0.14907204443E-02  0.15000416060E-02  0.39738468618E+01  0.39740487357E+01  0.40000000000E-01 0.  1.
</event>
<event>
 5   0  0.7212170E+07  0.9118800E+02  0.7818608E-02  0.1180000E+00
       11   -1    0    0    0    0  0.00000000000E+00  0.00000000000E+00  0.39999999673E+01  0.40000000000E+01  0.51109989000E-03 0.  1.
     -623   -1    0    0    0    0  0.00000000000E+00  0.00000000000E+00  0.12525980253E-10  0.17130000000E+03  0.17130000000E+03 0. -1.
       11    1    1    2    0    0 -0.11577757757E-02 -0.49373913563E-02  0.15066201311E-01  0.15905028236E-01  0.51109989000E-03 0.  1.
     -623    1    1    2    0    0 -0.51166677046E-02  0.44830810285E-02  0.10447029260E-02  0.17130000014E+03  0.17130000000E+03 0. -1.
      622    1    1    2    0    0  0.62744434800E-02  0.45431032801E-03  0.39838890629E+01  0.39840948333E+01  0.40000000000E-01 0.  1.
</event>
<event>
 5   0  0.7212170E+07  0.9118800E+02  0.7818608E-02  0.1180000E+00
       11   -1    0    0    0    0  0.00000000000E+00  0.00000000000E+00  0.39999999673E+01  0.40000000000E+01  0.51109989000E-03 0. -1.
     -623   -1    0    0    0    0  0.00000000000E+00  0.00000000000E+00  0.12525980253E-10  0.17130000000E+03  0.17130000000E+03 0.  1.
       11    1    1    2    0    0 -0.61955098651E-02 -0.11854035439E-01  0.27842713168E+00  0.27874868857E+00  0.51109989000E-03 0. -1.
     -623    1    1    2    0    0 -0.24093276407E-02  0.10092514963E-02  0.56228541488E-03  0.17130000002E+03  0.17130000000E+03 0.  1.
      622    1    1    2    0    0  0.86048375060E-02  0.10844783943E-01  0.37210105506E+01  0.37212512910E+01  0.40000000000E-01 0. -1.
</event>
<event>
 5   0  0.7212170E+07  0.9118800E+02  0.7818608E-02  0.1180000E+00
       11   -1    0    0    0    0  0.00000000000E+00  0.00000000000E+00  0.39999999673E+01  0.40000000000E+01  0.51109989000E-03 0. -1.
     -623   -1    0    0    0    0  0.00000000000E+00  0.00000000000E+00  0.12525980253E-10  0.17130000000E+03  0.17130000000E+03 0. -1.
       11    1    1    2    0    0 -0.75716937432E-02 -0.10978918447E-02  0.32629318993E+00  0.32638327612E+00  0.51109989000E-03 0. -1.
     -623    1    1    2    0    0 -0.78498068550E-03  0.12799975342E-03  0.31746460856E-03  0.17130000000E+03  0.17130000000E+03 0. -1.
      622    1    1    2    0    0  0.83566744288E-02  0.96989209126E-03  0.36733893130E+01  0.36736167220E+01  0.40000000000E-01 0.  0.
</event>
<event>
 5   0  0.7212170E+07  0.9118800E+02  0.7818608E-02  0.1180000E+00
       11   -1    0    0    0    0  0.00000000000E+00  0.00000000000E+00  0.39999999673E+01  0.40000000000E+01  0.51109989000E-03 0. -1.
     -623   -1    0    0    0    0  0.00000000000E+00  0.00000000000E+00  0.12525980253E-10  0.17130000000E+03  0.17130000000E+03 0.  1.
       11    1    1    2    0    0 -0.10968622904E-04  0.66615737536E-03  0.34573035914E-02  0.35578163500E-02  0.51109989000E-03 0. -1.
     -623    1    1    2    0    0  0.35165517151E-03 -0.53744663784E-03  0.30068124415E-03  0.17130000000E+03  0.17130000000E+03 0.  1.
      622    1    1    2    0    0 -0.34068654857E-03 -0.12871073758E-03  0.39962419820E+01  0.39964421817E+01  0.40000000000E-01 0. -1.
</event>
<event>
 5   0  0.7212170E+07  0.9118800E+02  0.7818608E-02  0.1180000E+00
       11   -1    0    0    0    0  0.00000000000E+00  0.00000000000E+00  0.39999999673E+01  0.40000000000E+01  0.51109989000E-03 0.  1.
     -623   -1    0    0    0    0  0.00000000000E+00  0.00000000000E+00  0.12525980253E-10  0.17130000000E+03  0.17130000000E+03 0.  1.
       11    1    1    2    0    0  0.49077861084E-02  0.33039957546E-02  0.13018602841E+00  0.13032139490E+00  0.51109989000E-03 0.  1.
     -623    1    1    2    0    0 -0.61736720833E-03  0.13451870357E-02  0.34725322127E-03  0.17130000001E+03  0.17130000000E+03 0.  1.
      622    1    1    2    0    0 -0.42904188998E-02 -0.46491827909E-02  0.38694666874E+01  0.38696786000E+01  0.40000000000E-01 0.  1.
</event>
<event>
 5   0  0.7212170E+07  0.9118800E+02  0.7818608E-02  0.1180000E+00
       11   -1    0    0    0    0  0.00000000000E+00  0.00000000000E+00  0.39999999673E+01  0.40000000000E+01  0.51109989000E-03 0. -1.
     -623   -1    0    0    0    0  0.00000000000E+00  0.00000000000E+00  0.12525980253E-10  0.17130000000E+03  0.17130000000E+03 0.  1.
       11    1    1    2    0    0 -0.18911306900E-01  0.39966231445E-02  0.18295913182E+01  0.18296934889E+01  0.51109989000E-03 0. -1.
     -623    1    1    2    0    0  0.13134872431E-02 -0.51480471476E-02  0.54252848401E-03  0.17130000008E+03  0.17130000000E+03 0.  1.
      622    1    1    2    0    0  0.17597819657E-01  0.11514240026E-02  0.21698661203E+01  0.21703064274E+01  0.40000000000E-01 0. -1.
</event>
<event>
 5   0  0.7212170E+07  0.9118800E+02  0.7818608E-02  0.1180000E+00
       11   -1    0    0    0    0  0.00000000000E+00  0.00000000000E+00  0.39999999673E+01  0.40000000000E+01  0.51109989000E-03 0.  1.
     -623   -1    0    0    0    0  0.00000000000E+00  0.00000000000E+00  0.12525980253E-10  0.17130000000E+03  0.17130000000E+03 0. -1.
       11    1    1    2    0    0  0.35165036365E-02 -0.11941037712E-01  0.31639161083E+00  0.31663680583E+00  0.51109989000E-03 0.  1.
     -623    1    1    2    0    0  0.17021913543E-02  0.12396625712E-02  0.48161887543E-03  0.17130000001E+03  0.17130000000E+03 0. -1.
      622    1    1    2    0    0 -0.52186949906E-02  0.10701375141E-01  0.36831267373E+01  0.36833631802E+01  0.40000000000E-01 0.  1.
</event>
<event>
 5   0  0.7212170E+07  0.9118800E+02  0.7818608E-02  0.1180000E+00
       11   -1    0    0    0    0  0.00000000000E+00  0.00000000000E+00  0.39999999673E+01  0.40000000000E+01  0.51109989000E-03 0. -1.
     -623   -1    0    0    0    0  0.00000000000E+00  0.00000000000E+00  0.12525980253E-10  0.17130000000E+03  0.17130000000E+03 0. -1.
       11    1    1    2    0    0  0.32803717924E-02  0.21867981125E-01  0.10743948462E+01  0.10746224994E+01  0.51109989000E-03 0. -1.
     -623    1    1    2    0    0  0.49743288594E-03 -0.82483810898E-03  0.57923857234E-03  0.17130000000E+03  0.17130000000E+03 0. -1.
      622    1    1    2    0    0 -0.37778046783E-02 -0.21043143016E-01  0.29250258827E+01  0.29253774970E+01  0.40000000000E-01 0.  0.
</event>
<event>
 5   0  0.7212170E+07  0.9118800E+02  0.7818608E-02  0.1180000E+00
       11   -1    0    0    0    0  0.00000000000E+00  0.00000000000E+00  0.39999999673E+01  0.40000000000E+01  0.51109989000E-03 0.  1.
     -623   -1    0    0    0    0  0.00000000000E+00  0.00000000000E+00  0.12525980253E-10  0.17130000000E+03  0.17130000000E+03 0.  1.
       11    1    1    2    0    0  0.69690384717E-03 -0.74046523476E-03  0.25587004153E-02  0.28003811614E-02  0.51109989000E-03 0.  1.
     -623    1    1    2    0    0 -0.57051653825E-04 -0.10804214353E-02  0.44226320107E-03  0.17130000000E+03  0.17130000000E+03 0.  1.
      622    1    1    2    0    0 -0.63985219333E-03  0.18208866702E-02  0.39969990042E+01  0.39971996154E+01  0.40000000000E-01 0.  1.
</event>
<event>
 5   0  0.7212170E+07  0.9118800E+02  0.7818608E-02  0.1180000E+00
       11   -1    0    0    0    0  0.00000000000E+00  0.00000000000E+00  0.39999999673E+01  0.40000000000E+01  0.51109989000E-03 0. -1.
     -623   -1    0    0    0    0  0.00000000000E+00  0.00000000000E+00  0.12525980253E-10  0.17130000000E+03  0.17130000000E+03 0.  1.
       11    1    1    2    0    0  0.24674456821E-02  0.67517934467E-02  0.33570408071E+00  0.33578142597E+00  0.51109989000E-03 0. -1.
     -623    1    1    2    0    0 -0.67276301743E-04  0.24160800371E-02  0.30791989785E-03  0.17130000002E+03  0.17130000000E+03 0.  1.
      622    1    1    2    0    0 -0.24001693804E-02 -0.91678734838E-02  0.36639879668E+01  0.36642185567E+01  0.40000000000E-01 0. -1.
</event>
<event>
 5   0  0.7212170E+07  0.9118800E+02  0.7818608E-02  0.1180000E+00
       11   -1    0    0    0    0  0.00000000000E+00  0.00000000000E+00  0.39999999673E+01  0.40000000000E+01  0.51109989000E-03 0.  1.
     -623   -1    0    0    0    0  0.00000000000E+00  0.00000000000E+00  0.12525980253E-10  0.17130000000E+03  0.17130000000E+03 0. -1.
       11    1    1    2    0    0 -0.11930404371E-02  0.16046481949E-03  0.30293478865E-02  0.32995857555E-02  0.51109989000E-03 0.  1.
     -623    1    1    2    0    0  0.18712204235E-03 -0.60269415764E-03  0.47052822765E-03  0.17130000000E+03  0.17130000000E+03 0. -1.
      622    1    1    2    0    0  0.10059183947E-02  0.44222933825E-03  0.39965000920E+01  0.39967004132E+01  0.40000000000E-01 0.  1.
</event>
<event>
 5   0  0.7212170E+07  0.9118800E+02  0.7818608E-02  0.1180000E+00
       11   -1    0    0    0    0  0.00000000000E+00  0.00000000000E+00  0.39999999673E+01  0.40000000000E+01  0.51109989000E-03 0.  1.
     -623   -1    0    0    0    0  0.00000000000E+00  0.00000000000E+00  0.12525980253E-10  0.17130000000E+03  0.17130000000E+03 0. -1.
       11    1    1    2    0    0  0.22419794155E-02 -0.25380151292E-02  0.12221338719E+00  0.12226136439E+00  0.51109989000E-03 0.  1.
     -623    1    1    2    0    0 -0.52008228864E-02 -0.47085189936E-02  0.26229999899E-03  0.17130000014E+03  0.17130000000E+03 0. -1.
      622    1    1    2    0    0  0.29588434708E-02  0.72465341228E-02  0.38775242802E+01  0.38777384917E+01  0.40000000000E-01 0.  1.
</event>
<event>
 5   0  0.7212170E+07  0.9118800E+02  0.7818608E-02  0.1180000E+00
       11   -1    0    0    0    0  0.00000000000E+00  0.00000000000E+00  0.39999999673E+01  0.40000000000E+01  0.51109989000E-03 0. -1.
     -623   -1    0    0    0    0  0.00000000000E+00  0.00000000000E+00  0.12525980253E-10  0.17130000000E+03  0.17130000000E+03 0. -1.
       11    1    1    2    0    0  0.56471360836E-03 -0.12324486110E-02  0.36960049473E+00  0.36960333434E+00  0.51109989000E-03 0. -1.
     -623    1    1    2    0    0 -0.96748211016E-04  0.54938280206E-03  0.22327073837E-03  0.17130000000E+03  0.17130000000E+03 0. -1.
      622    1    1    2    0    0 -0.46796539731E-03  0.68306580871E-03  0.36301762032E+01  0.36303966659E+01  0.40000000000E-01 0. -1.
</event>
<event>
 5   0  0.7212170E+07  0.9118800E+02  0.7818608E-02  0.1180000E+00
       11   -1    0    0    0    0  0.00000000000E+00  0.00000000000E+00  0.39999999673E+01  0.40000000000E+01  0.51109989000E-03 0.  1.
     -623   -1    0    0    0    0  0.00000000000E+00  0.00000000000E+00  0.12525980253E-10  0.17130000000E+03  0.17130000000E+03 0.  1.
       11    1    1    2    0    0  0.16786674512E-02 -0.86970403939E-02  0.12992844645E+00  0.13023102109E+00  0.51109989000E-03 0.  1.
     -623    1    1    2    0    0  0.66549912467E-02 -0.11169169638E-01  0.56974317678E-03  0.17130000049E+03  0.17130000000E+03 0.  1.
      622    1    1    2    0    0 -0.83336586983E-02  0.19866210033E-01  0.38695017780E+01  0.38697684848E+01  0.40000000000E-01 0.  1.
</event>
<event>
 5   0  0.7212170E+07  0.9118800E+02  0.7818608E-02  0.1180000E+00
       11   -1    0    0    0    0  0.00000000000E+00  0.00000000000E+00  0.39999999673E+01  0.40000000000E+01  0.51109989000E-03 0. -1.
     -623   -1    0    0    0    0  0.00000000000E+00  0.00000000000E+00  0.12525980253E-10  0.17130000000E+03  0.17130000000E+03 0.  1.
       11    1    1    2    0    0 -0.33247430730E-03 -0.50550751569E-03  0.20373871337E-02  0.21859200451E-02  0.51109989000E-03 0. -1.
     -623    1    1    2    0    0 -0.11660613642E-03 -0.76495593583E-03  0.34884384266E-03  0.17130000000E+03  0.17130000000E+03 0.  1.
      622    1    1    2    0    0  0.44908044375E-03  0.12704634517E-02  0.39976137374E+01  0.39978140788E+01  0.40000000000E-01 0. -1.
</event>
<event>
 5   0  0.7212170E+07  0.9118800E+02  0.7818608E-02  0.1180000E+00
       11   -1    0    0    0    0  0.00000000000E+00  0.00000000000E+00  0.39999999673E+01  0.40000000000E+01  0.51109989000E-03 0.  1.
     -623   -1    0    0    0    0  0.00000000000E+00  0.00000000000E+00  0.12525980253E-10  0.17130000000E+03  0.17130000000E+03 0. -1.
       11    1    1    2    0    0 -0.10137749648E-02 -0.68142235717E-03  0.29708587983E-01  0.29738081632E-01  0.51109989000E-03 0.  1.
     -623    1    1    2    0    0  0.42158361018E-03 -0.33957359175E-02  0.23313624008E-03  0.17130000003E+03  0.17130000000E+03 0. -1.
      622    1    1    2    0    0  0.59219135438E-03  0.40771582764E-02  0.39700582451E+01  0.39702618860E+01  0.40000000000E-01 0.  1.
</event>
<event>
 5   0  0.7212170E+07  0.9118800E+02  0.7818608E-02  0.1180000E+00
       11   -1    0    0    0    0  0.00000000000E+00  0.00000000000E+00  0.39999999673E+01  0.40000000000E+01  0.51109989000E-03 0.  1.
     -623   -1    0    0    0    0  0.00000000000E+00  0.00000000000E+00  0.12525980253E-10  0.17130000000E+03  0.17130000000E+03 0. -1.
       11    1    1    2    0    0  0.11778350157E-01  0.14829784000E-02  0.20450507262E+00  0.20484998099E+00  0.51109989000E-03 0.  1.
     -623    1    1    2    0    0  0.83803657503E-03 -0.61243864955E-03  0.57675272808E-03  0.17130000000E+03  0.17130000000E+03 0. -1.
      622    1    1    2    0    0 -0.12616386732E-01 -0.87053975043E-03  0.37949181422E+01  0.37951500151E+01  0.40000000000E-01 0.  1.
</event>
<event>
 5   0  0.7212170E+07  0.9118800E+02  0.7818608E-02  0.1180000E+00
       11   -1    0    0    0    0  0.00000000000E+00  0.00000000000E+00  0.39999999673E+01  0.40000000000E+01  0.51109989000E-03 0.  1.
     -623   -1    0    0    0    0  0.00000000000E+00  0.00000000000E+00  0.12525980253E-10  0.17130000000E+03  0.17130000000E+03 0. -1.
       11    1    1    2    0    0  0.45032679533E-02  0.16695107124E-02  0.74048694988E-02  0.88408146497E-02  0.51109989000E-03 0.  1.
     -623    1    1    2    0    0 -0.70680343877E-03  0.38639638346E-02  0.16420552912E-02  0.17130000005E+03  0.17130000000E+03 0. -1.
      622    1    1    2    0    0 -0.37964645145E-02 -0.55334745471E-02  0.39909530426E+01  0.39911591325E+01  0.40000000000E-01 0.  1.
</event>
<event>
 5   0  0.7212170E+07  0.9118800E+02  0.7818608E-02  0.1180000E+00
       11   -1    0    0    0    0  0.00000000000E+00  0.00000000000E+00  0.39999999673E+01  0.40000000000E+01  0.51109989000E-03 0.  1.
     -623   -1    0    0    0    0  0.00000000000E+00  0.00000000000E+00  0.12525980253E-10  0.17130000000E+03  0.17130000000E+03 0.  1.
       11    1    1    2    0    0  0.14219772788E-02  0.30742590356E-01  0.19205698812E+01  0.19208165083E+01  0.51109989000E-03 0.  1.
     -623    1    1    2    0    0  0.29400055243E-03 -0.69406889152E-04  0.85841474381E-03  0.17130000000E+03  0.17130000000E+03 0.  1.
      622    1    1    2    0    0 -0.17159778312E-02 -0.30673183467E-01  0.20785716714E+01  0.20791834892E+01  0.40000000000E-01 0.  1.
</event>
<event>
 5   0  0.7212170E+07  0.9118800E+02  0.7818608E-02  0.1180000E+00
       11   -1    0    0    0    0  0.00000000000E+00  0.00000000000E+00  0.39999999673E+01  0.40000000000E+01  0.51109989000E-03 0.  1.
     -623   -1    0    0    0    0  0.00000000000E+00  0.00000000000E+00  0.12525980253E-10  0.17130000000E+03  0.17130000000E+03 0.  1.
       11    1    1    2    0    0 -0.32468850765E-03  0.16237216142E-02  0.36233819887E-02  0.40164679311E-02  0.51109989000E-03 0.  1.
     -623    1    1    2    0    0  0.24486379636E-02  0.24051935084E-03  0.59427741746E-03  0.17130000002E+03  0.17130000000E+03 0.  1.
      622    1    1    2    0    0 -0.21239494560E-02 -0.18642409650E-02  0.39957823080E+01  0.39959835134E+01  0.40000000000E-01 0.  1.
</event>
<event>
 5   0  0.7212170E+07  0.9118800E+02  0.7818608E-02  0.1180000E+00
       11   -1    0    0    0    0  0.00000000000E+00  0.00000000000E+00  0.39999999673E+01  0.40000000000E+01  0.51109989000E-03 0. -1.
     -623   -1    0    0    0    0  0.00000000000E+00  0.00000000000E+00  0.12525980253E-10  0.17130000000E+03  0.17130000000E+03 0.  1.
       11    1    1    2    0    0 -0.18752804443E-02  0.31194512457E-02  0.39853536116E-01  0.40022658793E-01  0.51109989000E-03 0. -1.
     -623    1    1    2    0    0  0.31339366527E-02  0.18946042895E-02  0.37453066219E-03  0.17130000004E+03  0.17130000000E+03 0.  1.
      622    1    1    2    0    0 -0.12586562096E-02 -0.50140555361E-02  0.39597719023E+01  0.39599773033E+01  0.40000000000E-01 0. -1.
</event>
<event>
 5   0  0.7212170E+07  0.9118800E+02  0.7818608E-02  0.1180000E+00
       11   -1    0    0    0    0  0.00000000000E+00  0.00000000000E+00  0.39999999673E+01  0.40000000000E+01  0.51109989000E-03 0.  1.
     -623   -1    0    0    0    0  0.00000000000E+00  0.00000000000E+00  0.12525980253E-10  0.17130000000E+03  0.17130000000E+03 0.  1.
       11    1    1    2    0    0  0.10538543927E-02 -0.13599313046E-02  0.74103347462E-02  0.76245856532E-02  0.51109989000E-03 0.  1.
     -623    1    1    2    0    0 -0.14097880453E-02  0.59307813170E-02  0.41734680741E-03  0.17130000011E+03  0.17130000000E+03 0.  1.
      622    1    1    2    0    0  0.35593365236E-03 -0.45708500113E-02  0.39921722851E+01  0.39923753046E+01  0.40000000000E-01 0.  1.
</event>
<event>
 5   0  0.7212170E+07  0.9118800E+02  0.7818608E-02  0.1180000E+00
       11   -1    0    0    0    0  0.00000000000E+00  0.00000000000E+00  0.39999999673E+01  0.40000000000E+01  0.51109989000E-03 0.  1.
     -623   -1    0    0    0    0  0.00000000000E+00  0.00000000000E+00  0.12525980253E-10  0.17130000000E+03  0.17130000000E+03 0. -1.
       11    1    1    2    0    0  0.65641217890E-02 -0.39008030708E-02  0.55429653608E+00  0.55434936194E+00  0.51109989000E-03 0.  1.
     -623    1    1    2    0    0  0.45980730710E-02  0.79844184304E-02  0.30572716589E-03  0.17130000025E+03  0.17130000000E+03 0. -1.
      622    1    1    2    0    0 -0.11162194862E-01 -0.40836153626E-02  0.34453977056E+01  0.34456503915E+01  0.40000000000E-01 0.  1.
</event>
<event>
 5   0  0.7212170E+07  0.9118800E+02  0.7818608E-02  0.1180000E+00
       11   -1    0    0    0    0  0.00000000000E+00  0.00000000000E+00  0.39999999673E+01  0.40000000000E+01  0.51109989000E-03 0.  1.
     -623   -1    0    0    0    0  0.00000000000E+00  0.00000000000E+00  0.12525980253E-10  0.17130000000E+03  0.17130000000E+03 0. -1.
       11    1    1    2    0    0 -0.67699725021E-02  0.43104128953E-01  0.20258272250E+01  0.20262971167E+01  0.51109989000E-03 0.  1.
     -623    1    1    2    0    0 -0.41331979685E-02  0.45497497343E-02  0.14809672538E-02  0.17130000012E+03  0.17130000000E+03 0. -1.
      622    1    1    2    0    0  0.10903170470E-01 -0.47653878687E-01  0.19726917750E+01  0.19737027665E+01  0.40000000000E-01 0. -1.
</event>
<event>
 5   0  0.7212170E+07  0.9118800E+02  0.7818608E-02  0.1180000E+00
       11   -1    0    0    0    0  0.00000000000E+00  0.00000000000E+00  0.39999999673E+01  0.40000000000E+01  0.51109989000E-03 0.  1.
     -623   -1    0    0    0    0  0.00000000000E+00  0.00000000000E+00  0.12525980253E-10  0.17130000000E+03  0.17130000000E+03 0.  1.
       11    1    1    2    0    0 -0.10220888714E-01  0.74260031850E-02  0.93260015563E+00  0.93268586544E+00  0.51109989000E-03 0.  1.
     -623    1    1    2    0    0  0.49078577982E-02 -0.79566940214E-03  0.35834388155E-03  0.17130000007E+03  0.17130000000E+03 0.  1.
      622    1    1    2    0    0  0.53130309152E-02 -0.66303337827E-02  0.30670414686E+01  0.30673140628E+01  0.40000000000E-01 0.  1.
</event>
<event>
 5   0  0.7212170E+07  0.9118800E+02  0.7818608E-02  0.1180000E+00
       11   -1    0    0    0    0  0.00000000000E+00  0.00000000000E+00  0.39999999673E+01  0.40000000000E+01  0.51109989000E-03 0. -1.
     -623   -1    0    0    0    0  0.00000000000E+00  0.00000000000E+00  0.12525980253E-10  0.17130000000E+03  0.17130000000E+03 0. -1.
       11    1    1    2    0    0  0.28254964720E-01  0.40472106663E-02  0.27614704919E+01  0.27616180514E+01  0.51109989000E-03 0. -1.
     -623    1    1    2    0    0 -0.25181490459E-03 -0.21713701376E-02  0.11119582223E-02  0.17130000002E+03  0.17130000000E+03 0. -1.
      622    1    1    2    0    0 -0.28003149816E-01 -0.18758405286E-02  0.12374175175E+01  0.12383819313E+01  0.40000000000E-01 0.  1.
</event>
<event>
 5   0  0.7212170E+07  0.9118800E+02  0.7818608E-02  0.1180000E+00
       11   -1    0    0    0    0  0.00000000000E+00  0.00000000000E+00  0.39999999673E+01  0.40000000000E+01  0.51109989000E-03 0. -1.
     -623   -1    0    0    0    0  0.00000000000E+00  0.00000000000E+00  0.12525980253E-10  0.17130000000E+03  0.17130000000E+03 0. -1.
       11    1    1    2    0    0  0.81150123662E-03 -0.21372900446E-03 -0.25016430476E-03  0.10139130245E-02  0.51109989000E-03 0. -1.
     -623    1    1    2    0    0  0.33120917700E-03  0.78373726855E-03  0.14643126727E-02  0.17130000001E+03  0.17130000000E+03 0. -1.
      622    1    1    2    0    0 -0.11427104136E-02 -0.57000826415E-03  0.39987858192E+01  0.39989860789E+01  0.40000000000E-01 0. -1.
</event>
<event>
 5   0  0.7212170E+07  0.9118800E+02  0.7818608E-02  0.1180000E+00
       11   -1    0    0    0    0  0.00000000000E+00  0.00000000000E+00  0.39999999673E+01  0.40000000000E+01  0.51109989000E-03 0.  1.
     -623   -1    0    0    0    0  0.00000000000E+00  0.00000000000E+00  0.12525980253E-10  0.17130000000E+03  0.17130000000E+03 0. -1.
       11    1    1    2    0    0 -0.10799481077E-01  0.21069374502E-01  0.18620331643E+00  0.18770317953E+00  0.51109989000E-03 0.  1.
     -623    1    1    2    0    0  0.47420723360E-02 -0.17697035826E-01  0.17169762032E-02  0.17130000099E+03  0.17130000000E+03 0. -1.
      622    1    1    2    0    0  0.60574087405E-02 -0.33723386755E-02  0.38120796749E+01  0.38122958323E+01  0.40000000000E-01 0.  0.
</event>
<event>
 5   0  0.7212170E+07  0.9118800E+02  0.7818608E-02  0.1180000E+00
       11   -1    0    0    0    0  0.00000000000E+00  0.00000000000E+00  0.39999999673E+01  0.40000000000E+01  0.51109989000E-03 0.  1.
     -623   -1    0    0    0    0  0.00000000000E+00  0.00000000000E+00  0.12525980253E-10  0.17130000000E+03  0.17130000000E+03 0.  1.
       11    1    1    2    0    0  0.27423915625E-01  0.78587766959E-02  0.81058323925E+00  0.81108524860E+00  0.51109989000E-03 0.  1.
     -623    1    1    2    0    0 -0.85631577603E-02  0.15137148853E-01  0.89244476293E-03  0.17130000089E+03  0.17130000000E+03 0.  1.
      622    1    1    2    0    0 -0.18860757865E-01 -0.22995925549E-01  0.31885242834E+01  0.31889138662E+01  0.40000000000E-01 0.  1.
</event>
<event>
 5   0  0.7212170E+07  0.9118800E+02  0.7818608E-02  0.1180000E+00
       11   -1    0    0    0    0  0.00000000000E+00  0.00000000000E+00  0.39999999673E+01  0.40000000000E+01  0.51109989000E-03 0. -1.
     -623   -1    0    0    0    0  0.00000000000E+00  0.00000000000E+00  0.12525980253E-10  0.17130000000E+03  0.17130000000E+03 0.  1.
       11    1    1    2    0    0 -0.11493890223E-02 -0.15459404859E-03  0.13785265732E+00  0.13785848304E+00  0.51109989000E-03 0. -1.
     -623    1    1    2    0    0 -0.19098398240E-03  0.33984433337E-03  0.21317522985E-03  0.17130000000E+03  0.17130000000E+03 0.  1.
      622    1    1    2    0    0  0.13403730046E-02 -0.18525028468E-03  0.38619341337E+01  0.38621415153E+01  0.40000000000E-01 0. -1.
</event>
<event>
 5   0  0.7212170E+07  0.9118800E+02  0.7818608E-02  0.1180000E+00
       11   -1    0    0    0    0  0.00000000000E+00  0.00000000000E+00  0.39999999673E+01  0.40000000000E+01  0.51109989000E-03 0. -1.
     -623   -1    0    0    0    0  0.00000000000E+00  0.00000000000E+00  0.12525980253E-10  0.17130000000E+03  0.17130000000E+03 0. -1.
       11    1    1    2    0    0  0.11298378767E-01  0.26902357135E-01  0.46577720371E+00  0.46669053440E+00  0.51109989000E-03 0. -1.
     -623    1    1    2    0    0  0.83826147246E-02 -0.36002363125E-01  0.12102512027E-02  0.17130000399E+03  0.17130000000E+03 0. -1.
      622    1    1    2    0    0 -0.19680993492E-01  0.91000059921E-02  0.35330125127E+01  0.35333054731E+01  0.40000000000E-01 0. -1.
</event>
<event>
 5   0  0.7212170E+07  0.9118800E+02  0.7818608E-02  0.1180000E+00
       11   -1    0    0    0    0  0.00000000000E+00  0.00000000000E+00  0.39999999673E+01  0.40000000000E+01  0.51109989000E-03 0. -1.
     -623   -1    0    0    0    0  0.00000000000E+00  0.00000000000E+00  0.12525980253E-10  0.17130000000E+03  0.17130000000E+03 0. -1.
       11    1    1    2    0    0 -0.44792835530E-02 -0.49607094099E-02  0.22380376225E+00  0.22390412644E+00  0.51109989000E-03 0. -1.
     -623    1    1    2    0    0 -0.24984909623E-02  0.31700442096E-02  0.31911639487E-03  0.17130000005E+03  0.17130000000E+03 0. -1.
      622    1    1    2    0    0  0.69777745159E-02  0.17906651997E-02  0.37758770896E+01  0.37760958265E+01  0.40000000000E-01 0.  0.
</event>
<event>
 5   0  0.7212170E+07  0.9118800E+02  0.7818608E-02  0.1180000E+00
       11   -1    0    0    0    0  0.00000000000E+00  0.00000000000E+00  0.39999999673E+01  0.40000000000E+01  0.51109989000E-03 0.  1.
     -623   -1    0    0    0    0  0.00000000000E+00  0.00000000000E+00  0.12525980253E-10  0.17130000000E+03  0.17130000000E+03 0.  1.
       11    1    1    2    0    0 -0.29490704533E-02  0.53150017564E-03  0.24248871065E-01  0.24438667722E-01  0.51109989000E-03 0.  1.
     -623    1    1    2    0    0  0.22499910661E-02  0.55625011845E-02  0.39583645670E-03  0.17130000011E+03  0.17130000000E+03 0.  1.
      622    1    1    2    0    0  0.69907938711E-03 -0.60940013605E-02  0.39753552601E+01  0.39755612270E+01  0.40000000000E-01 0.  1.
</event>
<event>
 5   0  0.7212170E+07  0.9118800E+02  0.7818608E-02  0.1180000E+00
       11   -1    0    0    0    0  0.00000000000E+00  0.00000000000E+00  0.39999999673E+01  0.40000000000E+01  0.51109989000E-03 0.  1.
     -623   -1    0    0    0    0  0.00000000000E+00  0.00000000000E+00  0.12525980253E-10  0.17130000000E+03  0.17130000000E+03 0. -1.
       11    1    1    2    0    0 -0.26761178409E-02  0.24985410318E-02  0.88451112402E+00  0.88451884890E+00  0.51109989000E-03 0.  1.
     -623    1    1    2    0    0  0.18863637578E-03 -0.15946314550E-02  0.26561697389E-03  0.17130000001E+03  0.17130000000E+03 0. -1.
      622    1    1    2    0    0  0.24874814651E-02 -0.90390957688E-03  0.31152232263E+01  0.31154811433E+01  0.40000000000E-01 0.  1.
</event>
<event>
 5   0  0.7212170E+07  0.9118800E+02  0.7818608E-02  0.1180000E+00
       11   -1    0    0    0    0  0.00000000000E+00  0.00000000000E+00  0.39999999673E+01  0.40000000000E+01  0.51109989000E-03 0. -1.
     -623   -1    0    0    0    0  0.00000000000E+00  0.00000000000E+00  0.12525980253E-10  0.17130000000E+03  0.17130000000E+03 0. -1.
       11    1    1    2    0    0  0.53554358582E-02  0.19633915903E-02  0.18457561471E-01  0.19325589210E-01  0.51109989000E-03 0. -1.
     -623    1    1    2    0    0 -0.18038976923E-02  0.24383044798E-02  0.10730195182E-02  0.17130000003E+03  0.17130000000E+03 0. -1.
      622    1    1    2    0    0 -0.35515381660E-02 -0.44016960700E-02  0.39804693863E+01  0.39806743805E+01  0.40000000000E-01 0. -1.
</event>
<event>
 5   0  0.7212170E+07  0.9118800E+02  0.7818608E-02  0.1180000E+00
       11   -1    0    0    0    0  0.00000000000E+00  0.00000000000E+00  0.39999999673E+01  0.40000000000E+01  0.51109989000E-03 0. -1.
     -623   -1    0    0    0    0  0.00000000000E+00  0.00000000000E+00  0.12525980253E-10  0.17130000000E+03  0.17130000000E+03 0. -1.
       11    1    1    2    0    0  0.44113178703E-01 -0.35986143222E-01  0.30762249056E+01  0.30767516809E+01  0.51109989000E-03 0. -1.
     -623    1    1    2    0    0 -0.29660874924E-02  0.25814398367E-01  0.23700249295E-02  0.17130000199E+03  0.17130000000E+03 0. -1.
      622    1    1    2    0    0 -0.41147091210E-01  0.10171744856E-01  0.92140503675E+00  0.92324633184E+00  0.40000000000E-01 0.  1.
</event>
<event>
 5   0  0.7212170E+07  0.9118800E+02  0.7818608E-02  0.1180000E+00
       11   -1    0    0    0    0  0.00000000000E+00  0.00000000000E+00  0.39999999673E+01  0.40000000000E+01  0.51109989000E-03 0.  1.
     -623   -1    0    0    0    0  0.00000000000E+00  0.00000000000E+00  0.12525980253E-10  0.17130000000E+03  0.17130000000E+03 0. -1.
       11    1    1    2    0    0  0.32719211667E-02  0.47423902106E-02  0.11602783749E-01  0.12964626754E-01  0.51109989000E-03 0.  1.
     -623    1    1    2    0    0 -0.39957279828E-03 -0.22305387581E-02  0.15643138677E-02  0.17130000002E+03  0.17130000000E+03 0. -1.
      622    1    1    2    0    0 -0.28723483684E-02 -0.25118514524E-02  0.39868328699E+01  0.39870353513E+01  0.40000000000E-01 0.  1.
</event>
<event>
 5   0  0.7212170E+07  0.9118800E+02  0.7818608E-02  0.1180000E+00
       11   -1    0    0    0    0  0.00000000000E+00  0.00000000000E+00  0.39999999673E+01  0.40000000000E+01  0.51109989000E-03 0.  1.
     -623   -1    0    0    0    0  0.00000000000E+00  0.00000000000E+00  0.12525980253E-10  0.17130000000E+03  0.17130000000E+03 0.  1.
       11    1    1    2    0    0 -0.27557769150E-01  0.23830349519E-01  0.23252154723E+01  0.23255009289E+01  0.51109989000E-03 0.  1.
     -623    1    1    2    0    0  0.10026203549E-01 -0.51729286625E-03  0.10176984263E-02  0.17130000030E+03  0.17130000000E+03 0.  1.
      622    1    1    2    0    0  0.17531565600E-01 -0.23313056653E-01  0.16737667971E+01  0.16744987744E+01  0.40000000000E-01 0.  0.
</event>
<event>
 5   0  0.7212170E+07  0.9118800E+02  0.7818608E-02  0.1180000E+00
       11   -1    0    0    0    0  0.00000000000E+00  0.00000000000E+00  0.39999999673E+01  0.40000000000E+01  0.51109989000E-03 0.  1.
     -623   -1    0    0    0    0  0.00000000000E+00  0.00000000000E+00  0.12525980253E-10  0.17130000000E+03  0.17130000000E+03 0. -1.
       11    1    1    2    0    0  0.23984909458E-01  0.54315087777E-02  0.23184857263E+01  0.23186162040E+01  0.51109989000E-03 0.  1.
     -623    1    1    2    0    0 -0.46303896420E-03  0.17321834052E-02  0.78617413378E-03  0.17130000001E+03  0.17130000000E+03 0. -1.
      622    1    1    2    0    0 -0.23521870493E-01 -0.71636921828E-02  0.16807280666E+01  0.16813837845E+01  0.40000000000E-01 0.  1.
</event>
<event>
 5   0  0.7212170E+07  0.9118800E+02  0.7818608E-02  0.1180000E+00
       11   -1    0    0    0    0  0.00000000000E+00  0.00000000000E+00  0.39999999673E+01  0.40000000000E+01  0.51109989000E-03 0. -1.
     -623   -1    0    0    0    0  0.00000000000E+00  0.00000000000E+00  0.12525980253E-10  0.17130000000E+03  0.17130000000E+03 0.  1.
       11    1    1    2    0    0 -0.21582234762E-02 -0.91828201051E-02  0.41316013561E+00  0.41326812241E+00  0.51109989000E-03 0. -1.
     -623    1    1    2    0    0  0.23682059976E-02  0.32631720901E-02  0.33594457806E-03  0.17130000005E+03  0.17130000000E+03 0.  1.
      622    1    1    2    0    0 -0.20998252138E-03  0.59196480151E-02  0.35865038871E+01  0.35867318297E+01  0.40000000000E-01 0. -1.
</event>
<event>
 5   0  0.7212170E+07  0.9118800E+02  0.7818608E-02  0.1180000E+00
       11   -1    0    0    0    0  0.00000000000E+00  0.00000000000E+00  0.39999999673E+01  0.40000000000E+01  0.51109989000E-03 0.  1.
     -623   -1    0    0    0    0  0.00000000000E+00  0.00000000000E+00  0.12525980253E-10  0.17130000000E+03  0.17130000000E+03 0. -1.
       11    1    1    2    0    0  0.17396026566E-02 -0.93994829967E-03  0.11878084195E-01  0.12052378498E-01  0.51109989000E-03 0.  1.
     -623    1    1    2    0    0  0.77167518077E-03  0.12323106752E-02  0.37567918529E-03  0.17130000001E+03  0.17130000000E+03 0. -1.
      622    1    1    2    0    0 -0.25112778376E-02 -0.29236237597E-03  0.39877462054E+01  0.39879476163E+01  0.40000000000E-01 0.  1.
</event>
<event>
 5   0  0.7212170E+07  0.9118800E+02  0.7818608E-02  0.1180000E+00
       11   -1    0    0    0    0  0.00000000000E+00  0.00000000000E+00  0.39999999673E+01  0.40000000000E+01  0.51109989000E-03 0.  1.
     -623   -1    0    0    0    0  0.00000000000E+00  0.00000000000E+00  0.12525980253E-10  0.17130000000E+03  0.17130000000E+03 0. -1.
       11    1    1    2    0    0 -0.28962763139E-02 -0.75115311894E-03  0.70380993293E-02  0.76647708877E-02  0.51109989000E-03 0.  1.
     -623    1    1    2    0    0  0.79806936422E-03  0.17231879549E-02  0.82771018066E-03  0.17130000001E+03  0.17130000000E+03 0. -1.
      622    1    1    2    0    0  0.20982069496E-02 -0.97203483615E-03  0.39921341583E+01  0.39923352171E+01  0.40000000000E-01 0.  1.
</event>
<event>
 5   0  0.7212170E+07  0.9118800E+02  0.7818608E-02  0.1180000E+00
       11   -1    0    0    0    0  0.00000000000E+00  0.00000000000E+00  0.39999999673E+01  0.40000000000E+01  0.51109989000E-03 0.  1.
     -623   -1    0    0    0    0  0.00000000000E+00  0.00000000000E+00  0.12525980253E-10  0.17130000000E+03  0.17130000000E+03 0.  1.
       11    1    1    2    0    0 -0.12721403874E-02 -0.22619818672E-03  0.22652779862E-02  0.26574826880E-02  0.51109989000E-03 0. -1.
     -623    1    1    2    0    0 -0.53603212353E-03 -0.48199040801E-03  0.59278429126E-03  0.17130000000E+03  0.17130000000E+03 0.  1.
      622    1    1    2    0    0  0.18081725110E-02  0.70818859480E-03  0.39971419056E+01  0.39973425153E+01  0.40000000000E-01 0.  1.
</event>
<event>
 5   0  0.7212170E+07  0.9118800E+02  0.7818608E-02  0.1180000E+00
       11   -1    0    0    0    0  0.00000000000E+00  0.00000000000E+00  0.39999999673E+01  0.40000000000E+01  0.51109989000E-03 0.  1.
     -623   -1    0    0    0    0  0.00000000000E+00  0.00000000000E+00  0.12525980253E-10  0.17130000000E+03  0.17130000000E+03 0.  1.
       11    1    1    2    0    0  0.20769384058E-01 -0.23953736381E-01  0.42476005120E+00  0.42594191050E+00  0.51109989000E-03 0.  1.
     -623    1    1    2    0    0 -0.48585124015E-03  0.19792775277E-02  0.15308075403E-02  0.17130000002E+03  0.17130000000E+03 0.  1.
      622    1    1    2    0    0 -0.20283532817E-01  0.21974458853E-01  0.35737091088E+01  0.35740580707E+01  0.40000000000E-01 0.  1.
</event>
<event>
 5   0  0.7212170E+07  0.9118800E+02  0.7818608E-02  0.1180000E+00
       11   -1    0    0    0    0  0.00000000000E+00  0.00000000000E+00  0.39999999673E+01  0.40000000000E+01  0.51109989000E-03 0.  1.
     -623   -1    0    0    0    0  0.00000000000E+00  0.00000000000E+00  0.12525980253E-10  0.17130000000E+03  0.17130000000E+03 0. -1.
       11    1    1    2    0    0  0.28686981306E-02  0.55879128623E-02  0.52096064238E-01  0.52475854746E-01  0.51109989000E-03 0.  1.
     -623    1    1    2    0    0 -0.44171891623E-02 -0.20709052298E-02  0.58436274202E-03  0.17130000007E+03  0.17130000000E+03 0. -1.
      622    1    1    2    0    0  0.15484910322E-02 -0.35170076323E-02  0.39473195409E+01  0.39475240753E+01  0.40000000000E-01 0.  1.
</event>
<event>
 5   0  0.7212170E+07  0.9118800E+02  0.7818608E-02  0.1180000E+00
       11   -1    0    0    0    0  0.00000000000E+00  0.00000000000E+00  0.39999999673E+01  0.40000000000E+01  0.51109989000E-03 0. -1.
     -623   -1    0    0    0    0  0.00000000000E+00  0.00000000000E+00  0.12525980253E-10  0.17130000000E+03  0.17130000000E+03 0.  1.
       11    1    1    2    0    0 -0.15638903761E-02 -0.20079214587E-02  0.13571451391E+00  0.13573933848E+00  0.51109989000E-03 0. -1.
     -623    1    1    2    0    0  0.14726631860E-02 -0.25481466260E-02  0.23453537620E-03  0.17130000003E+03  0.17130000000E+03 0.  1.
      622    1    1    2    0    0  0.91227189894E-04  0.45560680851E-02  0.38640509188E+01  0.38642606368E+01  0.40000000000E-01 0.  0.
</event>
<event>
 5   0  0.7212170E+07  0.9118800E+02  0.7818608E-02  0.1180000E+00
       11   -1    0    0    0    0  0.00000000000E+00  0.00000000000E+00  0.39999999673E+01  0.40000000000E+01  0.51109989000E-03 0. -1.
     -623   -1    0    0    0    0  0.00000000000E+00  0.00000000000E+00  0.12525980253E-10  0.17130000000E+03  0.17130000000E+03 0. -1.
       11    1    1    2    0    0  0.71680317578E-02  0.90495138109E-03  0.38100721552E-01  0.38783061021E-01  0.51109989000E-03 0. -1.
     -623    1    1    2    0    0 -0.37712869877E-02 -0.84615665884E-02  0.89318745083E-03  0.17130000025E+03  0.17130000000E+03 0. -1.
      622    1    1    2    0    0 -0.33967447698E-02  0.75566152077E-02  0.39610060586E+01  0.39612166864E+01  0.40000000000E-01 0. -1.
</event>
<event>
 5   0  0.7212170E+07  0.9118800E+02  0.7818608E-02  0.1180000E+00
       11   -1    0    0    0    0  0.00000000000E+00  0.00000000000E+00  0.39999999673E+01  0.40000000000E+01  0.51109989000E-03 0. -1.
     -623   -1    0    0    0    0  0.00000000000E+00  0.00000000000E+00  0.12525980253E-10  0.17130000000E+03  0.17130000000E+03 0.  1.
       11    1    1    2    0    0 -0.28203148574E-02  0.94293730113E-03  0.99288877186E+00  0.99289335672E+00  0.51109989000E-03 0. -1.
     -623    1    1    2    0    0  0.84631254577E-03 -0.89954269841E-03  0.27125339591E-03  0.17130000000E+03  0.17130000000E+03 0.  1.
      622    1    1    2    0    0  0.19740023114E-02 -0.43394602446E-04  0.30068399433E+01  0.30071066398E+01  0.40000000000E-01 0. -1.
</event>
<event>
 5   0  0.7212170E+07  0.9118800E+02  0.7818608E-02  0.1180000E+00
       11   -1    0    0    0    0  0.00000000000E+00  0.00000000000E+00  0.39999999673E+01  0.40000000000E+01  0.51109989000E-03 0. -1.
     -623   -1    0    0    0    0  0.00000000000E+00  0.00000000000E+00  0.12525980253E-10  0.17130000000E+03  0.17130000000E+03 0.  1.
       11    1    1    2    0    0 -0.22855554394E-02 -0.39977161353E-02  0.17011140818E-01  0.17630814871E-01  0.51109989000E-03 0. -1.
     -623    1    1    2    0    0  0.66950697322E-02  0.48326379532E-02  0.82326180221E-03  0.17130000020E+03  0.17130000000E+03 0.  1.
      622    1    1    2    0    0 -0.44095142930E-02 -0.83492181811E-03  0.39821655649E+01  0.39823689843E+01  0.40000000000E-01 0. -1.
</event>
<event>
 5   0  0.7212170E+07  0.9118800E+02  0.7818608E-02  0.1180000E+00
       11   -1    0    0    0    0  0.00000000000E+00  0.00000000000E+00  0.39999999673E+01  0.40000000000E+01  0.51109989000E-03 0.  1.
     -623   -1    0    0    0    0  0.00000000000E+00  0.00000000000E+00  0.12525980253E-10  0.17130000000E+03  0.17130000000E+03 0.  1.
       11    1    1    2    0    0  0.19875332661E-02 -0.16854747597E-03  0.15912582201E-01  0.16045254505E-01  0.51109989000E-03 0.  1.
     -623    1    1    2    0    0  0.11537200370E-06  0.31816974318E-03  0.33394950683E-03  0.17130000000E+03  0.17130000000E+03 0.  1.
      622    1    1    2    0    0 -0.19876486381E-02 -0.14962226728E-03  0.39837534366E+01  0.39839547458E+01  0.40000000000E-01 0.  1.
</event>
<event>
 5   0  0.7212170E+07  0.9118800E+02  0.7818608E-02  0.1180000E+00
       11   -1    0    0    0    0  0.00000000000E+00  0.00000000000E+00  0.39999999673E+01  0.40000000000E+01  0.51109989000E-03 0. -1.
     -623   -1    0    0    0    0  0.00000000000E+00  0.00000000000E+00  0.12525980253E-10  0.17130000000E+03  0.17130000000E+03 0.  1.
       11    1    1    2    0    0 -0.18546348156E-02  0.51217053646E-02  0.10685583348E+01  0.10685723408E+01  0.51109989000E-03 0. -1.
     -623    1    1    2    0    0  0.23382124979E-03  0.22897378944E-03  0.29222307356E-03  0.17130000000E+03  0.17130000000E+03 0.  1.
      622    1    1    2    0    0  0.16208135657E-02 -0.53506791541E-02  0.29311494105E+01  0.29314276596E+01  0.40000000000E-01 0. -1.
</event>
<event>
 5   0  0.7212170E+07  0.9118800E+02  0.7818608E-02  0.1180000E+00
       11   -1    0    0    0    0  0.00000000000E+00  0.00000000000E+00  0.39999999673E+01  0.40000000000E+01  0.51109989000E-03 0. -1.
     -623   -1    0    0    0    0  0.00000000000E+00  0.00000000000E+00  0.12525980253E-10  0.17130000000E+03  0.17130000000E+03 0.  1.
       11    1    1    2    0    0  0.23752518440E-01  0.24620514523E-01  0.32943868579E+01  0.32945645209E+01  0.51109989000E-03 0. -1.
     -623    1    1    2    0    0 -0.40774539481E-01  0.59321547780E-02  0.21865041253E-02  0.17130000497E+03  0.17130000000E+03 0.  1.
      622    1    1    2    0    0  0.17022021040E-01 -0.30552669301E-01  0.70342660528E+00  0.70543050956E+00  0.40000000000E-01 0. -1.
</event>
<event>
 5   0  0.7212170E+07  0.9118800E+02  0.7818608E-02  0.1180000E+00
       11   -1    0    0    0    0  0.00000000000E+00  0.00000000000E+00  0.39999999673E+01  0.40000000000E+01  0.51109989000E-03 0.  1.
     -623   -1    0    0    0    0  0.00000000000E+00  0.00000000000E+00  0.12525980253E-10  0.17130000000E+03  0.17130000000E+03 0.  1.
       11    1    1    2    0    0  0.30385598222E-02  0.33228618043E-04  0.59857493665E-01  0.59936756009E-01  0.51109989000E-03 0.  1.
     -623    1    1    2    0    0 -0.35625637227E-02 -0.11340588793E-03  0.28235034211E-03  0.17130000004E+03  0.17130000000E+03 0.  1.
      622    1    1    2    0    0  0.52400390015E-03  0.80177269872E-04  0.39398601229E+01  0.39400632063E+01  0.40000000000E-01 0.  1.
</event>
<event>
 5   0  0.7212170E+07  0.9118800E+02  0.7818608E-02  0.1180000E+00
       11   -1    0    0    0    0  0.00000000000E+00  0.00000000000E+00  0.39999999673E+01  0.40000000000E+01  0.51109989000E-03 0.  1.
     -623   -1    0    0    0    0  0.00000000000E+00  0.00000000000E+00  0.12525980253E-10  0.17130000000E+03  0.17130000000E+03 0. -1.
       11    1    1    2    0    0 -0.13690892416E-02 -0.15390962054E-02  0.49886417359E-02  0.54213459535E-02  0.51109989000E-03 0.  1.
     -623    1    1    2    0    0  0.57992676765E-02  0.12114436674E-01  0.64993203011E-03  0.17130000053E+03  0.17130000000E+03 0. -1.
      622    1    1    2    0    0 -0.44301784364E-02 -0.10575340471E-01  0.39943613946E+01  0.39945781273E+01  0.40000000000E-01 0.  1.
</event>
<event>
 5   0  0.7212170E+07  0.9118800E+02  0.7818608E-02  0.1180000E+00
       11   -1    0    0    0    0  0.00000000000E+00  0.00000000000E+00  0.39999999673E+01  0.40000000000E+01  0.51109989000E-03 0.  1.
     -623   -1    0    0    0    0  0.00000000000E+00  0.00000000000E+00  0.12525980253E-10  0.17130000000E+03  0.17130000000E+03 0. -1.
       11    1    1    2    0    0 -0.39252368253E-03  0.96733179490E-02  0.33942195465E+00  0.33956038001E+00  0.51109989000E-03 0.  1.
     -623    1    1    2    0    0  0.15431079726E-02 -0.11289251902E-01  0.35786912893E-03  0.17130000038E+03  0.17130000000E+03 0. -1.
      622    1    1    2    0    0 -0.11505842897E-02  0.16159339507E-02  0.36602201427E+01  0.36604392398E+01  0.40000000000E-01 0.  1.
</event>
<event>
 5   0  0.7212170E+07  0.9118800E+02  0.7818608E-02  0.1180000E+00
       11   -1    0    0    0    0  0.00000000000E+00  0.00000000000E+00  0.39999999673E+01  0.40000000000E+01  0.51109989000E-03 0. -1.
     -623   -1    0    0    0    0  0.00000000000E+00  0.00000000000E+00  0.12525980253E-10  0.17130000000E+03  0.17130000000E+03 0.  1.
       11    1    1    2    0    0  0.45569998586E-03  0.10290213442E-02  0.52355636847E-01  0.52370225130E-01  0.51109989000E-03 0. -1.
     -623    1    1    2    0    0  0.27099731469E-02  0.74691764111E-03  0.21890616437E-03  0.17130000002E+03  0.17130000000E+03 0.  1.
      622    1    1    2    0    0 -0.31656731335E-02 -0.17759389855E-02  0.39474254255E+01  0.39476297529E+01  0.40000000000E-01 0. -1.
</event>
<event>
 5   0  0.7212170E+07  0.9118800E+02  0.7818608E-02  0.1180000E+00
       11   -1    0    0    0    0  0.00000000000E+00  0.00000000000E+00  0.39999999673E+01  0.40000000000E+01  0.51109989000E-03 0. -1.
     -623   -1    0    0    0    0  0.00000000000E+00  0.00000000000E+00  0.12525980253E-10  0.17130000000E+03  0.17130000000E+03 0.  1.
       11    1    1    2    0    0 -0.20157065838E-01 -0.33081943365E-01  0.16514733772E+01  0.16519277524E+01  0.51109989000E-03 0. -1.
     -623    1    1    2    0    0  0.89027058922E-03  0.11039865743E-02  0.10919399553E-02  0.17130000001E+03  0.17130000000E+03 0.  1.
      622    1    1    2    0    0  0.19266795249E-01  0.31977956791E-01  0.23474346505E+01  0.23480722385E+01  0.40000000000E-01 0.  0.
</event>
<event>
 5   0  0.7212170E+07  0.9118800E+02  0.7818608E-02  0.1180000E+00
       11   -1    0    0    0    0  0.00000000000E+00  0.00000000000E+00  0.39999999673E+01  0.40000000000E+01  0.51109989000E-03 0. -1.
     -623   -1    0    0    0    0  0.00000000000E+00  0.00000000000E+00  0.12525980253E-10  0.17130000000E+03  0.17130000000E+03 0.  1.
       11    1    1    2    0    0 -0.16866531272E-02  0.28992630140E-02 -0.94401900356E-03  0.35217779277E-02  0.51109989000E-03 0. -1.
     -623    1    1    2    0    0  0.45536121502E-02  0.85160616411E-02  0.46836141058E-02  0.17130000034E+03  0.17130000000E+03 0.  1.
      622    1    1    2    0    0 -0.28669590230E-02 -0.11415324655E-01  0.39962603723E+01  0.39964778859E+01  0.40000000000E-01 0. -1.
</event>
<event>
 5   0  0.7212170E+07  0.9118800E+02  0.7818608E-02  0.1180000E+00
       11   -1    0    0    0    0  0.00000000000E+00  0.00000000000E+00  0.39999999673E+01  0.40000000000E+01  0.51109989000E-03 0.  1.
     -623   -1    0    0    0    0  0.00000000000E+00  0.00000000000E+00  0.12525980253E-10  0.17130000000E+03  0.17130000000E+03 0. -1.
       11    1    1    2    0    0 -0.21460164703E-02  0.77114520888E-02  0.75547868747E-01  0.75972452740E-01  0.51109989000E-03 0.  1.
     -623    1    1    2    0    0 -0.34719930260E-03  0.25519823747E-03  0.63731011218E-03  0.17130000000E+03  0.17130000000E+03 0. -1.
      622    1    1    2    0    0  0.24932157730E-02 -0.79666503263E-02  0.39238147889E+01  0.39240275459E+01  0.40000000000E-01 0.  0.
</event>
<event>
 5   0  0.7212170E+07  0.9118800E+02  0.7818608E-02  0.1180000E+00
       11   -1    0    0    0    0  0.00000000000E+00  0.00000000000E+00  0.39999999673E+01  0.40000000000E+01  0.51109989000E-03 0. -1.
     -623   -1    0    0    0    0  0.00000000000E+00  0.00000000000E+00  0.12525980253E-10  0.17130000000E+03  0.17130000000E+03 0.  1.
       11    1    1    2    0    0 -0.12033364330E-02  0.54068567670E-03  0.13392190442E-01  0.13466712572E-01  0.51109989000E-03 0. -1.
     -623    1    1    2    0    0  0.14569923175E-02 -0.14347148112E-03  0.27520448928E-03  0.17130000001E+03  0.17130000000E+03 0.  1.
      622    1    1    2    0    0 -0.25365588488E-03 -0.39721419554E-03  0.39863325734E+01  0.39865332819E+01  0.40000000000E-01 0. -1.
</event>
<event>
 5   0  0.7212170E+07  0.9118800E+02  0.7818608E-02  0.1180000E+00
       11   -1    0    0    0    0  0.00000000000E+00  0.00000000000E+00  0.39999999673E+01  0.40000000000E+01  0.51109989000E-03 0.  1.
     -623   -1    0    0    0    0  0.00000000000E+00  0.00000000000E+00  0.12525980253E-10  0.17130000000E+03  0.17130000000E+03 0.  1.
       11    1    1    2    0    0  0.66290170220E-02 -0.22653646625E-02  0.24149793673E+01  0.24149895821E+01  0.51109989000E-03 0.  1.
     -623    1    1    2    0    0  0.25994876194E-02 -0.11196117072E-01  0.59943683492E-03  0.17130000039E+03  0.17130000000E+03 0.  1.
      622    1    1    2    0    0 -0.92285046417E-02  0.13461481736E-01  0.15844211637E+01  0.15850100317E+01  0.40000000000E-01 0.  0.
</event>
<event>
 5   0  0.7212170E+07  0.9118800E+02  0.7818608E-02  0.1180000E+00
       11   -1    0    0    0    0  0.00000000000E+00  0.00000000000E+00  0.39999999673E+01  0.40000000000E+01  0.51109989000E-03 0.  1.
     -623   -1    0    0    0    0  0.00000000000E+00  0.00000000000E+00  0.12525980253E-10  0.17130000000E+03  0.17130000000E+03 0.  1.
       11    1    1    2    0    0 -0.20257578551E-02 -0.56546457047E-01  0.14988664379E+01  0.14999341537E+01  0.51109989000E-03 0.  1.
     -623    1    1    2    0    0  0.15741262928E-02 -0.38304732922E-03  0.20360994526E-02  0.17130000002E+03  0.17130000000E+03 0.  1.
      622    1    1    2    0    0  0.45163156228E-03  0.56929504376E-01  0.24990974299E+01  0.25000658264E+01  0.40000000000E-01 0.  1.
</event>
<event>
 5   0  0.7212170E+07  0.9118800E+02  0.7818608E-02  0.1180000E+00
       11   -1    0    0    0    0  0.00000000000E+00  0.00000000000E+00  0.39999999673E+01  0.40000000000E+01  0.51109989000E-03 0. -1.
     -623   -1    0    0    0    0  0.00000000000E+00  0.00000000000E+00  0.12525980253E-10  0.17130000000E+03  0.17130000000E+03 0.  1.
       11    1    1    2    0    0 -0.63190740129E-04 -0.93023807571E-02  0.53710408192E+00  0.53718487909E+00  0.51109989000E-03 0. -1.
     -623    1    1    2    0    0  0.96588107363E-03 -0.32831619109E-03  0.32531240074E-03  0.17130000000E+03  0.17130000000E+03 0.  1.
      622    1    1    2    0    0 -0.90269033339E-03  0.96306969482E-02  0.34625705726E+01  0.34628151171E+01  0.40000000000E-01 0. -1.
</event>
<event>
 5   0  0.7212170E+07  0.9118800E+02  0.7818608E-02  0.1180000E+00
       11   -1    0    0    0    0  0.00000000000E+00  0.00000000000E+00  0.39999999673E+01  0.40000000000E+01  0.51109989000E-03 0. -1.
     -623   -1    0    0    0    0  0.00000000000E+00  0.00000000000E+00  0.12525980253E-10  0.17130000000E+03  0.17130000000E+03 0. -1.
       11    1    1    2    0    0 -0.34381214445E-02  0.22480865678E-01  0.29339238013E+00  0.29427293444E+00  0.51109989000E-03 0. -1.
     -623    1    1    2    0    0 -0.13595462309E-02 -0.72853114140E-02  0.11308370495E-02  0.17130000016E+03  0.17130000000E+03 0. -1.
      622    1    1    2    0    0  0.47976676755E-02 -0.15195554263E-01  0.37054767506E+01  0.37057269020E+01  0.40000000000E-01 0.  0.
</event>
<event>
 5   0  0.7212170E+07  0.9118800E+02  0.7818608E-02  0.1180000E+00
       11   -1    0    0    0    0  0.00000000000E+00  0.00000000000E+00  0.39999999673E+01  0.40000000000E+01  0.51109989000E-03 0.  1.
     -623   -1    0    0    0    0  0.00000000000E+00  0.00000000000E+00  0.12525980253E-10  0.17130000000E+03  0.17130000000E+03 0. -1.
       11    1    1    2    0    0 -0.14351795772E-02 -0.29070589475E-02  0.11880373945E-02  0.34904710414E-02  0.51109989000E-03 0.  1.
     -623    1    1    2    0    0 -0.58147248638E-02  0.75750813028E-03  0.25098537715E-02  0.17130000012E+03  0.17130000000E+03 0. -1.
      622    1    1    2    0    0  0.72499044411E-02  0.21495508172E-02  0.39963020763E+01  0.39965094103E+01  0.40000000000E-01 0.  1.
</event>
<event>
 5   0  0.7212170E+07  0.9118800E+02  0.7818608E-02  0.1180000E+00
       11   -1    0    0    0    0  0.00000000000E+00  0.00000000000E+00  0.39999999673E+01  0.40000000000E+01  0.51109989000E-03 0.  1.
     -623   -1    0    0    0    0  0.00000000000E+00  0.00000000000E+00  0.12525980253E-10  0.17130000000E+03  0.17130000000E+03 0.  1.
       11    1    1    2    0    0  0.88060245621E-02  0.14657687323E-02  0.31431567329E+00  0.31444283781E+00  0.51109989000E-03 0.  1.
     -623    1    1    2    0    0  0.66407506046E-03 -0.11220887312E-02  0.35639066567E-03  0.17130000001E+03  0.17130000000E+03 0.  1.
      622    1    1    2    0    0 -0.94700996224E-02 -0.34368000138E-03  0.36853279025E+01  0.36855571559E+01  0.40000000000E-01 0.  1.
</event>
<event>
 5   0  0.7212170E+07  0.9118800E+02  0.7818608E-02  0.1180000E+00
       11   -1    0    0    0    0  0.00000000000E+00  0.00000000000E+00  0.39999999673E+01  0.40000000000E+01  0.51109989000E-03 0. -1.
     -623   -1    0    0    0    0  0.00000000000E+00  0.00000000000E+00  0.12525980253E-10  0.17130000000E+03  0.17130000000E+03 0. -1.
       11    1    1    2    0    0 -0.12217682578E-01  0.11337826364E-01  0.26697111570E+01  0.26697632369E+01  0.51109989000E-03 0. -1.
     -623    1    1    2    0    0 -0.28744809908E-05  0.70967008433E-02  0.83769221173E-03  0.17130000015E+03  0.17130000000E+03 0. -1.
      622    1    1    2    0    0  0.12220557059E-01 -0.18434527207E-01  0.13294511180E+01  0.13302366139E+01  0.40000000000E-01 0. -1.
</event>
<event>
 5   0  0.7212170E+07  0.9118800E+02  0.7818608E-02  0.1180000E+00
       11   -1    0    0    0    0  0.00000000000E+00  0.00000000000E+00  0.39999999673E+01  0.40000000000E+01  0.51109989000E-03 0.  1.
     -623   -1    0    0    0    0  0.00000000000E+00  0.00000000000E+00  0.12525980253E-10  0.17130000000E+03  0.17130000000E+03 0. -1.
       11    1    1    2    0    0  0.71369829083E-02  0.96576708116E-02  0.27062583210E+00  0.27089261591E+00  0.51109989000E-03 0.  1.
     -623    1    1    2    0    0 -0.11624740242E-02  0.14112467885E-02  0.50251127957E-03  0.17130000001E+03  0.17130000000E+03 0. -1.
      622    1    1    2    0    0 -0.59745088840E-02 -0.11068917600E-01  0.37288716244E+01  0.37291073741E+01  0.40000000000E-01 0.  1.
</event>
<event>
 5   0  0.7212170E+07  0.9118800E+02  0.7818608E-02  0.1180000E+00
       11   -1    0    0    0    0  0.00000000000E+00  0.00000000000E+00  0.39999999673E+01  0.40000000000E+01  0.51109989000E-03 0. -1.
     -623   -1    0    0    0    0  0.00000000000E+00  0.00000000000E+00  0.12525980253E-10  0.17130000000E+03  0.17130000000E+03 0. -1.
       11    1    1    2    0    0  0.94103645120E-02 -0.41992912003E-01  0.54657647670E+00  0.54826824249E+00  0.51109989000E-03 0. -1.
     -623    1    1    2    0    0 -0.22304581304E-02 -0.16952626585E-01  0.24352282224E-02  0.17130000087E+03  0.17130000000E+03 0. -1.
      622    1    1    2    0    0 -0.71799063814E-02  0.58945538588E-01  0.34509882626E+01  0.34517308870E+01  0.40000000000E-01 0. -1.
</event>
<event>
 5   0  0.7212170E+07  0.9118800E+02  0.7818608E-02  0.1180000E+00
       11   -1    0    0    0    0  0.00000000000E+00  0.00000000000E+00  0.39999999673E+01  0.40000000000E+01  0.51109989000E-03 0. -1.
     -623   -1    0    0    0    0  0.00000000000E+00  0.00000000000E+00  0.12525980253E-10  0.17130000000E+03  0.17130000000E+03 0. -1.
       11    1    1    2    0    0  0.66139614389E-02  0.98884227772E-02  0.17257084268E+00  0.17298116186E+00  0.51109989000E-03 0. -1.
     -623    1    1    2    0    0 -0.51094954464E-02  0.16553832941E-02  0.63712470369E-03  0.17130000009E+03  0.17130000000E+03 0. -1.
      622    1    1    2    0    0 -0.15044659916E-02 -0.11543806072E-01  0.38267920006E+01  0.38270187534E+01  0.40000000000E-01 0. -1.
</event>
<event>
 5   0  0.7212170E+07  0.9118800E+02  0.7818608E-02  0.1180000E+00
       11   -1    0    0    0    0  0.00000000000E+00  0.00000000000E+00  0.39999999673E+01  0.40000000000E+01  0.51109989000E-03 0. -1.
     -623   -1    0    0    0    0  0.00000000000E+00  0.00000000000E+00  0.12525980253E-10  0.17130000000E+03  0.17130000000E+03 0. -1.
       11    1    1    2    0    0  0.53399061821E-02  0.92877933013E-02  0.44420739931E+00  0.44433686830E+00  0.51109989000E-03 0. -1.
     -623    1    1    2    0    0  0.49631365888E-03 -0.19853137228E-02  0.36673859278E-03  0.17130000001E+03  0.17130000000E+03 0. -1.
      622    1    1    2    0    0 -0.58362198411E-02 -0.73024795782E-02  0.35554258302E+01  0.35556631198E+01  0.40000000000E-01 0.  0.
</event>
<event>
 5   0  0.7212170E+07  0.9118800E+02  0.7818608E-02  0.1180000E+00
       11   -1    0    0    0    0  0.00000000000E+00  0.00000000000E+00  0.39999999673E+01  0.40000000000E+01  0.51109989000E-03 0.  1.
     -623   -1    0    0    0    0  0.00000000000E+00  0.00000000000E+00  0.12525980253E-10  0.17130000000E+03  0.17130000000E+03 0.  1.
       11    1    1    2    0    0  0.67337003347E-02  0.11556519844E-01  0.38685052165E+00  0.38708201094E+00  0.51109989000E-03 0.  1.
     -623    1    1    2    0    0  0.11105171946E-03 -0.49098034710E-03  0.47632339002E-03  0.17130000000E+03  0.17130000000E+03 0.  1.
      622    1    1    2    0    0 -0.68447520542E-02 -0.11065539497E-01  0.36126731222E+01  0.36129179875E+01  0.40000000000E-01 0.  1.
</event>
<event>
 5   0  0.7212170E+07  0.9118800E+02  0.7818608E-02  0.1180000E+00
       11   -1    0    0    0    0  0.00000000000E+00  0.00000000000E+00  0.39999999673E+01  0.40000000000E+01  0.51109989000E-03 0. -1.
     -623   -1    0    0    0    0  0.00000000000E+00  0.00000000000E+00  0.12525980253E-10  0.17130000000E+03  0.17130000000E+03 0.  1.
       11    1    1    2    0    0  0.37411598174E-03 -0.13154796268E-02  0.19600516896E-02  0.24440693812E-02  0.51109989000E-03 0. -1.
     -623    1    1    2    0    0  0.79875223945E-02  0.31189808404E-02  0.69348063541E-03  0.17130000022E+03  0.17130000000E+03 0.  1.
      622    1    1    2    0    0 -0.83616383772E-02 -0.18035012140E-02  0.39973464355E+01  0.39975557151E+01  0.40000000000E-01 0. -1.
</event>
<event>
 5   0  0.7212170E+07  0.9118800E+02  0.7818608E-02  0.1180000E+00
       11   -1    0    0    0    0  0.00000000000E+00  0.00000000000E+00  0.39999999673E+01  0.40000000000E+01  0.51109989000E-03 0. -1.
     -623   -1    0    0    0    0  0.00000000000E+00  0.00000000000E+00  0.12525980253E-10  0.17130000000E+03  0.17130000000E+03 0. -1.
       11    1    1    2    0    0 -0.29592625492E-01  0.12895235008E-01  0.30963015627E+00  0.31130869803E+00  0.51109989000E-03 0. -1.
     -623    1    1    2    0    0  0.13523840652E-01 -0.86669615959E-02  0.19335840740E-02  0.17130000076E+03  0.17130000000E+03 0. -1.
      622    1    1    2    0    0  0.16068784840E-01 -0.42282734120E-02  0.36884362271E+01  0.36886905380E+01  0.40000000000E-01 0.  0.
</event>
<event>
 5   0  0.7212170E+07  0.9118800E+02  0.7818608E-02  0.1180000E+00
       11   -1    0    0    0    0  0.00000000000E+00  0.00000000000E+00  0.39999999673E+01  0.40000000000E+01  0.51109989000E-03 0.  1.
     -623   -1    0    0    0    0  0.00000000000E+00  0.00000000000E+00  0.12525980253E-10  0.17130000000E+03  0.17130000000E+03 0. -1.
       11    1    1    2    0    0  0.32380582558E-02 -0.11197814313E-01  0.70163321044E+00  0.70173021831E+00  0.51109989000E-03 0.  1.
     -623    1    1    2    0    0  0.21580873770E-02  0.83767497746E-02  0.34537539357E-03  0.17130000022E+03  0.17130000000E+03 0. -1.
      622    1    1    2    0    0 -0.53961456332E-02  0.28210645364E-02  0.32980213824E+01  0.32982695638E+01  0.40000000000E-01 0.  1.
</event>
<event>
 5   0  0.7212170E+07  0.9118800E+02  0.7818608E-02  0.1180000E+00
       11   -1    0    0    0    0  0.00000000000E+00  0.00000000000E+00  0.39999999673E+01  0.40000000000E+01  0.51109989000E-03 0. -1.
     -623   -1    0    0    0    0  0.00000000000E+00  0.00000000000E+00  0.12525980253E-10  0.17130000000E+03  0.17130000000E+03 0.  1.
       11    1    1    2    0    0 -0.14778131105E-02 -0.28918843891E-03  0.10126424605E-01  0.10250524861E-01  0.51109989000E-03 0. -1.
     -623    1    1    2    0    0 -0.20689012758E-04 -0.50807914626E-03  0.32494864705E-03  0.17130000000E+03  0.17130000000E+03 0.  1.
      622    1    1    2    0    0  0.14985021233E-02  0.79726758516E-03  0.39895485941E+01  0.39897494740E+01  0.40000000000E-01 0. -1.
</event>
<event>
 5   0  0.7212170E+07  0.9118800E+02  0.7818608E-02  0.1180000E+00
       11   -1    0    0    0    0  0.00000000000E+00  0.00000000000E+00  0.39999999673E+01  0.40000000000E+01  0.51109989000E-03 0.  1.
     -623   -1    0    0    0    0  0.00000000000E+00  0.00000000000E+00  0.12525980253E-10  0.17130000000E+03  0.17130000000E+03 0.  1.
       11    1    1    2    0    0  0.16418917513E-02  0.16969188414E-02  0.14484788260E-01  0.14684878485E-01  0.51109989000E-03 0. -1.
     -623    1    1    2    0    0  0.54422269725E-03  0.68044150911E-04  0.40179139889E-03  0.17130000000E+03  0.17130000000E+03 0.  1.
      622    1    1    2    0    0 -0.21861144486E-02 -0.17649629923E-02  0.39851133881E+01  0.39853151206E+01  0.40000000000E-01 0.  1.
</event>
<event>
 5   0  0.7212170E+07  0.9118800E+02  0.7818608E-02  0.1180000E+00
       11   -1    0    0    0    0  0.00000000000E+00  0.00000000000E+00  0.39999999673E+01  0.40000000000E+01  0.51109989000E-03 0. -1.
     -623   -1    0    0    0    0  0.00000000000E+00  0.00000000000E+00  0.12525980253E-10  0.17130000000E+03  0.17130000000E+03 0.  1.
       11    1    1    2    0    0 -0.71272439569E-03 -0.37377059077E-02  0.32169584448E-01  0.32397867340E-01  0.51109989000E-03 0. -1.
     -623    1    1    2    0    0  0.53947634198E-03 -0.89731065421E-04  0.43173990196E-03  0.17130000000E+03  0.17130000000E+03 0.  1.
      622    1    1    2    0    0  0.17324805361E-03  0.38274369731E-02  0.39673986438E+01  0.39676021320E+01  0.40000000000E-01 0. -1.
</event>
<event>
 5   0  0.7212170E+07  0.9118800E+02  0.7818608E-02  0.1180000E+00
       11   -1    0    0    0    0  0.00000000000E+00  0.00000000000E+00  0.39999999673E+01  0.40000000000E+01  0.51109989000E-03 0. -1.
     -623   -1    0    0    0    0  0.00000000000E+00  0.00000000000E+00  0.12525980253E-10  0.17130000000E+03  0.17130000000E+03 0. -1.
       11    1    1    2    0    0  0.50327306280E-01  0.12362412763E-02  0.25135019565E+01  0.25140061083E+01  0.51109989000E-03 0. -1.
     -623    1    1    2    0    0 -0.13721485036E-01  0.28556804620E-02  0.14998988623E-02  0.17130000058E+03  0.17130000000E+03 0. -1.
      622    1    1    2    0    0 -0.36605821243E-01 -0.40919217384E-02  0.14849981122E+01  0.14859933119E+01  0.40000000000E-01 0. -1.
</event>
<event>
 5   0  0.7212170E+07  0.9118800E+02  0.7818608E-02  0.1180000E+00
       11   -1    0    0    0    0  0.00000000000E+00  0.00000000000E+00  0.39999999673E+01  0.40000000000E+01  0.51109989000E-03 0.  1.
     -623   -1    0    0    0    0  0.00000000000E+00  0.00000000000E+00  0.12525980253E-10  0.17130000000E+03  0.17130000000E+03 0.  1.
       11    1    1    2    0    0 -0.22654836882E-02 -0.27649635579E-01  0.13154535278E+00  0.13443985951E+00  0.51109989000E-03 0.  1.
     -623    1    1    2    0    0 -0.17666515215E-01  0.10465208674E-01  0.31922863227E-02  0.17130000126E+03  0.17130000000E+03 0.  1.
      622    1    1    2    0    0  0.19931998903E-01  0.17184426904E-01  0.38652623283E+01  0.38655588801E+01  0.40000000000E-01 0.  1.
</event>
<event>
 5   0  0.7212170E+07  0.9118800E+02  0.7818608E-02  0.1180000E+00
       11   -1    0    0    0    0  0.00000000000E+00  0.00000000000E+00  0.39999999673E+01  0.40000000000E+01  0.51109989000E-03 0.  1.
     -623   -1    0    0    0    0  0.00000000000E+00  0.00000000000E+00  0.12525980253E-10  0.17130000000E+03  0.17130000000E+03 0. -1.
       11    1    1    2    0    0  0.63365135519E-03  0.55129325935E-02  0.18439202730E+00  0.18447621769E+00  0.51109989000E-03 0. -1.
     -623    1    1    2    0    0 -0.43603232725E-03  0.41859848684E-03  0.29845050259E-03  0.17130000000E+03  0.17130000000E+03 0. -1.
      622    1    1    2    0    0 -0.19761902794E-03 -0.59315310803E-02  0.38153094896E+01  0.38155237810E+01  0.40000000000E-01 0.  1.
</event>
<event>
 5   0  0.7212170E+07  0.9118800E+02  0.7818608E-02  0.1180000E+00
       11   -1    0    0    0    0  0.00000000000E+00  0.00000000000E+00  0.39999999673E+01  0.40000000000E+01  0.51109989000E-03 0. -1.
     -623   -1    0    0    0    0  0.00000000000E+00  0.00000000000E+00  0.12525980253E-10  0.17130000000E+03  0.17130000000E+03 0.  1.
       11    1    1    2    0    0 -0.22112080466E-01  0.24580810249E-01  0.36724319572E+01  0.36725808230E+01  0.51109989000E-03 0. -1.
     -623    1    1    2    0    0  0.26520325457E-01 -0.87599245753E-02  0.30189753823E-02  0.17130000230E+03  0.17130000000E+03 0.  1.
      622    1    1    2    0    0 -0.44082449903E-02 -0.15820885674E-01  0.32454903474E+00  0.32741687342E+00  0.40000000000E-01 0.  1.
</event>
<event>
 5   0  0.7212170E+07  0.9118800E+02  0.7818608E-02  0.1180000E+00
       11   -1    0    0    0    0  0.00000000000E+00  0.00000000000E+00  0.39999999673E+01  0.40000000000E+01  0.51109989000E-03 0. -1.
     -623   -1    0    0    0    0  0.00000000000E+00  0.00000000000E+00  0.12525980253E-10  0.17130000000E+03  0.17130000000E+03 0. -1.
       11    1    1    2    0    0 -0.43710462548E-02  0.61732456556E-03  0.20293656906E-01  0.20774524512E-01  0.51109989000E-03 0. -1.
     -623    1    1    2    0    0  0.29333276057E-03 -0.52978538144E-03  0.68397701857E-03  0.17130000000E+03  0.17130000000E+03 0. -1.
      622    1    1    2    0    0  0.40777134942E-02 -0.87539184090E-04  0.39790223336E+01  0.39792254732E+01  0.40000000000E-01 0. -1.
</event>
<event>
 5   0  0.7212170E+07  0.9118800E+02  0.7818608E-02  0.1180000E+00
       11   -1    0    0    0    0  0.00000000000E+00  0.00000000000E+00  0.39999999673E+01  0.40000000000E+01  0.51109989000E-03 0.  1.
     -623   -1    0    0    0    0  0.00000000000E+00  0.00000000000E+00  0.12525980253E-10  0.17130000000E+03  0.17130000000E+03 0.  1.
       11    1    1    2    0    0 -0.15667461129E-02  0.48542755633E-03  0.29628480216E-01  0.29678247864E-01  0.51109989000E-03 0.  1.
     -623    1    1    2    0    0  0.24468255724E-02 -0.12629571378E-02  0.25143112665E-03  0.17130000002E+03  0.17130000000E+03 0.  1.
      622    1    1    2    0    0 -0.88007945921E-03  0.77752958130E-03  0.39701200555E+01  0.39703217293E+01  0.40000000000E-01 0.  1.
</event>
<event>
 5   0  0.7212170E+07  0.9118800E+02  0.7818608E-02  0.1180000E+00
       11   -1    0    0    0    0  0.00000000000E+00  0.00000000000E+00  0.39999999673E+01  0.40000000000E+01  0.51109989000E-03 0.  1.
     -623   -1    0    0    0    0  0.00000000000E+00  0.00000000000E+00  0.12525980253E-10  0.17130000000E+03  0.17130000000E+03 0. -1.
       11    1    1    2    0    0 -0.19594882152E-05  0.15069564030E-01  0.57229111542E+00  0.57248971499E+00  0.51109989000E-03 0.  1.
     -623    1    1    2    0    0 -0.77321025337E-02 -0.31844086732E-02  0.46151949020E-03  0.17130000020E+03  0.17130000000E+03 0. -1.
      622    1    1    2    0    0  0.77340620234E-02 -0.11885155357E-01  0.34272473332E+01  0.34275100811E+01  0.40000000000E-01 0.  1.
</event>
<event>
 5   0  0.7212170E+07  0.9118800E+02  0.7818608E-02  0.1180000E+00
       11   -1    0    0    0    0  0.00000000000E+00  0.00000000000E+00  0.39999999673E+01  0.40000000000E+01  0.51109989000E-03 0.  1.
     -623   -1    0    0    0    0  0.00000000000E+00  0.00000000000E+00  0.12525980253E-10  0.17130000000E+03  0.17130000000E+03 0.  1.
       11    1    1    2    0    0 -0.51458502029E-02 -0.20126076878E-02  0.15963679475E+00  0.15973320827E+00  0.51109989000E-03 0.  1.
     -623    1    1    2    0    0  0.60537595871E-03 -0.19840607136E-02  0.30948239075E-03  0.17130000001E+03  0.17130000000E+03 0.  1.
      622    1    1    2    0    0  0.45404742439E-02  0.39966684022E-02  0.38400536918E+01  0.38402667805E+01  0.40000000000E-01 0.  1.
</event>
<event>
 5   0  0.7212170E+07  0.9118800E+02  0.7818608E-02  0.1180000E+00
       11   -1    0    0    0    0  0.00000000000E+00  0.00000000000E+00  0.39999999673E+01  0.40000000000E+01  0.51109989000E-03 0.  1.
     -623   -1    0    0    0    0  0.00000000000E+00  0.00000000000E+00  0.12525980253E-10  0.17130000000E+03  0.17130000000E+03 0. -1.
       11    1    1    2    0    0 -0.27309604404E-01  0.29154193398E-01  0.25147214420E+01  0.25150387619E+01  0.51109989000E-03 0.  1.
     -623    1    1    2    0    0  0.49140058116E-02 -0.39174129862E-02  0.12397572584E-02  0.17130000012E+03  0.17130000000E+03 0. -1.
      622    1    1    2    0    0  0.22395598592E-01 -0.25236780412E-01  0.14840387682E+01  0.14849611185E+01  0.40000000000E-01 0.  0.
</event>
<event>
 5   0  0.7212170E+07  0.9118800E+02  0.7818608E-02  0.1180000E+00
       11   -1    0    0    0    0  0.00000000000E+00  0.00000000000E+00  0.39999999673E+01  0.40000000000E+01  0.51109989000E-03 0. -1.
     -623   -1    0    0    0    0  0.00000000000E+00  0.00000000000E+00  0.12525980253E-10  0.17130000000E+03  0.17130000000E+03 0.  1.
       11    1    1    2    0    0  0.39162153107E-02  0.15613710219E-01  0.71288904271E+00  0.71307094537E+00  0.51109989000E-03 0. -1.
     -623    1    1    2    0    0 -0.10597700184E-01 -0.17477104179E-01  0.43380694420E-03  0.17130000122E+03  0.17130000000E+03 0.  1.
      622    1    1    2    0    0  0.66814848750E-02  0.18633939634E-02  0.32866771184E+01  0.32869278354E+01  0.40000000000E-01 0. -1.
</event>
<event>
 5   0  0.7212170E+07  0.9118800E+02  0.7818608E-02  0.1180000E+00
       11   -1    0    0    0    0  0.00000000000E+00  0.00000000000E+00  0.39999999673E+01  0.40000000000E+01  0.51109989000E-03 0.  1.
     -623   -1    0    0    0    0  0.00000000000E+00  0.00000000000E+00  0.12525980253E-10  0.17130000000E+03  0.17130000000E+03 0.  1.
       11    1    1    2    0    0  0.24975295052E-02 -0.11027988510E-02  0.21263753215E-01  0.21444398868E-01  0.51109989000E-03 0.  1.
     -623    1    1    2    0    0  0.14629929208E-01  0.24648957274E-02  0.41944070314E-03  0.17130000064E+03  0.17130000000E+03 0.  1.
      622    1    1    2    0    0 -0.17127458712E-01 -0.13620968761E-02  0.39783167729E+01  0.39785549576E+01  0.40000000000E-01 0.  1.
</event>
<event>
 5   0  0.7212170E+07  0.9118800E+02  0.7818608E-02  0.1180000E+00
       11   -1    0    0    0    0  0.00000000000E+00  0.00000000000E+00  0.39999999673E+01  0.40000000000E+01  0.51109989000E-03 0. -1.
     -623   -1    0    0    0    0  0.00000000000E+00  0.00000000000E+00  0.12525980253E-10  0.17130000000E+03  0.17130000000E+03 0. -1.
       11    1    1    2    0    0 -0.56414453848E-02  0.52596579264E-02  0.18504437303E+00  0.18520575348E+00  0.51109989000E-03 0. -1.
     -623    1    1    2    0    0  0.22503999846E-02  0.71536930463E-02  0.39293303244E-03  0.17130000016E+03  0.17130000000E+03 0. -1.
      622    1    1    2    0    0  0.33910453997E-02 -0.12413350974E-01  0.38145626623E+01  0.38147940829E+01  0.40000000000E-01 0. -1.
</event>
<event>
 5   0  0.7212170E+07  0.9118800E+02  0.7818608E-02  0.1180000E+00
       11   -1    0    0    0    0  0.00000000000E+00  0.00000000000E+00  0.39999999673E+01  0.40000000000E+01  0.51109989000E-03 0.  1.
     -623   -1    0    0    0    0  0.00000000000E+00  0.00000000000E+00  0.12525980253E-10  0.17130000000E+03  0.17130000000E+03 0.  1.
       11    1    1    2    0    0 -0.39335408467E-02 -0.72368405436E-02  0.14118854376E+01  0.14119095561E+01  0.51109989000E-03 0.  1.
     -623    1    1    2    0    0  0.78865789261E-02 -0.89533958453E-02  0.38729487393E-03  0.17130000042E+03  0.17130000000E+03 0.  1.
      622    1    1    2    0    0 -0.39530380805E-02  0.16190236390E-01  0.25877272355E+01  0.25880900285E+01  0.40000000000E-01 0.  1.
</event>
<event>
 5   0  0.7212170E+07  0.9118800E+02  0.7818608E-02  0.1180000E+00
       11   -1    0    0    0    0  0.00000000000E+00  0.00000000000E+00  0.39999999673E+01  0.40000000000E+01  0.51109989000E-03 0. -1.
     -623   -1    0    0    0    0  0.00000000000E+00  0.00000000000E+00  0.12525980253E-10  0.17130000000E+03  0.17130000000E+03 0. -1.
       11    1    1    2    0    0  0.72714272262E-02  0.33481553850E-02  0.47793769372E-01  0.48462247288E-01  0.51109989000E-03 0. -1.
     -623    1    1    2    0    0 -0.28471350033E-02  0.52349886966E-02  0.88280838419E-03  0.17130000011E+03  0.17130000000E+03 0. -1.
      622    1    1    2    0    0 -0.44242922228E-02 -0.85831440820E-02  0.39513233899E+01  0.39515376471E+01  0.40000000000E-01 0. -1.
</event>
<event>
 5   0  0.7212170E+07  0.9118800E+02  0.7818608E-02  0.1180000E+00
       11   -1    0    0    0    0  0.00000000000E+00  0.00000000000E+00  0.39999999673E+01  0.40000000000E+01  0.51109989000E-03 0.  1.
     -623   -1    0    0    0    0  0.00000000000E+00  0.00000000000E+00  0.12525980253E-10  0.17130000000E+03  0.17130000000E+03 0. -1.
       11    1    1    2    0    0  0.68457718941E-02  0.76301635986E-03  0.34225214393E+00  0.34232183400E+00  0.51109989000E-03 0.  1.
     -623    1    1    2    0    0 -0.48353502717E-02 -0.27894848613E-02  0.28958710285E-03  0.17130000009E+03  0.17130000000E+03 0. -1.
      622    1    1    2    0    0 -0.20104216207E-02  0.20264685024E-02  0.36574582377E+01  0.36576780762E+01  0.40000000000E-01 0.  1.
</event>
<event>
 5   0  0.7212170E+07  0.9118800E+02  0.7818608E-02  0.1180000E+00
       11   -1    0    0    0    0  0.00000000000E+00  0.00000000000E+00  0.39999999673E+01  0.40000000000E+01  0.51109989000E-03 0.  1.
     -623   -1    0    0    0    0  0.00000000000E+00  0.00000000000E+00  0.12525980253E-10  0.17130000000E+03  0.17130000000E+03 0.  1.
       11    1    1    2    0    0 -0.31935165165E-02  0.12907471050E-01  0.37382191199E+00  0.37405866446E+00  0.51109989000E-03 0.  1.
     -623    1    1    2    0    0 -0.78541064045E-02 -0.26765925413E-02  0.48882635018E-03  0.17130000020E+03  0.17130000000E+03 0.  1.
      622    1    1    2    0    0  0.11047622923E-01 -0.10230878509E-01  0.36256892299E+01  0.36259411347E+01  0.40000000000E-01 0.  1.
</event>
<event>
 5   0  0.7212170E+07  0.9118800E+02  0.7818608E-02  0.1180000E+00
       11   -1    0    0    0    0  0.00000000000E+00  0.00000000000E+00  0.39999999673E+01  0.40000000000E+01  0.51109989000E-03 0. -1.
     -623   -1    0    0    0    0  0.00000000000E+00  0.00000000000E+00  0.12525980253E-10  0.17130000000E+03  0.17130000000E+03 0.  1.
       11    1    1    2    0    0 -0.13071043946E-01 -0.12694333880E-01  0.36809279810E+00  0.36854384751E+00  0.51109989000E-03 0. -1.
     -623    1    1    2    0    0  0.54490394674E-03 -0.18351667017E-02  0.72200624025E-03  0.17130000001E+03  0.17130000000E+03 0.  1.
      622    1    1    2    0    0  0.12526139999E-01  0.14529500582E-01  0.36311851633E+01  0.36314561406E+01  0.40000000000E-01 0. -1.
</event>
<event>
 5   0  0.7212170E+07  0.9118800E+02  0.7818608E-02  0.1180000E+00
       11   -1    0    0    0    0  0.00000000000E+00  0.00000000000E+00  0.39999999673E+01  0.40000000000E+01  0.51109989000E-03 0.  1.
     -623   -1    0    0    0    0  0.00000000000E+00  0.00000000000E+00  0.12525980253E-10  0.17130000000E+03  0.17130000000E+03 0.  1.
       11    1    1    2    0    0  0.51438424283E-02 -0.56800965783E-02  0.75820165532E+00  0.75824055152E+00  0.51109989000E-03 0.  1.
     -623    1    1    2    0    0  0.78953197541E-03  0.10250371586E-02  0.29443050632E-03  0.17130000001E+03  0.17130000000E+03 0.  1.
      622    1    1    2    0    0 -0.59333744039E-02  0.46550594195E-02  0.32415038827E+01  0.32417594445E+01  0.40000000000E-01 0.  1.
</event>
<event>
 5   0  0.7212170E+07  0.9118800E+02  0.7818608E-02  0.1180000E+00
       11   -1    0    0    0    0  0.00000000000E+00  0.00000000000E+00  0.39999999673E+01  0.40000000000E+01  0.51109989000E-03 0. -1.
     -623   -1    0    0    0    0  0.00000000000E+00  0.00000000000E+00  0.12525980253E-10  0.17130000000E+03  0.17130000000E+03 0.  1.
       11    1    1    2    0    0  0.74075965874E-02  0.12786539818E-02  0.19293044632E+00  0.19307751237E+00  0.51109989000E-03 0. -1.
     -623    1    1    2    0    0  0.17589995269E-03 -0.35982830589E-03  0.36484814637E-03  0.17130000000E+03  0.17130000000E+03 0.  1.
      622    1    1    2    0    0 -0.75834965401E-02 -0.91882567585E-03  0.38067046738E+01  0.38069224877E+01  0.40000000000E-01 0. -1.
</event>
<event>
 5   0  0.7212170E+07  0.9118800E+02  0.7818608E-02  0.1180000E+00
       11   -1    0    0    0    0  0.00000000000E+00  0.00000000000E+00  0.39999999673E+01  0.40000000000E+01  0.51109989000E-03 0. -1.
     -623   -1    0    0    0    0  0.00000000000E+00  0.00000000000E+00  0.12525980253E-10  0.17130000000E+03  0.17130000000E+03 0. -1.
       11    1    1    2    0    0 -0.21934142125E-02  0.32225513232E-02  0.50001735579E-02  0.63607280750E-02  0.51109989000E-03 0. -1.
     -623    1    1    2    0    0  0.25740322213E-02  0.37230657097E-02  0.15669706627E-02  0.17130000007E+03  0.17130000000E+03 0. -1.
      622    1    1    2    0    0 -0.38061800883E-03 -0.69456170329E-02  0.39934328232E+01  0.39936392050E+01  0.40000000000E-01 0. -1.
</event>
<event>
 5   0  0.7212170E+07  0.9118800E+02  0.7818608E-02  0.1180000E+00
       11   -1    0    0    0    0  0.00000000000E+00  0.00000000000E+00  0.39999999673E+01  0.40000000000E+01  0.51109989000E-03 0.  1.
     -623   -1    0    0    0    0  0.00000000000E+00  0.00000000000E+00  0.12525980253E-10  0.17130000000E+03  0.17130000000E+03 0.  1.
       11    1    1    2    0    0  0.44231373390E-03  0.80978568328E-03  0.48718626572E-02  0.49847430366E-02  0.51109989000E-03 0.  1.
     -623    1    1    2    0    0 -0.11382668590E-02  0.14637005049E-02  0.31382018302E-03  0.17130000001E+03  0.17130000000E+03 0.  1.
      622    1    1    2    0    0  0.69595312517E-03 -0.22734861883E-02  0.39948142847E+01  0.39950152469E+01  0.40000000000E-01 0.  1.
</event>
<event>
 5   0  0.7212170E+07  0.9118800E+02  0.7818608E-02  0.1180000E+00
       11   -1    0    0    0    0  0.00000000000E+00  0.00000000000E+00  0.39999999673E+01  0.40000000000E+01  0.51109989000E-03 0. -1.
     -623   -1    0    0    0    0  0.00000000000E+00  0.00000000000E+00  0.12525980253E-10  0.17130000000E+03  0.17130000000E+03 0. -1.
       11    1    1    2    0    0 -0.56267726905E-03 -0.28208105696E-02  0.36292494621E-01  0.36409888312E-01  0.51109989000E-03 0. -1.
     -623    1    1    2    0    0  0.21246615872E-02 -0.24544842197E-03  0.32071095195E-03  0.17130000001E+03  0.17130000000E+03 0. -1.
      622    1    1    2    0    0 -0.15619843185E-02  0.30662589916E-02  0.39633867624E+01  0.39635900986E+01  0.40000000000E-01 0. -1.
</event>
<event>
 5   0  0.7212170E+07  0.9118800E+02  0.7818608E-02  0.1180000E+00
       11   -1    0    0    0    0  0.00000000000E+00  0.00000000000E+00  0.39999999673E+01  0.40000000000E+01  0.51109989000E-03 0.  1.
     -623   -1    0    0    0    0  0.00000000000E+00  0.00000000000E+00  0.12525980253E-10  0.17130000000E+03  0.17130000000E+03 0. -1.
       11    1    1    2    0    0 -0.16794090530E-02  0.24454861677E-02  0.33968606607E-01  0.34101734198E-01  0.51109989000E-03 0.  1.
     -623    1    1    2    0    0  0.15079185655E-02 -0.88518800410E-03  0.33513973821E-03  0.17130000001E+03  0.17130000000E+03 0. -1.
      622    1    1    2    0    0  0.17149048793E-03 -0.15602981638E-02  0.39656962199E+01  0.39658982554E+01  0.40000000000E-01 0.  1.
</event>
<event>
 5   0  0.7212170E+07  0.9118800E+02  0.7818608E-02  0.1180000E+00
       11   -1    0    0    0    0  0.00000000000E+00  0.00000000000E+00  0.39999999673E+01  0.40000000000E+01  0.51109989000E-03 0. -1.
     -623   -1    0    0    0    0  0.00000000000E+00  0.00000000000E+00  0.12525980253E-10  0.17130000000E+03  0.17130000000E+03 0. -1.
       11    1    1    2    0    0 -0.35333743452E-02 -0.28155473581E-03  0.59829031990E-02  0.69728302086E-02  0.51109989000E-03 0. -1.
     -623    1    1    2    0    0 -0.26945485509E-02  0.11640159237E-02  0.11952325734E-02  0.17130000003E+03  0.17130000000E+03 0. -1.
      622    1    1    2    0    0  0.62279228962E-02 -0.88246118795E-03  0.39928218319E+01  0.39930271407E+01  0.40000000000E-01 0. -1.
</event>
<event>
 5   0  0.7212170E+07  0.9118800E+02  0.7818608E-02  0.1180000E+00
       11   -1    0    0    0    0  0.00000000000E+00  0.00000000000E+00  0.39999999673E+01  0.40000000000E+01  0.51109989000E-03 0.  1.
     -623   -1    0    0    0    0  0.00000000000E+00  0.00000000000E+00  0.12525980253E-10  0.17130000000E+03  0.17130000000E+03 0.  1.
       11    1    1    2    0    0 -0.27106711181E-02 -0.52238424435E-02  0.88494621789E+00  0.88496593496E+00  0.51109989000E-03 0.  1.
     -623    1    1    2    0    0  0.12517134751E-02 -0.11763054094E-03  0.28144057551E-03  0.17130000000E+03  0.17130000000E+03 0.  1.
      622    1    1    2    0    0  0.14589576423E-02  0.53414729845E-02  0.31147723110E+01  0.31150340623E+01  0.40000000000E-01 0.  1.
</event>
<event>
 5   0  0.7212170E+07  0.9118800E+02  0.7818608E-02  0.1180000E+00
       11   -1    0    0    0    0  0.00000000000E+00  0.00000000000E+00  0.39999999673E+01  0.40000000000E+01  0.51109989000E-03 0.  1.
     -623   -1    0    0    0    0  0.00000000000E+00  0.00000000000E+00  0.12525980253E-10  0.17130000000E+03  0.17130000000E+03 0. -1.
       11    1    1    2    0    0  0.98924725032E-02 -0.22302747989E-01  0.20742734090E+00  0.20885793390E+00  0.51109989000E-03 0.  1.
     -623    1    1    2    0    0 -0.11998075036E-01 -0.11712982501E-01  0.17956126787E-02  0.17130000083E+03  0.17130000000E+03 0. -1.
      622    1    1    2    0    0  0.21056025340E-02  0.34015730491E-01  0.37907770142E+01  0.37911412364E+01  0.40000000000E-01 0.  1.
</event>
<event>
 5   0  0.7212170E+07  0.9118800E+02  0.7818608E-02  0.1180000E+00
       11   -1    0    0    0    0  0.00000000000E+00  0.00000000000E+00  0.39999999673E+01  0.40000000000E+01  0.51109989000E-03 0.  1.
     -623   -1    0    0    0    0  0.00000000000E+00  0.00000000000E+00  0.12525980253E-10  0.17130000000E+03  0.17130000000E+03 0. -1.
       11    1    1    2    0    0  0.11130162805E-01  0.56847240827E-02  0.41929788067E-01  0.43755742050E-01  0.51109989000E-03 0.  1.
     -623    1    1    2    0    0 -0.24261004425E-02  0.28125514651E-02  0.20468921058E-02  0.17130000005E+03  0.17130000000E+03 0. -1.
      622    1    1    2    0    0 -0.87040623624E-02 -0.84972755479E-02  0.39560232874E+01  0.39562442056E+01  0.40000000000E-01 0.  1.
</event>
<event>
 5   0  0.7212170E+07  0.9118800E+02  0.7818608E-02  0.1180000E+00
       11   -1    0    0    0    0  0.00000000000E+00  0.00000000000E+00  0.39999999673E+01  0.40000000000E+01  0.51109989000E-03 0.  1.
     -623   -1    0    0    0    0  0.00000000000E+00  0.00000000000E+00  0.12525980253E-10  0.17130000000E+03  0.17130000000E+03 0. -1.
       11    1    1    2    0    0  0.53390943604E-03 -0.28382991849E-03  0.34436322472E-02  0.35334748987E-02  0.51109989000E-03 0.  1.
     -623    1    1    2    0    0 -0.23740484380E-03  0.10619030407E-03  0.29000724549E-03  0.17130000000E+03  0.17130000000E+03 0. -1.
      622    1    1    2    0    0 -0.29650459216E-03  0.17763961439E-03  0.39962663291E+01  0.39964665259E+01  0.40000000000E-01 0.  1.
</event>
<event>
 5   0  0.7212170E+07  0.9118800E+02  0.7818608E-02  0.1180000E+00
       11   -1    0    0    0    0  0.00000000000E+00  0.00000000000E+00  0.39999999673E+01  0.40000000000E+01  0.51109989000E-03 0. -1.
     -623   -1    0    0    0    0  0.00000000000E+00  0.00000000000E+00  0.12525980253E-10  0.17130000000E+03  0.17130000000E+03 0. -1.
       11    1    1    2    0    0 -0.54630317227E-02 -0.10962809017E-01  0.26505691061E+00  0.26534026265E+00  0.51109989000E-03 0. -1.
     -623    1    1    2    0    0  0.82365734485E-03  0.15747168033E-02  0.51222740619E-03  0.17130000001E+03  0.17130000000E+03 0. -1.
      622    1    1    2    0    0  0.46393743776E-02  0.93880922135E-02  0.37344308307E+01  0.37346597287E+01  0.40000000000E-01 0.  0.
</event>
<event>
 5   0  0.7212170E+07  0.9118800E+02  0.7818608E-02  0.1180000E+00
       11   -1    0    0    0    0  0.00000000000E+00  0.00000000000E+00  0.39999999673E+01  0.40000000000E+01  0.51109989000E-03 0. -1.
     -623   -1    0    0    0    0  0.00000000000E+00  0.00000000000E+00  0.12525980253E-10  0.17130000000E+03  0.17130000000E+03 0. -1.
       11    1    1    2    0    0  0.98985113414E-02  0.65268334661E-02  0.13341707676E-01  0.17856160524E-01  0.51109989000E-03 0. -1.
     -623    1    1    2    0    0  0.44226694210E-02 -0.54560467820E-02  0.47414290432E-02  0.17130000021E+03  0.17130000000E+03 0. -1.
      622    1    1    2    0    0 -0.14321180762E-01 -0.10707866840E-02  0.39819168307E+01  0.39821436299E+01  0.40000000000E-01 0. -1.
</event>
<event>
 5   0  0.7212170E+07  0.9118800E+02  0.7818608E-02  0.1180000E+00
       11   -1    0    0    0    0  0.00000000000E+00  0.00000000000E+00  0.39999999673E+01  0.40000000000E+01  0.51109989000E-03 0.  1.
     -623   -1    0    0    0    0  0.00000000000E+00  0.00000000000E+00  0.12525980253E-10  0.17130000000E+03  0.17130000000E+03 0. -1.
       11    1    1    2    0    0  0.65422564643E-03 -0.20921505380E-02  0.28357260444E-02  0.36204516799E-02  0.51109989000E-03 0.  1.
     -623    1    1    2    0    0 -0.73552507055E-03 -0.12403143737E-02  0.98627842465E-03  0.17130000001E+03  0.17130000000E+03 0. -1.
      622    1    1    2    0    0  0.81299424161E-04  0.33324649119E-02  0.39961779631E+01  0.39963795397E+01  0.40000000000E-01 0.  1.
</event>
<event>
 5   0  0.7212170E+07  0.9118800E+02  0.7818608E-02  0.1180000E+00
       11   -1    0    0    0    0  0.00000000000E+00  0.00000000000E+00  0.39999999673E+01  0.40000000000E+01  0.51109989000E-03 0.  1.
     -623   -1    0    0    0    0  0.00000000000E+00  0.00000000000E+00  0.12525980253E-10  0.17130000000E+03  0.17130000000E+03 0. -1.
       11    1    1    2    0    0  0.43718091805E-02  0.26973857624E-03  0.13812111883E+00  0.13819149816E+00  0.51109989000E-03 0.  1.
     -623    1    1    2    0    0  0.45560786495E-03 -0.21273863464E-03  0.28052786175E-03  0.17130000000E+03  0.17130000000E+03 0. -1.
      622    1    1    2    0    0 -0.48274170454E-02 -0.56999941603E-04  0.38615983206E+01  0.38618085008E+01  0.40000000000E-01 0.  0.
</event>
<event>
 5   0  0.7212170E+07  0.9118800E+02  0.7818608E-02  0.1180000E+00
       11   -1    0    0    0    0  0.00000000000E+00  0.00000000000E+00  0.39999999673E+01  0.40000000000E+01  0.51109989000E-03 0.  1.
     -623   -1    0    0    0    0  0.00000000000E+00  0.00000000000E+00  0.12525980253E-10  0.17130000000E+03  0.17130000000E+03 0.  1.
       11    1    1    2    0    0  0.15076690002E-01 -0.30937365293E-01  0.40505956873E+00  0.40651930162E+00  0.51109989000E-03 0.  1.
     -623    1    1    2    0    0 -0.40719930841E-02  0.12508733529E-01  0.17469558061E-02  0.17130000051E+03  0.17130000000E+03 0.  1.
      622    1    1    2    0    0 -0.11004696917E-01  0.18428631764E-01  0.35931934429E+01  0.35934801844E+01  0.40000000000E-01 0.  0.
</event>
<event>
 5   0  0.7212170E+07  0.9118800E+02  0.7818608E-02  0.1180000E+00
       11   -1    0    0    0    0  0.00000000000E+00  0.00000000000E+00  0.39999999673E+01  0.40000000000E+01  0.51109989000E-03 0. -1.
     -623   -1    0    0    0    0  0.00000000000E+00  0.00000000000E+00  0.12525980253E-10  0.17130000000E+03  0.17130000000E+03 0. -1.
       11    1    1    2    0    0  0.52749595154E-02  0.86245075407E-03  0.14186490850E+01  0.14186592461E+01  0.51109989000E-03 0. -1.
     -623    1    1    2    0    0  0.37342857951E-02  0.85132407470E-02  0.35306884383E-03  0.17130000025E+03  0.17130000000E+03 0. -1.
      622    1    1    2    0    0 -0.90092453114E-02 -0.93756915032E-02  0.25809978145E+01  0.25813405022E+01  0.40000000000E-01 0. -1.
</event>
<event>
 5   0  0.7212170E+07  0.9118800E+02  0.7818608E-02  0.1180000E+00
       11   -1    0    0    0    0  0.00000000000E+00  0.00000000000E+00  0.39999999673E+01  0.40000000000E+01  0.51109989000E-03 0.  1.
     -623   -1    0    0    0    0  0.00000000000E+00  0.00000000000E+00  0.12525980253E-10  0.17130000000E+03  0.17130000000E+03 0. -1.
       11    1    1    2    0    0 -0.17534370427E-02 -0.47020594856E-03  0.11927251217E-01  0.12075437043E-01  0.51109989000E-03 0.  1.
     -623    1    1    2    0    0  0.17146942429E-02  0.30969177501E-03  0.34877646816E-03  0.17130000001E+03  0.17130000000E+03 0. -1.
      622    1    1    2    0    0  0.38742799464E-04  0.16051417350E-03  0.39877239403E+01  0.39879245544E+01  0.40000000000E-01 0.  1.
</event>
<event>
 5   0  0.7212170E+07  0.9118800E+02  0.7818608E-02  0.1180000E+00
       11   -1    0    0    0    0  0.00000000000E+00  0.00000000000E+00  0.39999999673E+01  0.40000000000E+01  0.51109989000E-03 0.  1.
     -623   -1    0    0    0    0  0.00000000000E+00  0.00000000000E+00  0.12525980253E-10  0.17130000000E+03  0.17130000000E+03 0. -1.
       11    1    1    2    0    0  0.13793357079E-02 -0.25794731058E-02  0.14387228815E-01  0.14690467133E-01  0.51109989000E-03 0.  1.
     -623    1    1    2    0    0  0.21510321202E-02  0.26146419730E-03  0.50620033230E-03  0.17130000001E+03  0.17130000000E+03 0. -1.
      622    1    1    2    0    0 -0.35303678283E-02  0.23180089085E-02  0.39851065386E+01  0.39853095188E+01  0.40000000000E-01 0.  1.
</event>
<event>
 5   0  0.7212170E+07  0.9118800E+02  0.7818608E-02  0.1180000E+00
       11   -1    0    0    0    0  0.00000000000E+00  0.00000000000E+00  0.39999999673E+01  0.40000000000E+01  0.51109989000E-03 0. -1.
     -623   -1    0    0    0    0  0.00000000000E+00  0.00000000000E+00  0.12525980253E-10  0.17130000000E+03  0.17130000000E+03 0. -1.
       11    1    1    2    0    0  0.26094722307E-03  0.16612216890E-02  0.31541727538E-01  0.31590656057E-01  0.51109989000E-03 0. -1.
     -623    1    1    2    0    0 -0.66139601594E-02 -0.18815799928E-02  0.25572296038E-03  0.17130000014E+03  0.17130000000E+03 0. -1.
      622    1    1    2    0    0  0.63530129378E-02  0.22035830425E-03  0.39682025177E+01  0.39684092066E+01  0.40000000000E-01 0. -1.
</event>
<event>
 5   0  0.7212170E+07  0.9118800E+02  0.7818608E-02  0.1180000E+00
       11   -1    0    0    0    0  0.00000000000E+00  0.00000000000E+00  0.39999999673E+01  0.40000000000E+01  0.51109989000E-03 0.  1.
     -623   -1    0    0    0    0  0.00000000000E+00  0.00000000000E+00  0.12525980253E-10  0.17130000000E+03  0.17130000000E+03 0.  1.
       11    1    1    2    0    0 -0.75174928173E-02 -0.64193770164E-02  0.13262532591E+00  0.13299420812E+00  0.51109989000E-03 0.  1.
     -623    1    1    2    0    0 -0.88716208929E-03  0.81876821701E-03  0.58892866413E-03  0.17130000001E+03  0.17130000000E+03 0.  1.
      622    1    1    2    0    0  0.84046549065E-02  0.56006087994E-02  0.38667857125E+01  0.38670057863E+01  0.40000000000E-01 0.  1.
</event>
<event>
 5   0  0.7212170E+07  0.9118800E+02  0.7818608E-02  0.1180000E+00
       11   -1    0    0    0    0  0.00000000000E+00  0.00000000000E+00  0.39999999673E+01  0.40000000000E+01  0.51109989000E-03 0.  1.
     -623   -1    0    0    0    0  0.00000000000E+00  0.00000000000E+00  0.12525980253E-10  0.17130000000E+03  0.17130000000E+03 0. -1.
       11    1    1    2    0    0  0.30408952635E-02  0.95769447851E-03  0.20060032925E-01  0.20318227451E-01  0.51109989000E-03 0.  1.
     -623    1    1    2    0    0 -0.19215587632E-01  0.27436076717E-02  0.49488120997E-03  0.17130000110E+03  0.17130000000E+03 0. -1.
      622    1    1    2    0    0  0.16174692371E-01 -0.37013021506E-02  0.39794450538E+01  0.39796806727E+01  0.40000000000E-01 0.  1.
</event>
<event>
 5   0  0.7212170E+07  0.9118800E+02  0.7818608E-02  0.1180000E+00
       11   -1    0    0    0    0  0.00000000000E+00  0.00000000000E+00  0.39999999673E+01  0.40000000000E+01  0.51109989000E-03 0.  1.
     -623   -1    0    0    0    0  0.00000000000E+00  0.00000000000E+00  0.12525980253E-10  0.17130000000E+03  0.17130000000E+03 0.  1.
       11    1    1    2    0    0  0.60622318372E-02 -0.98520489659E-03  0.49979450147E-01  0.50357997812E-01  0.51109989000E-03 0.  1.
     -623    1    1    2    0    0 -0.27878704821E-03 -0.46702788733E-03  0.58557364077E-03  0.17130000000E+03  0.17130000000E+03 0.  1.
      622    1    1    2    0    0 -0.57834447890E-02  0.14522327840E-02  0.39494349446E+01  0.39496420013E+01  0.40000000000E-01 0.  1.
</event>
<event>
 5   0  0.7212170E+07  0.9118800E+02  0.7818608E-02  0.1180000E+00
       11   -1    0    0    0    0  0.00000000000E+00  0.00000000000E+00  0.39999999673E+01  0.40000000000E+01  0.51109989000E-03 0.  1.
     -623   -1    0    0    0    0  0.00000000000E+00  0.00000000000E+00  0.12525980253E-10  0.17130000000E+03  0.17130000000E+03 0.  1.
       11    1    1    2    0    0  0.45427404315E-03  0.10819700802E-02  0.16723839505E-02  0.21059713522E-02  0.51109989000E-03 0.  1.
     -623    1    1    2    0    0 -0.20839343064E-02  0.10819383839E-03  0.63418833741E-03  0.17130000001E+03  0.17130000000E+03 0.  1.
      622    1    1    2    0    0  0.16296602635E-02 -0.11901639186E-02  0.39976933956E+01  0.39978940153E+01  0.40000000000E-01 0.  1.
</event>
<event>
 5   0  0.7212170E+07  0.9118800E+02  0.7818608E-02  0.1180000E+00
       11   -1    0    0    0    0  0.00000000000E+00  0.00000000000E+00  0.39999999673E+01  0.40000000000E+01  0.51109989000E-03 0.  1.
     -623   -1    0    0    0    0  0.00000000000E+00  0.00000000000E+00  0.12525980253E-10  0.17130000000E+03  0.17130000000E+03 0. -1.
       11    1    1    2    0    0 -0.27247569403E-02  0.57107290691E-02  0.46300135163E+00  0.46304486777E+00  0.51109989000E-03 0.  1.
     -623    1    1    2    0    0 -0.73967096888E-03 -0.20918775125E-03  0.27565167480E-03  0.17130000000E+03  0.17130000000E+03 0. -1.
      622    1    1    2    0    0  0.34644279092E-02 -0.55015413178E-02  0.35367229641E+01  0.35369551304E+01  0.40000000000E-01 0.  1.
</event>
<event>
 5   0  0.7212170E+07  0.9118800E+02  0.7818608E-02  0.1180000E+00
       11   -1    0    0    0    0  0.00000000000E+00  0.00000000000E+00  0.39999999673E+01  0.40000000000E+01  0.51109989000E-03 0.  1.
     -623   -1    0    0    0    0  0.00000000000E+00  0.00000000000E+00  0.12525980253E-10  0.17130000000E+03  0.17130000000E+03 0. -1.
       11    1    1    2    0    0 -0.10084060383E-02  0.20558302600E-02  0.86281315849E-02  0.89414315710E-02  0.51109989000E-03 0.  1.
     -623    1    1    2    0    0 -0.22499879732E-02 -0.48196256415E-03  0.51537720730E-03  0.17130000002E+03  0.17130000000E+03 0. -1.
      622    1    1    2    0    0  0.32583940119E-02 -0.15738676957E-02  0.39908564592E+01  0.39910585529E+01  0.40000000000E-01 0.  1.
</event>
<event>
 5   0  0.7212170E+07  0.9118800E+02  0.7818608E-02  0.1180000E+00
       11   -1    0    0    0    0  0.00000000000E+00  0.00000000000E+00  0.39999999673E+01  0.40000000000E+01  0.51109989000E-03 0.  1.
     -623   -1    0    0    0    0  0.00000000000E+00  0.00000000000E+00  0.12525980253E-10  0.17130000000E+03  0.17130000000E+03 0.  1.
       11    1    1    2    0    0 -0.85241840216E-03 -0.89190294790E-02  0.93423714767E+00  0.93428024972E+00  0.51109989000E-03 0.  1.
     -623    1    1    2    0    0  0.73591206247E-02 -0.58965120536E-02  0.34699860005E-03  0.17130000026E+03  0.17130000000E+03 0.  1.
      622    1    1    2    0    0 -0.65067022243E-02  0.14815541534E-01  0.30654158221E+01  0.30657194914E+01  0.40000000000E-01 0.  1.
</event>
<event>
 5   0  0.7212170E+07  0.9118800E+02  0.7818608E-02  0.1180000E+00
       11   -1    0    0    0    0  0.00000000000E+00  0.00000000000E+00  0.39999999673E+01  0.40000000000E+01  0.51109989000E-03 0. -1.
     -623   -1    0    0    0    0  0.00000000000E+00  0.00000000000E+00  0.12525980253E-10  0.17130000000E+03  0.17130000000E+03 0.  1.
       11    1    1    2    0    0 -0.30001128372E-02 -0.11699013912E-01  0.21757426434E+01  0.21757762245E+01  0.51109989000E-03 0. -1.
     -623    1    1    2    0    0  0.47644002746E-02 -0.39901027889E-02  0.54059497413E-03  0.17130000011E+03  0.17130000000E+03 0.  1.
      622    1    1    2    0    0 -0.17642874366E-02  0.15689116701E-01  0.18237167283E+01  0.18242236612E+01  0.40000000000E-01 0.  1.
</event>
<event>
 5   0  0.7212170E+07  0.9118800E+02  0.7818608E-02  0.1180000E+00
       11   -1    0    0    0    0  0.00000000000E+00  0.00000000000E+00  0.39999999673E+01  0.40000000000E+01  0.51109989000E-03 0. -1.
     -623   -1    0    0    0    0  0.00000000000E+00  0.00000000000E+00  0.12525980253E-10  0.17130000000E+03  0.17130000000E+03 0.  1.
       11    1    1    2    0    0  0.87778064776E-02 -0.49258351395E-02  0.47401890027E+00  0.47412603048E+00  0.51109989000E-03 0. -1.
     -623    1    1    2    0    0  0.20021832079E-03  0.12172911391E-03  0.34870381499E-03  0.17130000000E+03  0.17130000000E+03 0.  1.
      622    1    1    2    0    0 -0.89780247984E-02  0.48041060256E-02  0.35256323626E+01  0.35258739684E+01  0.40000000000E-01 0. -1.
</event>
<event>
 5   0  0.7212170E+07  0.9118800E+02  0.7818608E-02  0.1180000E+00
       11   -1    0    0    0    0  0.00000000000E+00  0.00000000000E+00  0.39999999673E+01  0.40000000000E+01  0.51109989000E-03 0.  1.
     -623   -1    0    0    0    0  0.00000000000E+00  0.00000000000E+00  0.12525980253E-10  0.17130000000E+03  0.17130000000E+03 0. -1.
       11    1    1    2    0    0  0.11369121526E-02 -0.29523197515E-02  0.47816646514E-01  0.47923915409E-01  0.51109989000E-03 0.  1.
     -623    1    1    2    0    0 -0.19917496655E-02 -0.42921857456E-02  0.31646505196E-03  0.17130000007E+03  0.17130000000E+03 0. -1.
      622    1    1    2    0    0  0.85483751360E-03  0.72445054986E-02  0.39518668572E+01  0.39520760204E+01  0.40000000000E-01 0.  1.
</event>
<event>
 5   0  0.7212170E+07  0.9118800E+02  0.7818608E-02  0.1180000E+00
       11   -1    0    0    0    0  0.00000000000E+00  0.00000000000E+00  0.39999999673E+01  0.40000000000E+01  0.51109989000E-03 0.  1.
     -623   -1    0    0    0    0  0.00000000000E+00  0.00000000000E+00  0.12525980253E-10  0.17130000000E+03  0.17130000000E+03 0.  1.
       11    1    1    2    0    0 -0.10756124645E-02 -0.38185558002E-03  0.28667585779E-02  0.31276642561E-02  0.51109989000E-03 0.  1.
     -623    1    1    2    0    0  0.10084577338E-02 -0.86799152161E-04  0.46106620861E-03  0.17130000000E+03  0.17130000000E+03 0.  1.
      622    1    1    2    0    0  0.67154730737E-04  0.46865473218E-03  0.39966721422E+01  0.39968723317E+01  0.40000000000E-01 0.  1.
</event>
<event>
 5   0  0.7212170E+07  0.9118800E+02  0.7818608E-02  0.1180000E+00
       11   -1    0    0    0    0  0.00000000000E+00  0.00000000000E+00  0.39999999673E+01  0.40000000000E+01  0.51109989000E-03 0.  1.
     -623   -1    0    0    0    0  0.00000000000E+00  0.00000000000E+00  0.12525980253E-10  0.17130000000E+03  0.17130000000E+03 0.  1.
       11    1    1    2    0    0  0.43586248983E-02 -0.10339469605E-02  0.75582632910E-01  0.75716988041E-01  0.51109989000E-03 0.  1.
     -623    1    1    2    0    0 -0.48635791834E-02 -0.98769274980E-03  0.33881216350E-03  0.17130000007E+03  0.17130000000E+03 0.  1.
      622    1    1    2    0    0  0.50495428449E-03  0.20216397102E-02  0.39240785218E+01  0.39242829392E+01  0.40000000000E-01 0.  1.
</event>
<event>
 5   0  0.7212170E+07  0.9118800E+02  0.7818608E-02  0.1180000E+00
       11   -1    0    0    0    0  0.00000000000E+00  0.00000000000E+00  0.39999999673E+01  0.40000000000E+01  0.51109989000E-03 0.  1.
     -623   -1    0    0    0    0  0.00000000000E+00  0.00000000000E+00  0.12525980253E-10  0.17130000000E+03  0.17130000000E+03 0. -1.
       11    1    1    2    0    0  0.43353867361E-02 -0.39347733507E-02  0.22477244249E+00  0.22484926094E+00  0.51109989000E-03 0.  1.
     -623    1    1    2    0    0  0.30283235128E-03  0.62816684428E-03  0.29300314756E-03  0.17130000000E+03  0.17130000000E+03 0. -1.
      622    1    1    2    0    0 -0.46382190875E-02  0.33066065061E-02  0.37749345234E+01  0.37751507390E+01  0.40000000000E-01 0.  1.
</event>
<event>
 5   0  0.7212170E+07  0.9118800E+02  0.7818608E-02  0.1180000E+00
       11   -1    0    0    0    0  0.00000000000E+00  0.00000000000E+00  0.39999999673E+01  0.40000000000E+01  0.51109989000E-03 0.  1.
     -623   -1    0    0    0    0  0.00000000000E+00  0.00000000000E+00  0.12525980253E-10  0.17130000000E+03  0.17130000000E+03 0.  1.
       11    1    1    2    0    0 -0.22196292201E-02  0.62874074502E-03  0.46077015653E-01  0.46137562391E-01  0.51109989000E-03 0.  1.
     -623    1    1    2    0    0  0.43063045392E-02  0.10346006651E-02  0.26381107837E-03  0.17130000006E+03  0.17130000000E+03 0.  1.
      622    1    1    2    0    0 -0.20866753200E-02 -0.16633414104E-02  0.39536591415E+01  0.39538623811E+01  0.40000000000E-01 0.  1.
</event>
<event>
 5   0  0.7212170E+07  0.9118800E+02  0.7818608E-02  0.1180000E+00
       11   -1    0    0    0    0  0.00000000000E+00  0.00000000000E+00  0.39999999673E+01  0.40000000000E+01  0.51109989000E-03 0.  1.
     -623   -1    0    0    0    0  0.00000000000E+00  0.00000000000E+00  0.12525980253E-10  0.17130000000E+03  0.17130000000E+03 0.  1.
       11    1    1    2    0    0 -0.35642518320E-02 -0.59781954137E-03  0.14982925826E+00  0.14987371062E+00  0.51109989000E-03 0.  1.
     -623    1    1    2    0    0  0.35877667030E-02 -0.67301660005E-03  0.25245961438E-03  0.17130000004E+03  0.17130000000E+03 0.  1.
      622    1    1    2    0    0 -0.23514872291E-04  0.12708361417E-02  0.38499182510E+01  0.38501262518E+01  0.40000000000E-01 0.  1.
</event>
<event>
 5   0  0.7212170E+07  0.9118800E+02  0.7818608E-02  0.1180000E+00
       11   -1    0    0    0    0  0.00000000000E+00  0.00000000000E+00  0.39999999673E+01  0.40000000000E+01  0.51109989000E-03 0.  1.
     -623   -1    0    0    0    0  0.00000000000E+00  0.00000000000E+00  0.12525980253E-10  0.17130000000E+03  0.17130000000E+03 0.  1.
       11    1    1    2    0    0 -0.81128447291E-03  0.29927351355E-01  0.17831885695E+01  0.17834399457E+01  0.51109989000E-03 0.  1.
     -623    1    1    2    0    0 -0.58863825913E-03  0.14307285667E-02  0.83460532040E-03  0.17130000001E+03  0.17130000000E+03 0.  1.
      622    1    1    2    0    0  0.13999227320E-02 -0.31358079922E-01  0.22159767924E+01  0.22165600451E+01  0.40000000000E-01 0.  0.
</event>
<event>
 5   0  0.7212170E+07  0.9118800E+02  0.7818608E-02  0.1180000E+00
       11   -1    0    0    0    0  0.00000000000E+00  0.00000000000E+00  0.39999999673E+01  0.40000000000E+01  0.51109989000E-03 0.  1.
     -623   -1    0    0    0    0  0.00000000000E+00  0.00000000000E+00  0.12525980253E-10  0.17130000000E+03  0.17130000000E+03 0. -1.
       11    1    1    2    0    0 -0.29495331428E-02 -0.65487314148E-02  0.14597553385E-01  0.16276836819E-01  0.51109989000E-03 0.  1.
     -623    1    1    2    0    0 -0.49603539960E-02  0.67663903063E-02  0.18881479894E-02  0.17130000022E+03  0.17130000000E+03 0. -1.
      622    1    1    2    0    0  0.79098871390E-02 -0.21765889178E-03  0.39835142662E+01  0.39837229475E+01  0.40000000000E-01 0.  1.
</event>
<event>
 5   0  0.7212170E+07  0.9118800E+02  0.7818608E-02  0.1180000E+00
       11   -1    0    0    0    0  0.00000000000E+00  0.00000000000E+00  0.39999999673E+01  0.40000000000E+01  0.51109989000E-03 0. -1.
     -623   -1    0    0    0    0  0.00000000000E+00  0.00000000000E+00  0.12525980253E-10  0.17130000000E+03  0.17130000000E+03 0.  1.
       11    1    1    2    0    0 -0.38156415727E-02 -0.41258584494E-02  0.11374167631E+01  0.11374307609E+01  0.51109989000E-03 0. -1.
     -623    1    1    2    0    0 -0.21296215362E-02  0.58652364846E-02  0.30026499495E-03  0.17130000011E+03  0.17130000000E+03 0.  1.
      622    1    1    2    0    0  0.59452631094E-02 -0.17393780364E-02  0.28622829401E+01  0.28625691260E+01  0.40000000000E-01 0. -1.
</event>
<event>
 5   0  0.7212170E+07  0.9118800E+02  0.7818608E-02  0.1180000E+00
       11   -1    0    0    0    0  0.00000000000E+00  0.00000000000E+00  0.39999999673E+01  0.40000000000E+01  0.51109989000E-03 0.  1.
     -623   -1    0    0    0    0  0.00000000000E+00  0.00000000000E+00  0.12525980253E-10  0.17130000000E+03  0.17130000000E+03 0. -1.
       11    1    1    2    0    0  0.21780076752E-02  0.12978956095E-01  0.98005770891E+00  0.98014619881E+00  0.51109989000E-03 0.  1.
     -623    1    1    2    0    0  0.18233511400E-02  0.51656893417E-02  0.41063756084E-03  0.17130000009E+03  0.17130000000E+03 0. -1.
      622    1    1    2    0    0 -0.40013588155E-02 -0.18144645438E-01  0.30195316216E+01  0.30198537138E+01  0.40000000000E-01 0.  0.
</event>
<event>
 5   0  0.7212170E+07  0.9118800E+02  0.7818608E-02  0.1180000E+00
       11   -1    0    0    0    0  0.00000000000E+00  0.00000000000E+00  0.39999999673E+01  0.40000000000E+01  0.51109989000E-03 0.  1.
     -623   -1    0    0    0    0  0.00000000000E+00  0.00000000000E+00  0.12525980253E-10  0.17130000000E+03  0.17130000000E+03 0. -1.
       11    1    1    2    0    0  0.14308431674E-01 -0.52090606949E-02  0.83053689266E+00  0.83067662590E+00  0.51109989000E-03 0.  1.
     -623    1    1    2    0    0  0.34889814636E-04 -0.37816096867E-02  0.43738556102E-03  0.17130000004E+03  0.17130000000E+03 0. -1.
      622    1    1    2    0    0 -0.14343321489E-01  0.89906703812E-02  0.31690256887E+01  0.31693233313E+01  0.40000000000E-01 0.  1.
</event>
<event>
 5   0  0.7212170E+07  0.9118800E+02  0.7818608E-02  0.1180000E+00
       11   -1    0    0    0    0  0.00000000000E+00  0.00000000000E+00  0.39999999673E+01  0.40000000000E+01  0.51109989000E-03 0. -1.
     -623   -1    0    0    0    0  0.00000000000E+00  0.00000000000E+00  0.12525980253E-10  0.17130000000E+03  0.17130000000E+03 0.  1.
       11    1    1    2    0    0  0.14118482313E-02  0.92053656819E-02  0.95960553851E-01  0.96412764670E-01  0.51109989000E-03 0. -1.
     -623    1    1    2    0    0  0.59255852757E-03  0.24221964296E-02  0.67497575710E-03  0.17130000002E+03  0.17130000000E+03 0.  1.
      622    1    1    2    0    0 -0.20044067589E-02 -0.11627562112E-01  0.39033644379E+01  0.39035872160E+01  0.40000000000E-01 0. -1.
</event>
<event>
 5   0  0.7212170E+07  0.9118800E+02  0.7818608E-02  0.1180000E+00
       11   -1    0    0    0    0  0.00000000000E+00  0.00000000000E+00  0.39999999673E+01  0.40000000000E+01  0.51109989000E-03 0.  1.
     -623   -1    0    0    0    0  0.00000000000E+00  0.00000000000E+00  0.12525980253E-10  0.17130000000E+03  0.17130000000E+03 0. -1.
       11    1    1    2    0    0  0.12201158983E-01 -0.74387341988E-02  0.41058856618E+00  0.41083747997E+00  0.51109989000E-03 0.  1.
     -623    1    1    2    0    0 -0.38716086640E-03  0.65941038438E-03  0.49763125352E-03  0.17130000000E+03  0.17130000000E+03 0. -1.
      622    1    1    2    0    0 -0.11813998116E-01  0.67793238145E-02  0.35889137696E+01  0.35891625172E+01  0.40000000000E-01 0.  0.
</event>
<event>
 5   0  0.7212170E+07  0.9118800E+02  0.7818608E-02  0.1180000E+00
       11   -1    0    0    0    0  0.00000000000E+00  0.00000000000E+00  0.39999999673E+01  0.40000000000E+01  0.51109989000E-03 0.  1.
     -623   -1    0    0    0    0  0.00000000000E+00  0.00000000000E+00  0.12525980253E-10  0.17130000000E+03  0.17130000000E+03 0. -1.
       11    1    1    2    0    0  0.40427012707E-02 -0.10183154070E-01  0.11534236744E+00  0.11586269033E+00  0.51109989000E-03 0.  1.
     -623    1    1    2    0    0  0.17804187595E-03  0.11436389708E-02  0.73907990476E-03  0.17130000001E+03  0.17130000000E+03 0. -1.
      622    1    1    2    0    0 -0.42207431466E-02  0.90395150991E-02  0.38839185201E+01  0.38841373042E+01  0.40000000000E-01 0.  1.
</event>
<event>
 5   0  0.7212170E+07  0.9118800E+02  0.7818608E-02  0.1180000E+00
       11   -1    0    0    0    0  0.00000000000E+00  0.00000000000E+00  0.39999999673E+01  0.40000000000E+01  0.51109989000E-03 0.  1.
     -623   -1    0    0    0    0  0.00000000000E+00  0.00000000000E+00  0.12525980253E-10  0.17130000000E+03  0.17130000000E+03 0.  1.
       11    1    1    2    0    0 -0.65609087233E-03  0.27343749632E-04  0.79467302447E-01  0.79471659000E-01  0.51109989000E-03 0.  1.
     -623    1    1    2    0    0 -0.16362290037E-03 -0.55994059680E-04  0.20846937039E-03  0.17130000000E+03  0.17130000000E+03 0.  1.
      622    1    1    2    0    0  0.81971377283E-03  0.28650310090E-04  0.39203241985E+01  0.39205283438E+01  0.40000000000E-01 0.  1.
</event>
<event>
 5   0  0.7212170E+07  0.9118800E+02  0.7818608E-02  0.1180000E+00
       11   -1    0    0    0    0  0.00000000000E+00  0.00000000000E+00  0.39999999673E+01  0.40000000000E+01  0.51109989000E-03 0.  1.
     -623   -1    0    0    0    0  0.00000000000E+00  0.00000000000E+00  0.12525980253E-10  0.17130000000E+03  0.17130000000E+03 0.  1.
       11    1    1    2    0    0 -0.14288864975E-01 -0.16348489648E-01  0.76208308510E+00  0.76239250691E+00  0.51109989000E-03 0.  1.
     -623    1    1    2    0    0  0.19572417815E-02 -0.82283197101E-02  0.67348236011E-03  0.17130000021E+03  0.17130000000E+03 0.  1.
      622    1    1    2    0    0  0.12331623194E-01  0.24576809357E-01  0.32372433997E+01  0.32376072827E+01  0.40000000000E-01 0.  1.
</event>
<event>
 5   0  0.7212170E+07  0.9118800E+02  0.7818608E-02  0.1180000E+00
       11   -1    0    0    0    0  0.00000000000E+00  0.00000000000E+00  0.39999999673E+01  0.40000000000E+01  0.51109989000E-03 0. -1.
     -623   -1    0    0    0    0  0.00000000000E+00  0.00000000000E+00  0.12525980253E-10  0.17130000000E+03  0.17130000000E+03 0.  1.
       11    1    1    2    0    0 -0.33042299430E-05 -0.10396662739E-02  0.75308717164E-02  0.76194598750E-02  0.51109989000E-03 0. -1.
     -623    1    1    2    0    0 -0.24249880303E-03 -0.54531444042E-04  0.28910019054E-03  0.17130000000E+03  0.17130000000E+03 0.  1.
      622    1    1    2    0    0  0.24580303302E-03  0.10941977179E-02  0.39921799962E+01  0.39923805405E+01  0.40000000000E-01 0. -1.
</event>
<event>
 5   0  0.7212170E+07  0.9118800E+02  0.7818608E-02  0.1180000E+00
       11   -1    0    0    0    0  0.00000000000E+00  0.00000000000E+00  0.39999999673E+01  0.40000000000E+01  0.51109989000E-03 0. -1.
     -623   -1    0    0    0    0  0.00000000000E+00  0.00000000000E+00  0.12525980253E-10  0.17130000000E+03  0.17130000000E+03 0.  1.
       11    1    1    2    0    0  0.20913956407E-02  0.93899633511E-03  0.45279956424E+00  0.45280565616E+00  0.51109989000E-03 0. -1.
     -623    1    1    2    0    0 -0.14990343492E-02 -0.22309650699E-03  0.23172537508E-03  0.17130000001E+03  0.17130000000E+03 0.  1.
      622    1    1    2    0    0 -0.59236129209E-03 -0.71589982822E-03  0.35469686760E+01  0.35471943353E+01  0.40000000000E-01 0. -1.
</event>
<event>
 5   0  0.7212170E+07  0.9118800E+02  0.7818608E-02  0.1180000E+00
       11   -1    0    0    0    0  0.00000000000E+00  0.00000000000E+00  0.39999999673E+01  0.40000000000E+01  0.51109989000E-03 0.  1.
     -623   -1    0    0    0    0  0.00000000000E+00  0.00000000000E+00  0.12525980253E-10  0.17130000000E+03  0.17130000000E+03 0. -1.
       11    1    1    2    0    0 -0.41702854746E-01  0.18376347111E-01  0.12277267283E+01  0.12285723417E+01  0.51109989000E-03 0.  1.
     -623    1    1    2    0    0  0.11686897829E-01  0.15736941108E-01  0.15079408530E-02  0.17130000113E+03  0.17130000000E+03 0. -1.
      622    1    1    2    0    0  0.30015956916E-01 -0.34113288220E-01  0.27707652984E+01  0.27714265303E+01  0.40000000000E-01 0.  1.
</event>
<event>
 5   0  0.7212170E+07  0.9118800E+02  0.7818608E-02  0.1180000E+00
       11   -1    0    0    0    0  0.00000000000E+00  0.00000000000E+00  0.39999999673E+01  0.40000000000E+01  0.51109989000E-03 0. -1.
     -623   -1    0    0    0    0  0.00000000000E+00  0.00000000000E+00  0.12525980253E-10  0.17130000000E+03  0.17130000000E+03 0.  1.
       11    1    1    2    0    0  0.61939869062E-02  0.42986192714E-02  0.20407809842E+01  0.20407949751E+01  0.51109989000E-03 0. -1.
     -623    1    1    2    0    0 -0.32010655696E-02  0.21503750103E-02  0.43527628134E-03  0.17130000004E+03  0.17130000000E+03 0.  1.
      622    1    1    2    0    0 -0.29929213353E-02 -0.64489942826E-02  0.19587837085E+01  0.19592049826E+01  0.40000000000E-01 0. -1.
</event>
<event>
 5   0  0.7212170E+07  0.9118800E+02  0.7818608E-02  0.1180000E+00
       11   -1    0    0    0    0  0.00000000000E+00  0.00000000000E+00  0.39999999673E+01  0.40000000000E+01  0.51109989000E-03 0. -1.
     -623   -1    0    0    0    0  0.00000000000E+00  0.00000000000E+00  0.12525980253E-10  0.17130000000E+03  0.17130000000E+03 0.  1.
       11    1    1    2    0    0 -0.10126227863E-01 -0.15480541641E-01  0.75005663801E-01  0.77254763514E-01  0.51109989000E-03 0. -1.
     -623    1    1    2    0    0 -0.49735296409E-02 -0.75643401201E-03  0.25157728551E-02  0.17130000009E+03  0.17130000000E+03 0.  1.
      622    1    1    2    0    0  0.15099757504E-01  0.16236975653E-01  0.39224785308E+01  0.39227451442E+01  0.40000000000E-01 0. -1.
</event>
<event>
 5   0  0.7212170E+07  0.9118800E+02  0.7818608E-02  0.1180000E+00
       11   -1    0    0    0    0  0.00000000000E+00  0.00000000000E+00  0.39999999673E+01  0.40000000000E+01  0.51109989000E-03 0.  1.
     -623   -1    0    0    0    0  0.00000000000E+00  0.00000000000E+00  0.12525980253E-10  0.17130000000E+03  0.17130000000E+03 0. -1.
       11    1    1    2    0    0 -0.58307867088E-03  0.14764878334E-03  0.10564533207E-02  0.13187485037E-02  0.51109989000E-03 0.  1.
     -623    1    1    2    0    0  0.36792083285E-04 -0.17747098379E-03  0.46237165615E-03  0.17130000000E+03  0.17130000000E+03 0. -1.
      622    1    1    2    0    0  0.54628658759E-03  0.29822200458E-04  0.39984811427E+01  0.39986812511E+01  0.40000000000E-01 0.  1.
</event>
<event>
 5   0  0.7212170E+07  0.9118800E+02  0.7818608E-02  0.1180000E+00
       11   -1    0    0    0    0  0.00000000000E+00  0.00000000000E+00  0.39999999673E+01  0.40000000000E+01  0.51109989000E-03 0. -1.
     -623   -1    0    0    0    0  0.00000000000E+00  0.00000000000E+00  0.12525980253E-10  0.17130000000E+03  0.17130000000E+03 0. -1.
       11    1    1    2    0    0  0.26396107910E-02  0.11956111684E-02  0.28483230264E-01  0.28634815532E-01  0.51109989000E-03 0. -1.
     -623    1    1    2    0    0  0.22446657585E-03 -0.16260259134E-02  0.35406417041E-03  0.17130000001E+03  0.17130000000E+03 0. -1.
      622    1    1    2    0    0 -0.28640773669E-02  0.43041474528E-03  0.39711626737E+01  0.39713651770E+01  0.40000000000E-01 0. -1.
</event>
<event>
 5   0  0.7212170E+07  0.9118800E+02  0.7818608E-02  0.1180000E+00
       11   -1    0    0    0    0  0.00000000000E+00  0.00000000000E+00  0.39999999673E+01  0.40000000000E+01  0.51109989000E-03 0.  1.
     -623   -1    0    0    0    0  0.00000000000E+00  0.00000000000E+00  0.12525980253E-10  0.17130000000E+03  0.17130000000E+03 0. -1.
       11    1    1    2    0    0  0.98498038698E-03  0.24055788567E-02  0.17522342450E+00  0.17524344985E+00  0.51109989000E-03 0.  1.
     -623    1    1    2    0    0  0.83585728452E-03 -0.75855737208E-03  0.22995401872E-03  0.17130000000E+03  0.17130000000E+03 0. -1.
      622    1    1    2    0    0 -0.18208376713E-02 -0.16470214848E-02  0.38245465879E+01  0.38247565453E+01  0.40000000000E-01 0.  1.
</event>
<event>
 5   0  0.7212170E+07  0.9118800E+02  0.7818608E-02  0.1180000E+00
       11   -1    0    0    0    0  0.00000000000E+00  0.00000000000E+00  0.39999999673E+01  0.40000000000E+01  0.51109989000E-03 0. -1.
     -623   -1    0    0    0    0  0.00000000000E+00  0.00000000000E+00  0.12525980253E-10  0.17130000000E+03  0.17130000000E+03 0.  1.
       11    1    1    2    0    0 -0.70573302105E-03  0.96444551121E-04  0.12420514151E-02  0.15202879543E-02  0.51109989000E-03 0. -1.
     -623    1    1    2    0    0  0.10898898933E-02  0.32994900084E-03  0.47833059249E-03  0.17130000000E+03  0.17130000000E+03 0.  1.
      622    1    1    2    0    0 -0.38415687227E-03 -0.42639355196E-03  0.39982795853E+01  0.39984797075E+01  0.40000000000E-01 0. -1.
</event>
<event>
 5   0  0.7212170E+07  0.9118800E+02  0.7818608E-02  0.1180000E+00
       11   -1    0    0    0    0  0.00000000000E+00  0.00000000000E+00  0.39999999673E+01  0.40000000000E+01  0.51109989000E-03 0. -1.
     -623   -1    0    0    0    0  0.00000000000E+00  0.00000000000E+00  0.12525980253E-10  0.17130000000E+03  0.17130000000E+03 0.  1.
       11    1    1    2    0    0  0.12708514191E-03 -0.52238010908E-03  0.11088005956E-02  0.13340515245E-02  0.51109989000E-03 0. -1.
     -623    1    1    2    0    0 -0.71813766021E-04  0.13423052267E-02  0.42538027030E-03  0.17130000001E+03  0.17130000000E+03 0.  1.
      622    1    1    2    0    0 -0.55271375878E-04 -0.81992511786E-03  0.39984657873E+01  0.39986659435E+01  0.40000000000E-01 0. -1.
</event>
<event>
 5   0  0.7212170E+07  0.9118800E+02  0.7818608E-02  0.1180000E+00
       11   -1    0    0    0    0  0.00000000000E+00  0.00000000000E+00  0.39999999673E+01  0.40000000000E+01  0.51109989000E-03 0.  1.
     -623   -1    0    0    0    0  0.00000000000E+00  0.00000000000E+00  0.12525980253E-10  0.17130000000E+03  0.17130000000E+03 0. -1.
       11    1    1    2    0    0  0.58230256681E-03  0.70096915401E-03  0.16465334438E-02  0.19500588487E-02  0.51109989000E-03 0. -1.
     -623    1    1    2    0    0 -0.23502371309E-02 -0.15137187573E-02  0.50409240036E-03  0.17130000002E+03  0.17130000000E+03 0. -1.
      622    1    1    2    0    0  0.17679345641E-02  0.81274960328E-03  0.39978493415E+01  0.39980499175E+01  0.40000000000E-01 0.  1.
</event>
<event>
 5   0  0.7212170E+07  0.9118800E+02  0.7818608E-02  0.1180000E+00
       11   -1    0    0    0    0  0.00000000000E+00  0.00000000000E+00  0.39999999673E+01  0.40000000000E+01  0.51109989000E-03 0. -1.
     -623   -1    0    0    0    0  0.00000000000E+00  0.00000000000E+00  0.12525980253E-10  0.17130000000E+03  0.17130000000E+03 0.  1.
       11    1    1    2    0    0 -0.93678599826E-03 -0.68874022827E-02  0.11667729099E-01  0.13590842639E-01  0.51109989000E-03 0. -1.
     -623    1    1    2    0    0 -0.19515034772E-02 -0.90949336468E-02  0.21571203397E-02  0.17130000027E+03  0.17130000000E+03 0.  1.
      622    1    1    2    0    0  0.28882894755E-02  0.15982335929E-01  0.39861751179E+01  0.39864088912E+01  0.40000000000E-01 0. -1.
</event>
<event>
 5   0  0.7212170E+07  0.9118800E+02  0.7818608E-02  0.1180000E+00
       11   -1    0    0    0    0  0.00000000000E+00  0.00000000000E+00  0.39999999673E+01  0.40000000000E+01  0.51109989000E-03 0. -1.
     -623   -1    0    0    0    0  0.00000000000E+00  0.00000000000E+00  0.12525980253E-10  0.17130000000E+03  0.17130000000E+03 0. -1.
       11    1    1    2    0    0 -0.10582979223E-01  0.64833871754E-02  0.86008662920E+00  0.86017632187E+00  0.51109989000E-03 0. -1.
     -623    1    1    2    0    0  0.39646763400E-03 -0.14948666911E-02  0.36495772472E-03  0.17130000001E+03  0.17130000000E+03 0. -1.
      622    1    1    2    0    0  0.10186511589E-01 -0.49885204842E-02  0.31395483806E+01  0.31398236709E+01  0.40000000000E-01 0. -1.
</event>
<event>
 5   0  0.7212170E+07  0.9118800E+02  0.7818608E-02  0.1180000E+00
       11   -1    0    0    0    0  0.00000000000E+00  0.00000000000E+00  0.39999999673E+01  0.40000000000E+01  0.51109989000E-03 0.  1.
     -623   -1    0    0    0    0  0.00000000000E+00  0.00000000000E+00  0.12525980253E-10  0.17130000000E+03  0.17130000000E+03 0.  1.
       11    1    1    2    0    0 -0.31989050998E-02  0.34354580288E-03  0.13959556718E+01  0.13959594729E+01  0.51109989000E-03 0.  1.
     -623    1    1    2    0    0  0.30071937854E-02 -0.20245153687E-02  0.31158974771E-03  0.17130000004E+03  0.17130000000E+03 0.  1.
      622    1    1    2    0    0  0.19171131349E-03  0.16809695664E-02  0.26037327069E+01  0.26040404896E+01  0.40000000000E-01 0.  1.
</event>
<event>
 5   0  0.7212170E+07  0.9118800E+02  0.7818608E-02  0.1180000E+00
       11   -1    0    0    0    0  0.00000000000E+00  0.00000000000E+00  0.39999999673E+01  0.40000000000E+01  0.51109989000E-03 0.  1.
     -623   -1    0    0    0    0  0.00000000000E+00  0.00000000000E+00  0.12525980253E-10  0.17130000000E+03  0.17130000000E+03 0. -1.
       11    1    1    2    0    0 -0.50005181473E-02  0.12140363860E-01  0.15461774951E+00  0.15517507308E+00  0.51109989000E-03 0.  1.
     -623    1    1    2    0    0 -0.89768480734E-03 -0.31496973509E-03  0.78808377970E-03  0.17130000000E+03  0.17130000000E+03 0. -1.
      622    1    1    2    0    0  0.58982029548E-02 -0.11825394125E-01  0.38445941346E+01  0.38448249230E+01  0.40000000000E-01 0.  1.
</event>
<event>
 5   0  0.7212170E+07  0.9118800E+02  0.7818608E-02  0.1180000E+00
       11   -1    0    0    0    0  0.00000000000E+00  0.00000000000E+00  0.39999999673E+01  0.40000000000E+01  0.51109989000E-03 0. -1.
     -623   -1    0    0    0    0  0.00000000000E+00  0.00000000000E+00  0.12525980253E-10  0.17130000000E+03  0.17130000000E+03 0.  1.
       11    1    1    2    0    0 -0.47969280049E-02 -0.67587568370E-02  0.26134905113E+01  0.26135037029E+01  0.51109989000E-03 0. -1.
     -623    1    1    2    0    0 -0.15978368800E-02  0.28033423224E-02  0.61070211098E-03  0.17130000003E+03  0.17130000000E+03 0.  1.
      622    1    1    2    0    0  0.63947648852E-02  0.39554145140E-02  0.13858987549E+01  0.13864962665E+01  0.40000000000E-01 0. -1.
</event>
<event>
 5   0  0.7212170E+07  0.9118800E+02  0.7818608E-02  0.1180000E+00
       11   -1    0    0    0    0  0.00000000000E+00  0.00000000000E+00  0.39999999673E+01  0.40000000000E+01  0.51109989000E-03 0.  1.
     -623   -1    0    0    0    0  0.00000000000E+00  0.00000000000E+00  0.12525980253E-10  0.17130000000E+03  0.17130000000E+03 0.  1.
       11    1    1    2    0    0 -0.10250457793E-01  0.54977802653E-03  0.15592438239E+01  0.15592776974E+01  0.51109989000E-03 0.  1.
     -623    1    1    2    0    0  0.24156963901E-03  0.28294412507E-03  0.38230265383E-03  0.17130000000E+03  0.17130000000E+03 0.  1.
      622    1    1    2    0    0  0.10008888154E-01 -0.83272215162E-03  0.24403738411E+01  0.24407223020E+01  0.40000000000E-01 0.  1.
</event>
<event>
 5   0  0.7212170E+07  0.9118800E+02  0.7818608E-02  0.1180000E+00
       11   -1    0    0    0    0  0.00000000000E+00  0.00000000000E+00  0.39999999673E+01  0.40000000000E+01  0.51109989000E-03 0. -1.
     -623   -1    0    0    0    0  0.00000000000E+00  0.00000000000E+00  0.12525980253E-10  0.17130000000E+03  0.17130000000E+03 0. -1.
       11    1    1    2    0    0  0.13713052294E-02  0.50157196649E-03  0.24327487525E-01  0.24376626610E-01  0.51109989000E-03 0. -1.
     -623    1    1    2    0    0  0.39094244568E-03  0.28463087178E-03  0.25080703939E-03  0.17130000000E+03  0.17130000000E+03 0. -1.
      622    1    1    2    0    0 -0.17622476751E-02 -0.78620283829E-03  0.39754216731E+01  0.39756233728E+01  0.40000000000E-01 0.  0.
</event>
<event>
 5   0  0.7212170E+07  0.9118800E+02  0.7818608E-02  0.1180000E+00
       11   -1    0    0    0    0  0.00000000000E+00  0.00000000000E+00  0.39999999673E+01  0.40000000000E+01  0.51109989000E-03 0.  1.
     -623   -1    0    0    0    0  0.00000000000E+00  0.00000000000E+00  0.12525980253E-10  0.17130000000E+03  0.17130000000E+03 0. -1.
       11    1    1    2    0    0  0.20120751874E-02 -0.24227674469E-03  0.18421983111E-01  0.18540167999E-01  0.51109989000E-03 0.  1.
     -623    1    1    2    0    0 -0.47214376201E-03 -0.17598075447E-02  0.31989985279E-03  0.17130000001E+03  0.17130000000E+03 0. -1.
      622    1    1    2    0    0 -0.15399314253E-02  0.20020842895E-02  0.39812580845E+01  0.39814598222E+01  0.40000000000E-01 0.  1.
</event>
<event>
 5   0  0.7212170E+07  0.9118800E+02  0.7818608E-02  0.1180000E+00
       11   -1    0    0    0    0  0.00000000000E+00  0.00000000000E+00  0.39999999673E+01  0.40000000000E+01  0.51109989000E-03 0.  1.
     -623   -1    0    0    0    0  0.00000000000E+00  0.00000000000E+00  0.12525980253E-10  0.17130000000E+03  0.17130000000E+03 0. -1.
       11    1    1    2    0    0  0.21683445826E-02 -0.21926128231E-02  0.32784736400E-01  0.32933409073E-01  0.51109989000E-03 0.  1.
     -623    1    1    2    0    0  0.36816993091E-02  0.38710470585E-02  0.35505787160E-03  0.17130000008E+03  0.17130000000E+03 0. -1.
      622    1    1    2    0    0 -0.58500438913E-02 -0.16784342349E-02  0.39668601726E+01  0.39670665068E+01  0.40000000000E-01 0.  1.
</event>
<event>
 5   0  0.7212170E+07  0.9118800E+02  0.7818608E-02  0.1180000E+00
       11   -1    0    0    0    0  0.00000000000E+00  0.00000000000E+00  0.39999999673E+01  0.40000000000E+01  0.51109989000E-03 0. -1.
     -623   -1    0    0    0    0  0.00000000000E+00  0.00000000000E+00  0.12525980253E-10  0.17130000000E+03  0.17130000000E+03 0. -1.
       11    1    1    2    0    0 -0.60167317335E-02  0.65477550570E-02  0.30349661928E+00  0.30362729340E+00  0.51109989000E-03 0. -1.
     -623    1    1    2    0    0  0.11341087660E-03 -0.10131813694E-01  0.35382818979E-03  0.17130000030E+03  0.17130000000E+03 0. -1.
      622    1    1    2    0    0  0.59033208569E-02  0.35840586385E-02  0.36961495206E+01  0.36963724073E+01  0.40000000000E-01 0. -1.
</event>
<event>
 5   0  0.7212170E+07  0.9118800E+02  0.7818608E-02  0.1180000E+00
       11   -1    0    0    0    0  0.00000000000E+00  0.00000000000E+00  0.39999999673E+01  0.40000000000E+01  0.51109989000E-03 0. -1.
     -623   -1    0    0    0    0  0.00000000000E+00  0.00000000000E+00  0.12525980253E-10  0.17130000000E+03  0.17130000000E+03 0.  1.
       11    1    1    2    0    0  0.36559140774E-02 -0.24251697291E-02  0.23959985872E-01  0.24363688186E-01  0.51109989000E-03 0. -1.
     -623    1    1    2    0    0 -0.32233324143E-02 -0.87501893565E-04  0.60574944005E-03  0.17130000003E+03  0.17130000000E+03 0.  1.
      622    1    1    2    0    0 -0.43258166300E-03  0.25126716227E-02  0.39754342321E+01  0.39756362805E+01  0.40000000000E-01 0. -1.
</event>
<event>
 5   0  0.7212170E+07  0.9118800E+02  0.7818608E-02  0.1180000E+00
       11   -1    0    0    0    0  0.00000000000E+00  0.00000000000E+00  0.39999999673E+01  0.40000000000E+01  0.51109989000E-03 0.  1.
     -623   -1    0    0    0    0  0.00000000000E+00  0.00000000000E+00  0.12525980253E-10  0.17130000000E+03  0.17130000000E+03 0.  1.
       11    1    1    2    0    0  0.24973419865E-02  0.29295274050E-02  0.57646375949E-01  0.57777025979E-01  0.51109989000E-03 0.  1.
     -623    1    1    2    0    0 -0.54159942229E-02 -0.45882374044E-02  0.33513065633E-03  0.17130000015E+03  0.17130000000E+03 0.  1.
      622    1    1    2    0    0  0.29186522372E-02  0.16587100002E-02  0.39420184614E+01  0.39422228273E+01  0.40000000000E-01 0.  1.
</event>
<event>
 5   0  0.7212170E+07  0.9118800E+02  0.7818608E-02  0.1180000E+00
       11   -1    0    0    0    0  0.00000000000E+00  0.00000000000E+00  0.39999999673E+01  0.40000000000E+01  0.51109989000E-03 0. -1.
     -623   -1    0    0    0    0  0.00000000000E+00  0.00000000000E+00  0.12525980253E-10  0.17130000000E+03  0.17130000000E+03 0.  1.
       11    1    1    2    0    0 -0.92590113411E-02 -0.72506182958E-01  0.18410876604E+01  0.18425381707E+01  0.51109989000E-03 0. -1.
     -623    1    1    2    0    0  0.69931180060E-02  0.16912061187E-01  0.25400281276E-02  0.17130000100E+03  0.17130000000E+03 0.  1.
      622    1    1    2    0    0  0.22658933350E-02  0.55594121770E-01  0.21563722789E+01  0.21574608330E+01  0.40000000000E-01 0.  0.
</event>
<event>
 5   0  0.7212170E+07  0.9118800E+02  0.7818608E-02  0.1180000E+00
       11   -1    0    0    0    0  0.00000000000E+00  0.00000000000E+00  0.39999999673E+01  0.40000000000E+01  0.51109989000E-03 0. -1.
     -623   -1    0    0    0    0  0.00000000000E+00  0.00000000000E+00  0.12525980253E-10  0.17130000000E+03  0.17130000000E+03 0.  1.
       11    1    1    2    0    0  0.11278132874E-02  0.23283663496E-02  0.83018459898E+00  0.83018878748E+00  0.51109989000E-03 0. -1.
     -623    1    1    2    0    0  0.37499080309E-02 -0.12128347314E-02  0.26054194872E-03  0.17130000005E+03  0.17130000000E+03 0.  1.
      622    1    1    2    0    0 -0.48777213185E-02 -0.11155316181E-02  0.31695548266E+01  0.31698111672E+01  0.40000000000E-01 0. -1.
</event>
<event>
 5   0  0.7212170E+07  0.9118800E+02  0.7818608E-02  0.1180000E+00
       11   -1    0    0    0    0  0.00000000000E+00  0.00000000000E+00  0.39999999673E+01  0.40000000000E+01  0.51109989000E-03 0.  1.
     -623   -1    0    0    0    0  0.00000000000E+00  0.00000000000E+00  0.12525980253E-10  0.17130000000E+03  0.17130000000E+03 0. -1.
       11    1    1    2    0    0  0.41243133082E-02 -0.59000576021E-03  0.14320089610E-01  0.14922608907E-01  0.51109989000E-03 0.  1.
     -623    1    1    2    0    0  0.13658195983E-02  0.17604183740E-02  0.80721091064E-03  0.17130000002E+03  0.17130000000E+03 0. -1.
      622    1    1    2    0    0 -0.54901329066E-02 -0.11704126139E-02  0.39848726671E+01  0.39850773750E+01  0.40000000000E-01 0.  1.
</event>
<event>
 5   0  0.7212170E+07  0.9118800E+02  0.7818608E-02  0.1180000E+00
       11   -1    0    0    0    0  0.00000000000E+00  0.00000000000E+00  0.39999999673E+01  0.40000000000E+01  0.51109989000E-03 0. -1.
     -623   -1    0    0    0    0  0.00000000000E+00  0.00000000000E+00  0.12525980253E-10  0.17130000000E+03  0.17130000000E+03 0.  1.
       11    1    1    2    0    0 -0.51801968126E-02 -0.12982273903E-01  0.20461917238E+01  0.20462395279E+01  0.51109989000E-03 0. -1.
     -623    1    1    2    0    0 -0.89002849748E-02  0.13314866079E-01  0.50880845360E-03  0.17130000075E+03  0.17130000000E+03 0.  1.
      622    1    1    2    0    0  0.14080481787E-01 -0.33259217580E-03  0.19532994351E+01  0.19537597227E+01  0.40000000000E-01 0. -1.
</event>
<event>
 5   0  0.7212170E+07  0.9118800E+02  0.7818608E-02  0.1180000E+00
       11   -1    0    0    0    0  0.00000000000E+00  0.00000000000E+00  0.39999999673E+01  0.40000000000E+01  0.51109989000E-03 0.  1.
     -623   -1    0    0    0    0  0.00000000000E+00  0.00000000000E+00  0.12525980253E-10  0.17130000000E+03  0.17130000000E+03 0.  1.
       11    1    1    2    0    0  0.54039096444E-04  0.17753046673E-02  0.35449685482E+00  0.35450167267E+00  0.51109989000E-03 0.  1.
     -623    1    1    2    0    0  0.22279654441E-02 -0.17733575393E-02  0.22497865739E-03  0.17130000002E+03  0.17130000000E+03 0.  1.
      622    1    1    2    0    0 -0.22820045399E-02 -0.19471285573E-05  0.36452781328E+01  0.36454983024E+01  0.40000000000E-01 0. -1.
</event>
<event>
 5   0  0.7212170E+07  0.9118800E+02  0.7818608E-02  0.1180000E+00
       11   -1    0    0    0    0  0.00000000000E+00  0.00000000000E+00  0.39999999673E+01  0.40000000000E+01  0.51109989000E-03 0. -1.
     -623   -1    0    0    0    0  0.00000000000E+00  0.00000000000E+00  0.12525980253E-10  0.17130000000E+03  0.17130000000E+03 0. -1.
       11    1    1    2    0    0 -0.44605864615E-03  0.85462300091E-03  0.11224505417E-02  0.15653967886E-02  0.51109989000E-03 0. -1.
     -623    1    1    2    0    0 -0.95848750399E-03 -0.74610834058E-03  0.64325060293E-03  0.17130000001E+03  0.17130000000E+03 0. -1.
      622    1    1    2    0    0  0.14045461502E-02 -0.10851466030E-03  0.39982342664E+01  0.39984345979E+01  0.40000000000E-01 0. -1.
</event>
<event>
 5   0  0.7212170E+07  0.9118800E+02  0.7818608E-02  0.1180000E+00
       11   -1    0    0    0    0  0.00000000000E+00  0.00000000000E+00  0.39999999673E+01  0.40000000000E+01  0.51109989000E-03 0. -1.
     -623   -1    0    0    0    0  0.00000000000E+00  0.00000000000E+00  0.12525980253E-10  0.17130000000E+03  0.17130000000E+03 0. -1.
       11    1    1    2    0    0  0.63426984489E-03  0.35999451928E-02  0.61165992834E-02  0.71439424353E-02  0.51109989000E-03 0. -1.
     -623    1    1    2    0    0 -0.76498611398E-02  0.11722697017E-02  0.12368683065E-02  0.17130000018E+03  0.17130000000E+03 0. -1.
      622    1    1    2    0    0  0.70155912959E-02 -0.47722148947E-02  0.39926465003E+01  0.39928558788E+01  0.40000000000E-01 0. -1.
</event>
<event>
 5   0  0.7212170E+07  0.9118800E+02  0.7818608E-02  0.1180000E+00
       11   -1    0    0    0    0  0.00000000000E+00  0.00000000000E+00  0.39999999673E+01  0.40000000000E+01  0.51109989000E-03 0. -1.
     -623   -1    0    0    0    0  0.00000000000E+00  0.00000000000E+00  0.12525980253E-10  0.17130000000E+03  0.17130000000E+03 0. -1.
       11    1    1    2    0    0 -0.17970891179E-02 -0.24491052349E-02  0.76750789171E-01  0.76812580397E-01  0.51109989000E-03 0. -1.
     -623    1    1    2    0    0  0.27255167659E-02  0.43893743579E-02  0.26634752238E-03  0.17130000008E+03  0.17130000000E+03 0. -1.
      622    1    1    2    0    0 -0.92842764813E-03 -0.19402691231E-02  0.39229828308E+01  0.39231873416E+01  0.40000000000E-01 0. -1.
</event>
<event>
 5   0  0.7212170E+07  0.9118800E+02  0.7818608E-02  0.1180000E+00
       11   -1    0    0    0    0  0.00000000000E+00  0.00000000000E+00  0.39999999673E+01  0.40000000000E+01  0.51109989000E-03 0.  1.
     -623   -1    0    0    0    0  0.00000000000E+00  0.00000000000E+00  0.12525980253E-10  0.17130000000E+03  0.17130000000E+03 0.  1.
       11    1    1    2    0    0 -0.66688073132E-01 -0.68923910180E-01  0.14796856397E+01  0.14827904971E+01  0.51109989000E-03 0.  1.
     -623    1    1    2    0    0  0.24778337603E-01 -0.15550423227E-02  0.47605948634E-02  0.17130000187E+03  0.17130000000E+03 0.  1.
      622    1    1    2    0    0  0.41909735528E-01  0.70478952503E-01  0.25155537328E+01  0.25172076377E+01  0.40000000000E-01 0.  1.
</event>
<event>
 5   0  0.7212170E+07  0.9118800E+02  0.7818608E-02  0.1180000E+00
       11   -1    0    0    0    0  0.00000000000E+00  0.00000000000E+00  0.39999999673E+01  0.40000000000E+01  0.51109989000E-03 0. -1.
     -623   -1    0    0    0    0  0.00000000000E+00  0.00000000000E+00  0.12525980253E-10  0.17130000000E+03  0.17130000000E+03 0. -1.
       11    1    1    2    0    0 -0.62304163183E-03 -0.22913561294E-02  0.18224608151E-02  0.30366231750E-02  0.51109989000E-03 0.  1.
     -623    1    1    2    0    0 -0.26344441013E-02 -0.50292935969E-03  0.14166178037E-02  0.17130000003E+03  0.17130000000E+03 0. -1.
      622    1    1    2    0    0  0.32574857332E-02  0.27942854891E-02  0.39967608888E+01  0.39969633500E+01  0.40000000000E-01 0. -1.
</event>
<event>
 5   0  0.7212170E+07  0.9118800E+02  0.7818608E-02  0.1180000E+00
       11   -1    0    0    0    0  0.00000000000E+00  0.00000000000E+00  0.39999999673E+01  0.40000000000E+01  0.51109989000E-03 0.  1.
     -623   -1    0    0    0    0  0.00000000000E+00  0.00000000000E+00  0.12525980253E-10  0.17130000000E+03  0.17130000000E+03 0. -1.
       11    1    1    2    0    0 -0.10852366120E-01 -0.61318556257E-03  0.61525922464E+00  0.61535544571E+00  0.51109989000E-03 0.  1.
     -623    1    1    2    0    0 -0.92916081775E-03 -0.12212909965E-03  0.35314760749E-03  0.17130000000E+03  0.17130000000E+03 0. -1.
      622    1    1    2    0    0  0.11781526938E-01  0.73531466225E-03  0.33843875960E+01  0.33846445522E+01  0.40000000000E-01 0.  0.
</event>
<event>
 5   0  0.7212170E+07  0.9118800E+02  0.7818608E-02  0.1180000E+00
       11   -1    0    0    0    0  0.00000000000E+00  0.00000000000E+00  0.39999999673E+01  0.40000000000E+01  0.51109989000E-03 0. -1.
     -623   -1    0    0    0    0  0.00000000000E+00  0.00000000000E+00  0.12525980253E-10  0.17130000000E+03  0.17130000000E+03 0. -1.
       11    1    1    2    0    0 -0.12319768153E-02 -0.44093474747E-04  0.89698251180E-01  0.89708177994E-01  0.51109989000E-03 0. -1.
     -623    1    1    2    0    0 -0.77272641071E-03 -0.13054046270E-03  0.21500757051E-03  0.17130000000E+03  0.17130000000E+03 0. -1.
      622    1    1    2    0    0  0.20047032263E-02  0.17463393749E-03  0.39100867100E+01  0.39102918214E+01  0.40000000000E-01 0. -1.
</event>
<event>
 5   0  0.7212170E+07  0.9118800E+02  0.7818608E-02  0.1180000E+00
       11   -1    0    0    0    0  0.00000000000E+00  0.00000000000E+00  0.39999999673E+01  0.40000000000E+01  0.51109989000E-03 0. -1.
     -623   -1    0    0    0    0  0.00000000000E+00  0.00000000000E+00  0.12525980253E-10  0.17130000000E+03  0.17130000000E+03 0. -1.
       11    1    1    2    0    0 -0.86188980131E-02 -0.25058969828E-02  0.26274253757E+00  0.26289630502E+00  0.51109989000E-03 0. -1.
     -623    1    1    2    0    0  0.45569053996E-02 -0.46190128945E-02  0.37693379883E-03  0.17130000012E+03  0.17130000000E+03 0. -1.
      622    1    1    2    0    0  0.40619926118E-02  0.71249098791E-02  0.37368804975E+01  0.37371035732E+01  0.40000000000E-01 0. -1.
</event>
<event>
 5   0  0.7212170E+07  0.9118800E+02  0.7818608E-02  0.1180000E+00
       11   -1    0    0    0    0  0.00000000000E+00  0.00000000000E+00  0.39999999673E+01  0.40000000000E+01  0.51109989000E-03 0. -1.
     -623   -1    0    0    0    0  0.00000000000E+00  0.00000000000E+00  0.12525980253E-10  0.17130000000E+03  0.17130000000E+03 0. -1.
       11    1    1    2    0    0  0.51867124290E-02 -0.96346062181E-02  0.19036560910E+01  0.19036876062E+01  0.51109989000E-03 0. -1.
     -623    1    1    2    0    0  0.37303824910E-03  0.97076020791E-03  0.43842425948E-03  0.17130000000E+03  0.17130000000E+03 0. -1.
      622    1    1    2    0    0 -0.55597506781E-02  0.86638460102E-02  0.20959054520E+01  0.20963123901E+01  0.40000000000E-01 0. -1.
</event>
<event>
 5   0  0.7212170E+07  0.9118800E+02  0.7818608E-02  0.1180000E+00
       11   -1    0    0    0    0  0.00000000000E+00  0.00000000000E+00  0.39999999673E+01  0.40000000000E+01  0.51109989000E-03 0. -1.
     -623   -1    0    0    0    0  0.00000000000E+00  0.00000000000E+00  0.12525980253E-10  0.17130000000E+03  0.17130000000E+03 0.  1.
       11    1    1    2    0    0 -0.43896937746E-02 -0.25428140924E-03  0.21664355504E+00  0.21668877505E+00  0.51109989000E-03 0. -1.
     -623    1    1    2    0    0  0.21125133180E-03 -0.20526898620E-02  0.25967184647E-03  0.17130000001E+03  0.17130000000E+03 0.  1.
      622    1    1    2    0    0  0.41784424427E-02  0.23069712725E-02  0.37830967429E+01  0.37833112148E+01  0.40000000000E-01 0. -1.
</event>
<event>
 5   0  0.7212170E+07  0.9118800E+02  0.7818608E-02  0.1180000E+00
       11   -1    0    0    0    0  0.00000000000E+00  0.00000000000E+00  0.39999999673E+01  0.40000000000E+01  0.51109989000E-03 0. -1.
     -623   -1    0    0    0    0  0.00000000000E+00  0.00000000000E+00  0.12525980253E-10  0.17130000000E+03  0.17130000000E+03 0. -1.
       11    1    1    2    0    0  0.42680846296E-02  0.14992347992E-02 -0.18827134771E-03  0.45564153220E-02  0.51109989000E-03 0. -1.
     -623    1    1    2    0    0 -0.48324073490E-02 -0.11797898714E-01  0.49587468386E-02  0.17130000055E+03  0.17130000000E+03 0. -1.
      622    1    1    2    0    0  0.56432271952E-03  0.10298663914E-01  0.39952294919E+01  0.39954430385E+01  0.40000000000E-01 0. -1.
</event>
<event>
 5   0  0.7212170E+07  0.9118800E+02  0.7818608E-02  0.1180000E+00
       11   -1    0    0    0    0  0.00000000000E+00  0.00000000000E+00  0.39999999673E+01  0.40000000000E+01  0.51109989000E-03 0.  1.
     -623   -1    0    0    0    0  0.00000000000E+00  0.00000000000E+00  0.12525980253E-10  0.17130000000E+03  0.17130000000E+03 0.  1.
       11    1    1    2    0    0 -0.33400694166E-05  0.10920804577E-01  0.19435985547E+00  0.19466709693E+00  0.51109989000E-03 0.  1.
     -623    1    1    2    0    0 -0.10404081255E-01 -0.10028777706E-01  0.53239357871E-03  0.17130000061E+03  0.17130000000E+03 0.  1.
      622    1    1    2    0    0  0.10407421324E-01 -0.89202687247E-03  0.38051077179E+01  0.38053322923E+01  0.40000000000E-01 0.  1.
</event>
<event>
 5   0  0.7212170E+07  0.9118800E+02  0.7818608E-02  0.1180000E+00
       11   -1    0    0    0    0  0.00000000000E+00  0.00000000000E+00  0.39999999673E+01  0.40000000000E+01  0.51109989000E-03 0.  1.
     -623   -1    0    0    0    0  0.00000000000E+00  0.00000000000E+00  0.12525980253E-10  0.17130000000E+03  0.17130000000E+03 0.  1.
       11    1    1    2    0    0  0.53477401896E-02  0.13487883592E-01  0.12135940741E+01  0.12136809133E+01  0.51109989000E-03 0.  1.
     -623    1    1    2    0    0 -0.79281205358E-03  0.10724514669E-02  0.41571549724E-03  0.17130000001E+03  0.17130000000E+03 0.  1.
      622    1    1    2    0    0 -0.45549281361E-02 -0.14560335058E-01  0.27859901775E+01  0.27863190808E+01  0.40000000000E-01 0.  0.
</event>
<event>
 5   0  0.7212170E+07  0.9118800E+02  0.7818608E-02  0.1180000E+00
       11   -1    0    0    0    0  0.00000000000E+00  0.00000000000E+00  0.39999999673E+01  0.40000000000E+01  0.51109989000E-03 0.  1.
     -623   -1    0    0    0    0  0.00000000000E+00  0.00000000000E+00  0.12525980253E-10  0.17130000000E+03  0.17130000000E+03 0.  1.
       11    1    1    2    0    0  0.10878167026E+00  0.46774198421E-01  0.19569681436E+01  0.19605473353E+01  0.51109989000E-03 0.  1.
     -623    1    1    2    0    0  0.25849636323E-01  0.23913619834E-01  0.96531226419E-02  0.17130000389E+03  0.17130000000E+03 0.  1.
      622    1    1    2    0    0 -0.13463130658E+00 -0.70687818255E-01  0.20333787011E+01  0.20394487732E+01  0.40000000000E-01 0.  0.
</event>
<event>
 5   0  0.7212170E+07  0.9118800E+02  0.7818608E-02  0.1180000E+00
       11   -1    0    0    0    0  0.00000000000E+00  0.00000000000E+00  0.39999999673E+01  0.40000000000E+01  0.51109989000E-03 0. -1.
     -623   -1    0    0    0    0  0.00000000000E+00  0.00000000000E+00  0.12525980253E-10  0.17130000000E+03  0.17130000000E+03 0.  1.
       11    1    1    2    0    0 -0.19343722748E-02 -0.36082401385E-03  0.45348042670E-02  0.49696743257E-02  0.51109989000E-03 0. -1.
     -623    1    1    2    0    0 -0.12047554765E-01  0.36812191114E-02  0.66140414680E-03  0.17130000046E+03  0.17130000000E+03 0.  1.
      622    1    1    2    0    0  0.13981927039E-01 -0.33203950974E-02  0.39948037588E+01  0.39950298611E+01  0.40000000000E-01 0. -1.
</event>
<event>
 5   0  0.7212170E+07  0.9118800E+02  0.7818608E-02  0.1180000E+00
       11   -1    0    0    0    0  0.00000000000E+00  0.00000000000E+00  0.39999999673E+01  0.40000000000E+01  0.51109989000E-03 0. -1.
     -623   -1    0    0    0    0  0.00000000000E+00  0.00000000000E+00  0.12525980253E-10  0.17130000000E+03  0.17130000000E+03 0.  1.
       11    1    1    2    0    0 -0.38851841187E-01  0.19572400987E-01  0.27644987525E+00  0.27985235248E+00  0.51109989000E-03 0. -1.
     -623    1    1    2    0    0  0.46112824418E-03 -0.84759125071E-02  0.38324070393E-02  0.17130000025E+03  0.17130000000E+03 0.  1.
      622    1    1    2    0    0  0.38390712943E-01 -0.11096488480E-01  0.37197176851E+01  0.37201473944E+01  0.40000000000E-01 0. -1.
</event>
<event>
 5   0  0.7212170E+07  0.9118800E+02  0.7818608E-02  0.1180000E+00
       11   -1    0    0    0    0  0.00000000000E+00  0.00000000000E+00  0.39999999673E+01  0.40000000000E+01  0.51109989000E-03 0. -1.
     -623   -1    0    0    0    0  0.00000000000E+00  0.00000000000E+00  0.12525980253E-10  0.17130000000E+03  0.17130000000E+03 0.  1.
       11    1    1    2    0    0  0.14645706000E-02  0.19178058056E-02  0.54757295137E-02  0.60056459232E-02  0.51109989000E-03 0. -1.
     -623    1    1    2    0    0 -0.38134867251E-02  0.33677772625E-03  0.73156099787E-03  0.17130000004E+03  0.17130000000E+03 0.  1.
      622    1    1    2    0    0  0.23489161253E-02 -0.22545835318E-02  0.39937926771E+01  0.39939943100E+01  0.40000000000E-01 0. -1.
</event>
<event>
 5   0  0.7212170E+07  0.9118800E+02  0.7818608E-02  0.1180000E+00
       11   -1    0    0    0    0  0.00000000000E+00  0.00000000000E+00  0.39999999673E+01  0.40000000000E+01  0.51109989000E-03 0. -1.
     -623   -1    0    0    0    0  0.00000000000E+00  0.00000000000E+00  0.12525980253E-10  0.17130000000E+03  0.17130000000E+03 0.  1.
       11    1    1    2    0    0  0.39983490794E-02  0.45165504704E-02  0.13851421777E+01  0.13851554064E+01  0.51109989000E-03 0. -1.
     -623    1    1    2    0    0 -0.26039529309E-03  0.27792538705E-03  0.32622819421E-03  0.17130000000E+03  0.17130000000E+03 0.  1.
      622    1    1    2    0    0 -0.37379537863E-02 -0.47944758575E-02  0.26145315615E+01  0.26148445929E+01  0.40000000000E-01 0. -1.
</event>
<event>
 5   0  0.7212170E+07  0.9118800E+02  0.7818608E-02  0.1180000E+00
       11   -1    0    0    0    0  0.00000000000E+00  0.00000000000E+00  0.39999999673E+01  0.40000000000E+01  0.51109989000E-03 0.  1.
     -623   -1    0    0    0    0  0.00000000000E+00  0.00000000000E+00  0.12525980253E-10  0.17130000000E+03  0.17130000000E+03 0. -1.
       11    1    1    2    0    0 -0.40589248355E-02  0.60774482611E-02  0.39805113597E+00  0.39811854807E+00  0.51109989000E-03 0.  1.
     -623    1    1    2    0    0  0.61940639414E-02 -0.32232328075E-02  0.29139884205E-03  0.17130000014E+03  0.17130000000E+03 0. -1.
      622    1    1    2    0    0 -0.21351391078E-02 -0.28542154526E-02  0.36016574337E+01  0.36018813106E+01  0.40000000000E-01 0.  1.
</event>
<event>
 5   0  0.7212170E+07  0.9118800E+02  0.7818608E-02  0.1180000E+00
       11   -1    0    0    0    0  0.00000000000E+00  0.00000000000E+00  0.39999999673E+01  0.40000000000E+01  0.51109989000E-03 0. -1.
     -623   -1    0    0    0    0  0.00000000000E+00  0.00000000000E+00  0.12525980253E-10  0.17130000000E+03  0.17130000000E+03 0.  1.
       11    1    1    2    0    0  0.65449153703E-03 -0.79290925269E-03 -0.74473783195E-03  0.13685473287E-02  0.51109989000E-03 0. -1.
     -623    1    1    2    0    0  0.82288159353E-03  0.21792089123E-02  0.23138707023E-02  0.17130000003E+03  0.17130000000E+03 0.  1.
      622    1    1    2    0    0 -0.14773731306E-02 -0.13862996597E-02  0.39984308346E+01  0.39986314213E+01  0.40000000000E-01 0. -1.
</event>
<event>
 5   0  0.7212170E+07  0.9118800E+02  0.7818608E-02  0.1180000E+00
       11   -1    0    0    0    0  0.00000000000E+00  0.00000000000E+00  0.39999999673E+01  0.40000000000E+01  0.51109989000E-03 0. -1.
     -623   -1    0    0    0    0  0.00000000000E+00  0.00000000000E+00  0.12525980253E-10  0.17130000000E+03  0.17130000000E+03 0. -1.
       11    1    1    2    0    0 -0.41982461711E-02 -0.72178862961E-02  0.19250997176E+00  0.19269165421E+00  0.51109989000E-03 0. -1.
     -623    1    1    2    0    0  0.55937436408E-03 -0.16020088736E-03  0.40066761688E-03  0.17130000000E+03  0.17130000000E+03 0. -1.
      622    1    1    2    0    0  0.36388718070E-02  0.73780871834E-02  0.38070893279E+01  0.38073083442E+01  0.40000000000E-01 0. -1.
</event>
<event>
 5   0  0.7212170E+07  0.9118800E+02  0.7818608E-02  0.1180000E+00
       11   -1    0    0    0    0  0.00000000000E+00  0.00000000000E+00  0.39999999673E+01  0.40000000000E+01  0.51109989000E-03 0. -1.
     -623   -1    0    0    0    0  0.00000000000E+00  0.00000000000E+00  0.12525980253E-10  0.17130000000E+03  0.17130000000E+03 0. -1.
       11    1    1    2    0    0 -0.92281686358E-03  0.13774061795E-02  0.95166828988E-02  0.96735368527E-02  0.51109989000E-03 0. -1.
     -623    1    1    2    0    0  0.87517811244E-04 -0.27683063329E-02  0.35766382074E-03  0.17130000002E+03  0.17130000000E+03 0. -1.
      622    1    1    2    0    0  0.83529905233E-03  0.13909001534E-02  0.39901256206E+01  0.39903264403E+01  0.40000000000E-01 0. -1.
</event>
<event>
 5   0  0.7212170E+07  0.9118800E+02  0.7818608E-02  0.1180000E+00
       11   -1    0    0    0    0  0.00000000000E+00  0.00000000000E+00  0.39999999673E+01  0.40000000000E+01  0.51109989000E-03 0. -1.
     -623   -1    0    0    0    0  0.00000000000E+00  0.00000000000E+00  0.12525980253E-10  0.17130000000E+03  0.17130000000E+03 0.  1.
       11    1    1    2    0    0 -0.21302771789E-01  0.18389802175E-01  0.11551540612E+01  0.11554969317E+01  0.51109989000E-03 0. -1.
     -623    1    1    2    0    0  0.17497944154E-02  0.21534329889E-02  0.76552326294E-03  0.17130000002E+03  0.17130000000E+03 0.  1.
      622    1    1    2    0    0  0.19552977373E-01 -0.20543235164E-01  0.28440803829E+01  0.28445030441E+01  0.40000000000E-01 0. -1.
</event>
<event>
 5   0  0.7212170E+07  0.9118800E+02  0.7818608E-02  0.1180000E+00
       11   -1    0    0    0    0  0.00000000000E+00  0.00000000000E+00  0.39999999673E+01  0.40000000000E+01  0.51109989000E-03 0. -1.
     -623   -1    0    0    0    0  0.00000000000E+00  0.00000000000E+00  0.12525980253E-10  0.17130000000E+03  0.17130000000E+03 0. -1.
       11    1    1    2    0    0 -0.15071320272E-01 -0.21678634910E-02  0.76317863247E+00  0.76333068234E+00  0.51109989000E-03 0. -1.
     -623    1    1    2    0    0 -0.47010242555E-03  0.21326168140E-03  0.43710137878E-03  0.17130000000E+03  0.17130000000E+03 0. -1.
      622    1    1    2    0    0  0.15541422698E-01  0.19546018096E-02  0.32363842338E+01  0.32366693167E+01  0.40000000000E-01 0. -1.
</event>
<event>
 5   0  0.7212170E+07  0.9118800E+02  0.7818608E-02  0.1180000E+00
       11   -1    0    0    0    0  0.00000000000E+00  0.00000000000E+00  0.39999999673E+01  0.40000000000E+01  0.51109989000E-03 0.  1.
     -623   -1    0    0    0    0  0.00000000000E+00  0.00000000000E+00  0.12525980253E-10  0.17130000000E+03  0.17130000000E+03 0.  1.
       11    1    1    2    0    0  0.63294026679E-03 -0.22169816703E-02  0.74949183778E-01  0.74986378718E-01  0.51109989000E-03 0.  1.
     -623    1    1    2    0    0 -0.55701751671E-03  0.19750158710E-03  0.24151001853E-03  0.17130000000E+03  0.17130000000E+03 0.  1.
      622    1    1    2    0    0 -0.75922749962E-04  0.20194800831E-02  0.39248092744E+01  0.39250136210E+01  0.40000000000E-01 0.  1.
</event>
<event>
 5   0  0.7212170E+07  0.9118800E+02  0.7818608E-02  0.1180000E+00
       11   -1    0    0    0    0  0.00000000000E+00  0.00000000000E+00  0.39999999673E+01  0.40000000000E+01  0.51109989000E-03 0. -1.
     -623   -1    0    0    0    0  0.00000000000E+00  0.00000000000E+00  0.12525980253E-10  0.17130000000E+03  0.17130000000E+03 0.  1.
       11    1    1    2    0    0 -0.61793786630E-02 -0.70563490690E-02  0.96972431415E+00  0.96976980952E+00  0.51109989000E-03 0. -1.
     -623    1    1    2    0    0 -0.16742221724E-02  0.14211358077E-02  0.32491343970E-03  0.17130000001E+03  0.17130000000E+03 0.  1.
      622    1    1    2    0    0  0.78536008355E-02  0.56352132612E-02  0.30299507399E+01  0.30302301763E+01  0.40000000000E-01 0. -1.
</event>
<event>
 5   0  0.7212170E+07  0.9118800E+02  0.7818608E-02  0.1180000E+00
       11   -1    0    0    0    0  0.00000000000E+00  0.00000000000E+00  0.39999999673E+01  0.40000000000E+01  0.51109989000E-03 0.  1.
     -623   -1    0    0    0    0  0.00000000000E+00  0.00000000000E+00  0.12525980253E-10  0.17130000000E+03  0.17130000000E+03 0.  1.
       11    1    1    2    0    0  0.12279793463E-01  0.33049649146E-02  0.16961188280E+01  0.16961665767E+01  0.51109989000E-03 0.  1.
     -623    1    1    2    0    0 -0.17248545671E-02  0.76506182810E-02  0.44540534801E-03  0.17130000018E+03  0.17130000000E+03 0.  1.
      622    1    1    2    0    0 -0.10554938895E-01 -0.10955583198E-01  0.23034357351E+01  0.23038332442E+01  0.40000000000E-01 0.  1.
</event>
<event>
 5   0  0.7212170E+07  0.9118800E+02  0.7818608E-02  0.1180000E+00
       11   -1    0    0    0    0  0.00000000000E+00  0.00000000000E+00  0.39999999673E+01  0.40000000000E+01  0.51109989000E-03 0.  1.
     -623   -1    0    0    0    0  0.00000000000E+00  0.00000000000E+00  0.12525980253E-10  0.17130000000E+03  0.17130000000E+03 0.  1.
       11    1    1    2    0    0 -0.15706171554E-02 -0.41811496106E-02  0.63140654754E-01  0.63300492543E-01  0.51109989000E-03 0.  1.
     -623    1    1    2    0    0 -0.11271322263E-02 -0.20492718848E-03  0.36639844413E-03  0.17130000000E+03  0.17130000000E+03 0.  1.
      622    1    1    2    0    0  0.26977493819E-02  0.43860767991E-02  0.39364929148E+01  0.39366995039E+01  0.40000000000E-01 0.  1.
</event>
<event>
 5   0  0.7212170E+07  0.9118800E+02  0.7818608E-02  0.1180000E+00
       11   -1    0    0    0    0  0.00000000000E+00  0.00000000000E+00  0.39999999673E+01  0.40000000000E+01  0.51109989000E-03 0. -1.
     -623   -1    0    0    0    0  0.00000000000E+00  0.00000000000E+00  0.12525980253E-10  0.17130000000E+03  0.17130000000E+03 0. -1.
       11    1    1    2    0    0  0.65647375002E-02  0.81282675245E-02  0.29399496841E+00  0.29418101091E+00  0.51109989000E-03 0. -1.
     -623    1    1    2    0    0 -0.10297621207E-02  0.15457323621E-02  0.41866488716E-03  0.17130000001E+03  0.17130000000E+03 0. -1.
      622    1    1    2    0    0 -0.55349753793E-02 -0.96739998869E-02  0.37055863348E+01  0.37058189793E+01  0.40000000000E-01 0. -1.
</event>
<event>
 5   0  0.7212170E+07  0.9118800E+02  0.7818608E-02  0.1180000E+00
       11   -1    0    0    0    0  0.00000000000E+00  0.00000000000E+00  0.39999999673E+01  0.40000000000E+01  0.51109989000E-03 0. -1.
     -623   -1    0    0    0    0  0.00000000000E+00  0.00000000000E+00  0.12525980253E-10  0.17130000000E+03  0.17130000000E+03 0. -1.
       11    1    1    2    0    0  0.34231667364E-01  0.37788640711E-01  0.11721091811E+01  0.11732177897E+01  0.51109989000E-03 0. -1.
     -623    1    1    2    0    0  0.92751154775E-02 -0.45991445717E-01  0.17447950927E-02  0.17130000643E+03  0.17130000000E+03 0. -1.
      622    1    1    2    0    0 -0.43506782842E-01  0.82028050092E-02  0.28261459914E+01  0.28267757766E+01  0.40000000000E-01 0. -1.
</event>
<event>
 5   0  0.7212170E+07  0.9118800E+02  0.7818608E-02  0.1180000E+00
       11   -1    0    0    0    0  0.00000000000E+00  0.00000000000E+00  0.39999999673E+01  0.40000000000E+01  0.51109989000E-03 0. -1.
     -623   -1    0    0    0    0  0.00000000000E+00  0.00000000000E+00  0.12525980253E-10  0.17130000000E+03  0.17130000000E+03 0. -1.
       11    1    1    2    0    0 -0.25550432416E-02  0.26111112109E-02  0.88609838206E-02  0.95981459193E-02  0.51109989000E-03 0. -1.
     -623    1    1    2    0    0  0.22321107879E-03 -0.25506356524E-02  0.93831906993E-03  0.17130000002E+03  0.17130000000E+03 0. -1.
      622    1    1    2    0    0  0.23318321628E-02 -0.60475558500E-04  0.39902006645E+01  0.39904018324E+01  0.40000000000E-01 0. -1.
</event>
<event>
 5   0  0.7212170E+07  0.9118800E+02  0.7818608E-02  0.1180000E+00
       11   -1    0    0    0    0  0.00000000000E+00  0.00000000000E+00  0.39999999673E+01  0.40000000000E+01  0.51109989000E-03 0.  1.
     -623   -1    0    0    0    0  0.00000000000E+00  0.00000000000E+00  0.12525980253E-10  0.17130000000E+03  0.17130000000E+03 0. -1.
       11    1    1    2    0    0 -0.40006685538E-02 -0.15084132759E-01  0.49122942235E+00  0.49147751019E+00  0.51109989000E-03 0.  1.
     -623    1    1    2    0    0  0.10415691778E-03 -0.17293077342E-01  0.62852085674E-03  0.17130000087E+03  0.17130000000E+03 0. -1.
      622    1    1    2    0    0  0.38965116361E-02  0.32377210103E-01  0.35081420246E+01  0.35085216162E+01  0.40000000000E-01 0.  1.
</event>
<event>
 5   0  0.7212170E+07  0.9118800E+02  0.7818608E-02  0.1180000E+00
       11   -1    0    0    0    0  0.00000000000E+00  0.00000000000E+00  0.39999999673E+01  0.40000000000E+01  0.51109989000E-03 0. -1.
     -623   -1    0    0    0    0  0.00000000000E+00  0.00000000000E+00  0.12525980253E-10  0.17130000000E+03  0.17130000000E+03 0.  1.
       11    1    1    2    0    0 -0.13666809672E-01  0.37390542285E-02  0.27417092046E+00  0.27453727809E+00  0.51109989000E-03 0. -1.
     -623    1    1    2    0    0  0.24832890144E-02 -0.96754294081E-03  0.59890935906E-03  0.17130000002E+03  0.17130000000E+03 0.  1.
      622    1    1    2    0    0  0.11183520657E-01 -0.27715112877E-02  0.37252301374E+01  0.37254627000E+01  0.40000000000E-01 0.  0.
</event>
<event>
 5   0  0.7212170E+07  0.9118800E+02  0.7818608E-02  0.1180000E+00
       11   -1    0    0    0    0  0.00000000000E+00  0.00000000000E+00  0.39999999673E+01  0.40000000000E+01  0.51109989000E-03 0.  1.
     -623   -1    0    0    0    0  0.00000000000E+00  0.00000000000E+00  0.12525980253E-10  0.17130000000E+03  0.17130000000E+03 0.  1.
       11    1    1    2    0    0  0.69125476216E-02 -0.42682052060E-02  0.13784044081E+01  0.13784284437E+01  0.51109989000E-03 0.  1.
     -623    1    1    2    0    0 -0.58578262108E-02  0.10114634813E-01  0.33631242829E-03  0.17130000040E+03  0.17130000000E+03 0.  1.
      622    1    1    2    0    0 -0.10547214103E-02 -0.58464296084E-02  0.26212592472E+01  0.26215711576E+01  0.40000000000E-01 0.  1.
</event>
<event>
 5   0  0.7212170E+07  0.9118800E+02  0.7818608E-02  0.1180000E+00
       11   -1    0    0    0    0  0.00000000000E+00  0.00000000000E+00  0.39999999673E+01  0.40000000000E+01  0.51109989000E-03 0. -1.
     -623   -1    0    0    0    0  0.00000000000E+00  0.00000000000E+00  0.12525980253E-10  0.17130000000E+03  0.17130000000E+03 0.  1.
       11    1    1    2    0    0  0.93005155685E-03  0.20198373606E-03  0.50112829068E-02  0.51263995941E-02  0.51109989000E-03 0. -1.
     -623    1    1    2    0    0 -0.33269686683E-03 -0.23663518466E-02  0.31599368101E-03  0.17130000002E+03  0.17130000000E+03 0.  1.
      622    1    1    2    0    0 -0.59735469004E-03  0.21643681104E-02  0.39946726906E+01  0.39948735833E+01  0.40000000000E-01 0. -1.
</event>
<event>
 5   0  0.7212170E+07  0.9118800E+02  0.7818608E-02  0.1180000E+00
       11   -1    0    0    0    0  0.00000000000E+00  0.00000000000E+00  0.39999999673E+01  0.40000000000E+01  0.51109989000E-03 0.  1.
     -623   -1    0    0    0    0  0.00000000000E+00  0.00000000000E+00  0.12525980253E-10  0.17130000000E+03  0.17130000000E+03 0. -1.
       11    1    1    2    0    0 -0.25576221471E-04  0.23333709790E-02  0.94337388124E-02  0.97314914246E-02  0.51109989000E-03 0.  1.
     -623    1    1    2    0    0 -0.11333365121E-01 -0.42117319872E-02  0.51525075982E-03  0.17130000043E+03  0.17130000000E+03 0. -1.
      622    1    1    2    0    0  0.11358941343E-01  0.18783610083E-02  0.39900509779E+01  0.39902680813E+01  0.40000000000E-01 0.  1.
</event>
<event>
 5   0  0.7212170E+07  0.9118800E+02  0.7818608E-02  0.1180000E+00
       11   -1    0    0    0    0  0.00000000000E+00  0.00000000000E+00  0.39999999673E+01  0.40000000000E+01  0.51109989000E-03 0. -1.
     -623   -1    0    0    0    0  0.00000000000E+00  0.00000000000E+00  0.12525980253E-10  0.17130000000E+03  0.17130000000E+03 0. -1.
       11    1    1    2    0    0  0.85010873725E-02 -0.40999375846E-02  0.35468804203E+00  0.35481396020E+00  0.51109989000E-03 0. -1.
     -623    1    1    2    0    0  0.13216057603E-02  0.70338406486E-04  0.36082803138E-03  0.17130000001E+03  0.17130000000E+03 0. -1.
      622    1    1    2    0    0 -0.98226931328E-02  0.40295991781E-02  0.36449510974E+01  0.36451860344E+01  0.40000000000E-01 0.  0.
</event>
<event>
 5   0  0.7212170E+07  0.9118800E+02  0.7818608E-02  0.1180000E+00
       11   -1    0    0    0    0  0.00000000000E+00  0.00000000000E+00  0.39999999673E+01  0.40000000000E+01  0.51109989000E-03 0. -1.
     -623   -1    0    0    0    0  0.00000000000E+00  0.00000000000E+00  0.12525980253E-10  0.17130000000E+03  0.17130000000E+03 0. -1.
       11    1    1    2    0    0  0.19408334937E-02 -0.28548373142E-02  0.13435701444E+00  0.13440232692E+00  0.51109989000E-03 0. -1.
     -623    1    1    2    0    0 -0.32683933974E-02 -0.77207808000E-03  0.25420181409E-03  0.17130000003E+03  0.17130000000E+03 0. -1.
      622    1    1    2    0    0  0.13275599043E-02  0.36269153944E-02  0.38653887519E+01  0.38655976408E+01  0.40000000000E-01 0. -1.
</event>
<event>
 5   0  0.7212170E+07  0.9118800E+02  0.7818608E-02  0.1180000E+00
       11   -1    0    0    0    0  0.00000000000E+00  0.00000000000E+00  0.39999999673E+01  0.40000000000E+01  0.51109989000E-03 0. -1.
     -623   -1    0    0    0    0  0.00000000000E+00  0.00000000000E+00  0.12525980253E-10  0.17130000000E+03  0.17130000000E+03 0.  1.
       11    1    1    2    0    0 -0.54757635793E-02  0.27497231862E-02  0.56463561190E+00  0.56466908930E+00  0.51109989000E-03 0. -1.
     -623    1    1    2    0    0  0.12137478662E-02  0.81463094501E-02  0.28645013668E-03  0.17130000020E+03  0.17130000000E+03 0.  1.
      622    1    1    2    0    0  0.42620157134E-02 -0.10896032634E-01  0.34350779044E+01  0.34353307116E+01  0.40000000000E-01 0. -1.
</event>
<event>
 5   0  0.7212170E+07  0.9118800E+02  0.7818608E-02  0.1180000E+00
       11   -1    0    0    0    0  0.00000000000E+00  0.00000000000E+00  0.39999999673E+01  0.40000000000E+01  0.51109989000E-03 0.  1.
     -623   -1    0    0    0    0  0.00000000000E+00  0.00000000000E+00  0.12525980253E-10  0.17130000000E+03  0.17130000000E+03 0. -1.
       11    1    1    2    0    0 -0.19639537969E-01 -0.19639636137E-03  0.39758242398E+00  0.39806757605E+00  0.51109989000E-03 0.  1.
     -623    1    1    2    0    0  0.18411480400E-04 -0.68351291666E-02  0.76767686462E-03  0.17130000014E+03  0.17130000000E+03 0. -1.
      622    1    1    2    0    0  0.19621126489E-01  0.70315255281E-02  0.36016498666E+01  0.36019322859E+01  0.40000000000E-01 0.  1.
</event>
<event>
 5   0  0.7212170E+07  0.9118800E+02  0.7818608E-02  0.1180000E+00
       11   -1    0    0    0    0  0.00000000000E+00  0.00000000000E+00  0.39999999673E+01  0.40000000000E+01  0.51109989000E-03 0. -1.
     -623   -1    0    0    0    0  0.00000000000E+00  0.00000000000E+00  0.12525980253E-10  0.17130000000E+03  0.17130000000E+03 0.  1.
       11    1    1    2    0    0 -0.12571978751E-01 -0.33082211830E-03  0.65589764323E+00  0.65601840196E+00  0.51109989000E-03 0. -1.
     -623    1    1    2    0    0 -0.10751564575E-01  0.24047748614E-01  0.52745630476E-03  0.17130000203E+03  0.17130000000E+03 0.  1.
      622    1    1    2    0    0  0.23323543325E-01 -0.23716926494E-01  0.33435748676E+01  0.33439795716E+01  0.40000000000E-01 0. -1.
</event>
<event>
 5   0  0.7212170E+07  0.9118800E+02  0.7818608E-02  0.1180000E+00
       11   -1    0    0    0    0  0.00000000000E+00  0.00000000000E+00  0.39999999673E+01  0.40000000000E+01  0.51109989000E-03 0.  1.
     -623   -1    0    0    0    0  0.00000000000E+00  0.00000000000E+00  0.12525980253E-10  0.17130000000E+03  0.17130000000E+03 0.  1.
       11    1    1    2    0    0 -0.43571071883E-02  0.26416242909E-03  0.13464697472E+00  0.13471868167E+00  0.51109989000E-03 0.  1.
     -623    1    1    2    0    0  0.71416263748E-03  0.67978610101E-03  0.28048567629E-03  0.17130000000E+03  0.17130000000E+03 0.  1.
      622    1    1    2    0    0  0.36429445508E-02 -0.94394853016E-03  0.38650725073E+01  0.38652813156E+01  0.40000000000E-01 0.  1.
</event>
<event>
 5   0  0.7212170E+07  0.9118800E+02  0.7818608E-02  0.1180000E+00
       11   -1    0    0    0    0  0.00000000000E+00  0.00000000000E+00  0.39999999673E+01  0.40000000000E+01  0.51109989000E-03 0. -1.
     -623   -1    0    0    0    0  0.00000000000E+00  0.00000000000E+00  0.12525980253E-10  0.17130000000E+03  0.17130000000E+03 0.  1.
       11    1    1    2    0    0 -0.73556129309E-02  0.42410845021E-02  0.28402722630E-01  0.29649076128E-01  0.51109989000E-03 0. -1.
     -623    1    1    2    0    0 -0.16585571383E-03  0.27776708545E-02  0.14611772474E-02  0.17130000003E+03  0.17130000000E+03 0.  1.
      622    1    1    2    0    0  0.75214686447E-02 -0.70187553566E-02  0.39701360676E+01  0.39703508951E+01  0.40000000000E-01 0. -1.
</event>
<event>
 5   0  0.7212170E+07  0.9118800E+02  0.7818608E-02  0.1180000E+00
       11   -1    0    0    0    0  0.00000000000E+00  0.00000000000E+00  0.39999999673E+01  0.40000000000E+01  0.51109989000E-03 0. -1.
     -623   -1    0    0    0    0  0.00000000000E+00  0.00000000000E+00  0.12525980253E-10  0.17130000000E+03  0.17130000000E+03 0. -1.
       11    1    1    2    0    0  0.10288851486E-02  0.51072000836E-02  0.12462738259E+00  0.12473727515E+00  0.51109989000E-03 0. -1.
     -623    1    1    2    0    0 -0.47081826444E-03 -0.24247811594E-03  0.31939790804E-03  0.17130000000E+03  0.17130000000E+03 0. -1.
      622    1    1    2    0    0 -0.55806688392E-03 -0.48647219676E-02  0.38750531889E+01  0.38752627258E+01  0.40000000000E-01 0. -1.
</event>
<event>
 5   0  0.7212170E+07  0.9118800E+02  0.7818608E-02  0.1180000E+00
       11   -1    0    0    0    0  0.00000000000E+00  0.00000000000E+00  0.39999999673E+01  0.40000000000E+01  0.51109989000E-03 0. -1.
     -623   -1    0    0    0    0  0.00000000000E+00  0.00000000000E+00  0.12525980253E-10  0.17130000000E+03  0.17130000000E+03 0.  1.
       11    1    1    2    0    0 -0.67816925025E-02  0.52635592782E-02  0.74825476639E+00  0.74830418484E+00  0.51109989000E-03 0. -1.
     -623    1    1    2    0    0 -0.69211482319E-03 -0.13069062532E-02  0.30642435198E-03  0.17130000001E+03  0.17130000000E+03 0.  1.
      622    1    1    2    0    0  0.74738073258E-02 -0.39566530248E-02  0.32514387772E+01  0.32516958091E+01  0.40000000000E-01 0. -1.
</event>
<event>
 5   0  0.7212170E+07  0.9118800E+02  0.7818608E-02  0.1180000E+00
       11   -1    0    0    0    0  0.00000000000E+00  0.00000000000E+00  0.39999999673E+01  0.40000000000E+01  0.51109989000E-03 0.  1.
     -623   -1    0    0    0    0  0.00000000000E+00  0.00000000000E+00  0.12525980253E-10  0.17130000000E+03  0.17130000000E+03 0.  1.
       11    1    1    2    0    0  0.11293088343E-02 -0.37696017124E-02  0.84636989569E-01  0.84729962008E-01  0.51109989000E-03 0.  1.
     -623    1    1    2    0    0 -0.29509435652E-03 -0.23624065293E-03  0.29941222832E-03  0.17130000000E+03  0.17130000000E+03 0.  1.
      622    1    1    2    0    0 -0.83421447768E-03  0.40058423654E-02  0.39150635666E+01  0.39152700384E+01  0.40000000000E-01 0.  1.
</event>
<event>
 5   0  0.7212170E+07  0.9118800E+02  0.7818608E-02  0.1180000E+00
       11   -1    0    0    0    0  0.00000000000E+00  0.00000000000E+00  0.39999999673E+01  0.40000000000E+01  0.51109989000E-03 0. -1.
     -623   -1    0    0    0    0  0.00000000000E+00  0.00000000000E+00  0.12525980253E-10  0.17130000000E+03  0.17130000000E+03 0. -1.
       11    1    1    2    0    0  0.12392819078E-02  0.30055640526E-01  0.16003955828E+01  0.16006783437E+01  0.51109989000E-03 0. -1.
     -623    1    1    2    0    0 -0.71675163696E-02 -0.21620905658E-02  0.78583732201E-03  0.17130000017E+03  0.17130000000E+03 0. -1.
      622    1    1    2    0    0  0.59282344633E-02 -0.27893549960E-01  0.23988185481E+01  0.23993214917E+01  0.40000000000E-01 0. -1.
</event>
<event>
 5   0  0.7212170E+07  0.9118800E+02  0.7818608E-02  0.1180000E+00
       11   -1    0    0    0    0  0.00000000000E+00  0.00000000000E+00  0.39999999673E+01  0.40000000000E+01  0.51109989000E-03 0. -1.
     -623   -1    0    0    0    0  0.00000000000E+00  0.00000000000E+00  0.12525980253E-10  0.17130000000E+03  0.17130000000E+03 0. -1.
       11    1    1    2    0    0 -0.13356719680E-03 -0.38022823932E-03  0.35351014227E-02  0.35945206741E-02  0.51109989000E-03 0.  1.
     -623    1    1    2    0    0  0.17570945377E-02 -0.93884005879E-04  0.25993866514E-03  0.17130000001E+03  0.17130000000E+03 0. -1.
      622    1    1    2    0    0 -0.16235273413E-02  0.47411224522E-03  0.39962049281E+01  0.39964054709E+01  0.40000000000E-01 0. -1.
</event>
<event>
 5   0  0.7212170E+07  0.9118800E+02  0.7818608E-02  0.1180000E+00
       11   -1    0    0    0    0  0.00000000000E+00  0.00000000000E+00  0.39999999673E+01  0.40000000000E+01  0.51109989000E-03 0. -1.
     -623   -1    0    0    0    0  0.00000000000E+00  0.00000000000E+00  0.12525980253E-10  0.17130000000E+03  0.17130000000E+03 0.  1.
       11    1    1    2    0    0  0.77063210607E-02 -0.21433011096E-01  0.49037592499E+00  0.49090484860E+00  0.51109989000E-03 0. -1.
     -623    1    1    2    0    0 -0.58271014260E-02  0.18417236846E-01  0.75976751248E-03  0.17130000109E+03  0.17130000000E+03 0.  1.
      622    1    1    2    0    0 -0.18792196344E-02  0.30157742489E-02  0.35088642751E+01  0.35090940608E+01  0.40000000000E-01 0. -1.
</event>
<event>
 5   0  0.7212170E+07  0.9118800E+02  0.7818608E-02  0.1180000E+00
       11   -1    0    0    0    0  0.00000000000E+00  0.00000000000E+00  0.39999999673E+01  0.40000000000E+01  0.51109989000E-03 0.  1.
     -623   -1    0    0    0    0  0.00000000000E+00  0.00000000000E+00  0.12525980253E-10  0.17130000000E+03  0.17130000000E+03 0. -1.
       11    1    1    2    0    0 -0.57324917143E-03 -0.17118896894E-02  0.35949421421E-01  0.35998351414E-01  0.51109989000E-03 0.  1.
     -623    1    1    2    0    0 -0.83582244962E-02  0.72952320606E-02  0.26507302682E-03  0.17130000036E+03  0.17130000000E+03 0. -1.
      622    1    1    2    0    0  0.89314736685E-02 -0.55833423719E-02  0.39637854734E+01  0.39640012896E+01  0.40000000000E-01 0.  1.
</event>
<event>
 5   0  0.7212170E+07  0.9118800E+02  0.7818608E-02  0.1180000E+00
       11   -1    0    0    0    0  0.00000000000E+00  0.00000000000E+00  0.39999999673E+01  0.40000000000E+01  0.51109989000E-03 0.  1.
     -623   -1    0    0    0    0  0.00000000000E+00  0.00000000000E+00  0.12525980253E-10  0.17130000000E+03  0.17130000000E+03 0. -1.
       11    1    1    2    0    0 -0.28464833568E-01 -0.20649031217E-01  0.86157938370E-01  0.93059555165E-01  0.51109989000E-03 0.  1.
     -623    1    1    2    0    0  0.92764412794E-02  0.23616488318E-03  0.72072096930E-02  0.17130000040E+03  0.17130000000E+03 0. -1.
      622    1    1    2    0    0  0.19188392289E-01  0.20412866334E-01  0.39066348193E+01  0.39069400419E+01  0.40000000000E-01 0.  1.
</event>
<event>
 5   0  0.7212170E+07  0.9118800E+02  0.7818608E-02  0.1180000E+00
       11   -1    0    0    0    0  0.00000000000E+00  0.00000000000E+00  0.39999999673E+01  0.40000000000E+01  0.51109989000E-03 0.  1.
     -623   -1    0    0    0    0  0.00000000000E+00  0.00000000000E+00  0.12525980253E-10  0.17130000000E+03  0.17130000000E+03 0. -1.
       11    1    1    2    0    0 -0.14196961653E-01  0.50868407557E-02  0.11669888172E+00  0.11767038662E+00  0.51109989000E-03 0.  1.
     -623    1    1    2    0    0 -0.11795635089E-01 -0.44797042056E-04  0.12682419143E-02  0.17130000041E+03  0.17130000000E+03 0. -1.
      622    1    1    2    0    0  0.25992596742E-01 -0.50420437137E-02  0.38820328440E+01  0.38823292029E+01  0.40000000000E-01 0.  1.
</event>
<event>
 5   0  0.7212170E+07  0.9118800E+02  0.7818608E-02  0.1180000E+00
       11   -1    0    0    0    0  0.00000000000E+00  0.00000000000E+00  0.39999999673E+01  0.40000000000E+01  0.51109989000E-03 0.  1.
     -623   -1    0    0    0    0  0.00000000000E+00  0.00000000000E+00  0.12525980253E-10  0.17130000000E+03  0.17130000000E+03 0. -1.
       11    1    1    2    0    0 -0.76843740323E-02  0.69669505461E-02  0.35025954267E+00  0.35041346500E+00  0.51109989000E-03 0.  1.
     -623    1    1    2    0    0 -0.81512565855E-04  0.22710778482E-02  0.39307031093E-03  0.17130000002E+03  0.17130000000E+03 0. -1.
      622    1    1    2    0    0  0.77658865981E-02 -0.92380283942E-02  0.36493473543E+01  0.36495865194E+01  0.40000000000E-01 0.  0.
</event>
<event>
 5   0  0.7212170E+07  0.9118800E+02  0.7818608E-02  0.1180000E+00
       11   -1    0    0    0    0  0.00000000000E+00  0.00000000000E+00  0.39999999673E+01  0.40000000000E+01  0.51109989000E-03 0.  1.
     -623   -1    0    0    0    0  0.00000000000E+00  0.00000000000E+00  0.12525980253E-10  0.17130000000E+03  0.17130000000E+03 0.  1.
       11    1    1    2    0    0  0.97023587678E-02  0.20815263940E-02  0.63702705483E+00  0.63710454269E+00  0.51109989000E-03 0.  1.
     -623    1    1    2    0    0 -0.30489144411E-02 -0.28798263287E-02  0.32208263436E-03  0.17130000005E+03  0.17130000000E+03 0.  1.
      622    1    1    2    0    0 -0.66534443263E-02  0.79829993495E-03  0.33626508303E+01  0.33628954061E+01  0.40000000000E-01 0.  1.
</event>
<event>
 5   0  0.7212170E+07  0.9118800E+02  0.7818608E-02  0.1180000E+00
       11   -1    0    0    0    0  0.00000000000E+00  0.00000000000E+00  0.39999999673E+01  0.40000000000E+01  0.51109989000E-03 0.  1.
     -623   -1    0    0    0    0  0.00000000000E+00  0.00000000000E+00  0.12525980253E-10  0.17130000000E+03  0.17130000000E+03 0. -1.
       11    1    1    2    0    0  0.28928991723E-02 -0.20955894952E-02  0.61446221296E-01  0.61552089287E-01  0.51109989000E-03 0.  1.
     -623    1    1    2    0    0 -0.22683482723E-02  0.42549731762E-02  0.30967596949E-03  0.17130000007E+03  0.17130000000E+03 0. -1.
      622    1    1    2    0    0 -0.62455090055E-03 -0.21593836800E-02  0.39382440691E+01  0.39384478416E+01  0.40000000000E-01 0.  1.
</event>
<event>
 5   0  0.7212170E+07  0.9118800E+02  0.7818608E-02  0.1180000E+00
       11   -1    0    0    0    0  0.00000000000E+00  0.00000000000E+00  0.39999999673E+01  0.40000000000E+01  0.51109989000E-03 0. -1.
     -623   -1    0    0    0    0  0.00000000000E+00  0.00000000000E+00  0.12525980253E-10  0.17130000000E+03  0.17130000000E+03 0.  1.
       11    1    1    2    0    0  0.13216164925E-02  0.74921317475E-03  0.31553995679E-01  0.31594680833E-01  0.51109989000E-03 0. -1.
     -623    1    1    2    0    0 -0.96903970224E-03 -0.47088786544E-03  0.24227892928E-03  0.17130000000E+03  0.17130000000E+03 0.  1.
      622    1    1    2    0    0 -0.35257678998E-03 -0.27832530915E-03  0.39682036941E+01  0.39684053169E+01  0.40000000000E-01 0. -1.
</event>
<event>
 5   0  0.7212170E+07  0.9118800E+02  0.7818608E-02  0.1180000E+00
       11   -1    0    0    0    0  0.00000000000E+00  0.00000000000E+00  0.39999999673E+01  0.40000000000E+01  0.51109989000E-03 0.  1.
     -623   -1    0    0    0    0  0.00000000000E+00  0.00000000000E+00  0.12525980253E-10  0.17130000000E+03  0.17130000000E+03 0. -1.
       11    1    1    2    0    0  0.64980533996E-02 -0.45411287338E-02  0.53673096925E+00  0.53678975505E+00  0.51109989000E-03 0.  1.
     -623    1    1    2    0    0  0.14499096596E-02  0.26709230073E-03  0.30152533996E-03  0.17130000001E+03  0.17130000000E+03 0. -1.
      622    1    1    2    0    0 -0.79479630593E-02  0.42740364330E-02  0.34629674732E+01  0.34632102387E+01  0.40000000000E-01 0.  1.
</event>
<event>
 5   0  0.7212170E+07  0.9118800E+02  0.7818608E-02  0.1180000E+00
       11   -1    0    0    0    0  0.00000000000E+00  0.00000000000E+00  0.39999999673E+01  0.40000000000E+01  0.51109989000E-03 0. -1.
     -623   -1    0    0    0    0  0.00000000000E+00  0.00000000000E+00  0.12525980253E-10  0.17130000000E+03  0.17130000000E+03 0. -1.
       11    1    1    2    0    0  0.43841114416E-02  0.10073556187E-02  0.26654261535E+00  0.26658106125E+00  0.51109989000E-03 0. -1.
     -623    1    1    2    0    0 -0.10224582897E-02 -0.62701638259E-03  0.25423751704E-03  0.17130000000E+03  0.17130000000E+03 0. -1.
      622    1    1    2    0    0 -0.33616531514E-02 -0.38033923584E-03  0.37332031165E+01  0.37334189364E+01  0.40000000000E-01 0. -1.
</event>
<event>
 5   0  0.7212170E+07  0.9118800E+02  0.7818608E-02  0.1180000E+00
       11   -1    0    0    0    0  0.00000000000E+00  0.00000000000E+00  0.39999999673E+01  0.40000000000E+01  0.51109989000E-03 0.  1.
     -623   -1    0    0    0    0  0.00000000000E+00  0.00000000000E+00  0.12525980253E-10  0.17130000000E+03  0.17130000000E+03 0. -1.
       11    1    1    2    0    0  0.21431000423E-04  0.70375349655E-02  0.16578720195E+00  0.16593729211E+00  0.51109989000E-03 0.  1.
     -623    1    1    2    0    0  0.20902487421E-02 -0.31278505382E-02  0.36133589960E-03  0.17130000004E+03  0.17130000000E+03 0. -1.
      622    1    1    2    0    0 -0.21116797422E-02 -0.39096844278E-02  0.38338514289E+01  0.38340626656E+01  0.40000000000E-01 0.  1.
</event>
<event>
 5   0  0.7212170E+07  0.9118800E+02  0.7818608E-02  0.1180000E+00
       11   -1    0    0    0    0  0.00000000000E+00  0.00000000000E+00  0.39999999673E+01  0.40000000000E+01  0.51109989000E-03 0.  1.
     -623   -1    0    0    0    0  0.00000000000E+00  0.00000000000E+00  0.12525980253E-10  0.17130000000E+03  0.17130000000E+03 0. -1.
       11    1    1    2    0    0  0.14227666681E-01  0.80708226107E-02  0.52581335367E+00  0.52606796975E+00  0.51109989000E-03 0.  1.
     -623    1    1    2    0    0  0.72968092916E-03 -0.73196385947E-03  0.52483648025E-03  0.17130000000E+03  0.17130000000E+03 0. -1.
      622    1    1    2    0    0 -0.14957347610E-01 -0.73388587513E-02  0.34736617769E+01  0.34739320260E+01  0.40000000000E-01 0.  1.
</event>
<event>
 5   0  0.7212170E+07  0.9118800E+02  0.7818608E-02  0.1180000E+00
       11   -1    0    0    0    0  0.00000000000E+00  0.00000000000E+00  0.39999999673E+01  0.40000000000E+01  0.51109989000E-03 0.  1.
     -623   -1    0    0    0    0  0.00000000000E+00  0.00000000000E+00  0.12525980253E-10  0.17130000000E+03  0.17130000000E+03 0.  1.
       11    1    1    2    0    0  0.16242814531E-02  0.21903268820E-02  0.84785019300E-02  0.89208766477E-02  0.51109989000E-03 0.  1.
     -623    1    1    2    0    0  0.36350591528E-02  0.24674478692E-02  0.64903527086E-03  0.17130000006E+03  0.17130000000E+03 0.  1.
      622    1    1    2    0    0 -0.52593406060E-02 -0.46577747512E-02  0.39908724303E+01  0.39910790659E+01  0.40000000000E-01 0.  1.
</event>
<event>
 5   0  0.7212170E+07  0.9118800E+02  0.7818608E-02  0.1180000E+00
       11   -1    0    0    0    0  0.00000000000E+00  0.00000000000E+00  0.39999999673E+01  0.40000000000E+01  0.51109989000E-03 0. -1.
     -623   -1    0    0    0    0  0.00000000000E+00  0.00000000000E+00  0.12525980253E-10  0.17130000000E+03  0.17130000000E+03 0. -1.
       11    1    1    2    0    0  0.18451641901E-02  0.12612455760E-03  0.12195175219E-01  0.12345203928E-01  0.51109989000E-03 0. -1.
     -623    1    1    2    0    0  0.11350232446E-02 -0.74087320067E-02  0.35854873983E-03  0.17130000016E+03  0.17130000000E+03 0. -1.
      622    1    1    2    0    0 -0.29801874346E-02  0.72826074490E-02  0.39874462434E+01  0.39876546317E+01  0.40000000000E-01 0. -1.
</event>
<event>
 5   0  0.7212170E+07  0.9118800E+02  0.7818608E-02  0.1180000E+00
       11   -1    0    0    0    0  0.00000000000E+00  0.00000000000E+00  0.39999999673E+01  0.40000000000E+01  0.51109989000E-03 0.  1.
     -623   -1    0    0    0    0  0.00000000000E+00  0.00000000000E+00  0.12525980253E-10  0.17130000000E+03  0.17130000000E+03 0. -1.
       11    1    1    2    0    0  0.40684984396E-01  0.16493488676E-01  0.10004728790E+01  0.10014357423E+01  0.51109989000E-03 0.  1.
     -623    1    1    2    0    0  0.61868776022E-02 -0.10065377096E-01  0.16033356606E-02  0.17130000041E+03  0.17130000000E+03 0. -1.
      622    1    1    2    0    0 -0.46871861998E-01 -0.64281115794E-02  0.29979237527E+01  0.29985638428E+01  0.40000000000E-01 0.  1.
</event>
<event>
 5   0  0.7212170E+07  0.9118800E+02  0.7818608E-02  0.1180000E+00
       11   -1    0    0    0    0  0.00000000000E+00  0.00000000000E+00  0.39999999673E+01  0.40000000000E+01  0.51109989000E-03 0. -1.
     -623   -1    0    0    0    0  0.00000000000E+00  0.00000000000E+00  0.12525980253E-10  0.17130000000E+03  0.17130000000E+03 0.  1.
       11    1    1    2    0    0 -0.26985427985E-03  0.10275049069E-02  0.96497385303E-02  0.97214846843E-02  0.51109989000E-03 0. -1.
     -623    1    1    2    0    0 -0.17602053789E-02  0.14677050290E-02  0.27351797775E-03  0.17130000002E+03  0.17130000000E+03 0.  1.
      622    1    1    2    0    0  0.20300596594E-02 -0.24952099364E-02  0.39900767123E+01  0.39902785012E+01  0.40000000000E-01 0. -1.
</event>
<event>
 5   0  0.7212170E+07  0.9118800E+02  0.7818608E-02  0.1180000E+00
       11   -1    0    0    0    0  0.00000000000E+00  0.00000000000E+00  0.39999999673E+01  0.40000000000E+01  0.51109989000E-03 0.  1.
     -623   -1    0    0    0    0  0.00000000000E+00  0.00000000000E+00  0.12525980253E-10  0.17130000000E+03  0.17130000000E+03 0. -1.
       11    1    1    2    0    0 -0.37262328099E-01  0.32584389466E-01  0.19652100152E+01  0.19658333827E+01  0.51109989000E-03 0.  1.
     -623    1    1    2    0    0  0.48828211436E-02 -0.24894664566E-02  0.14972268787E-02  0.17130000009E+03  0.17130000000E+03 0. -1.
      622    1    1    2    0    0  0.32379506955E-01 -0.30094923010E-01  0.20332927256E+01  0.20341665234E+01  0.40000000000E-01 0.  0.
</event>
<event>
 5   0  0.7212170E+07  0.9118800E+02  0.7818608E-02  0.1180000E+00
       11   -1    0    0    0    0  0.00000000000E+00  0.00000000000E+00  0.39999999673E+01  0.40000000000E+01  0.51109989000E-03 0.  1.
     -623   -1    0    0    0    0  0.00000000000E+00  0.00000000000E+00  0.12525980253E-10  0.17130000000E+03  0.17130000000E+03 0. -1.
       11    1    1    2    0    0  0.12195207106E-02 -0.49550426822E-02  0.49179947337E+00  0.49182621210E+00  0.51109989000E-03 0.  1.
     -623    1    1    2    0    0 -0.80541560670E-03  0.99965880745E-03  0.25701176865E-03  0.17130000001E+03  0.17130000000E+03 0. -1.
      622    1    1    2    0    0 -0.41410510399E-03  0.39553838748E-02  0.35079434818E+01  0.35081737825E+01  0.40000000000E-01 0.  1.
</event>
<event>
 5   0  0.7212170E+07  0.9118800E+02  0.7818608E-02  0.1180000E+00
       11   -1    0    0    0    0  0.00000000000E+00  0.00000000000E+00  0.39999999673E+01  0.40000000000E+01  0.51109989000E-03 0. -1.
     -623   -1    0    0    0    0  0.00000000000E+00  0.00000000000E+00  0.12525980253E-10  0.17130000000E+03  0.17130000000E+03 0.  1.
       11    1    1    2    0    0 -0.16109544768E-02 -0.12896676626E-02  0.20305515854E-01  0.20416503476E-01  0.51109989000E-03 0. -1.
     -623    1    1    2    0    0  0.27070382366E-03 -0.33882712657E-03  0.31254587063E-03  0.17130000000E+03  0.17130000000E+03 0.  1.
      622    1    1    2    0    0  0.13402506532E-02  0.16284947892E-02  0.39793819057E+01  0.39795834958E+01  0.40000000000E-01 0. -1.
</event>
<event>
 5   0  0.7212170E+07  0.9118800E+02  0.7818608E-02  0.1180000E+00
       11   -1    0    0    0    0  0.00000000000E+00  0.00000000000E+00  0.39999999673E+01  0.40000000000E+01  0.51109989000E-03 0.  1.
     -623   -1    0    0    0    0  0.00000000000E+00  0.00000000000E+00  0.12525980253E-10  0.17130000000E+03  0.17130000000E+03 0.  1.
       11    1    1    2    0    0  0.10491004038E-01 -0.21297638908E-01  0.42934841110E+00  0.43000461617E+00  0.51109989000E-03 0.  1.
     -623    1    1    2    0    0 -0.22324636164E-03  0.76756102750E-03  0.95407645188E-03  0.17130000000E+03  0.17130000000E+03 0.  1.
      622    1    1    2    0    0 -0.10267757676E-01  0.20530077880E-01  0.35696974798E+01  0.35699953793E+01  0.40000000000E-01 0.  0.
</event>
<event>
 5   0  0.7212170E+07  0.9118800E+02  0.7818608E-02  0.1180000E+00
       11   -1    0    0    0    0  0.00000000000E+00  0.00000000000E+00  0.39999999673E+01  0.40000000000E+01  0.51109989000E-03 0.  1.
     -623   -1    0    0    0    0  0.00000000000E+00  0.00000000000E+00  0.12525980253E-10  0.17130000000E+03  0.17130000000E+03 0.  1.
       11    1    1    2    0    0  0.13431525825E-02 -0.85243264345E-03  0.66548955653E-01  0.66569928810E-01  0.51109989000E-03 0.  1.
     -623    1    1    2    0    0 -0.27100435528E-03 -0.92240920664E-03  0.22488001983E-03  0.17130000000E+03  0.17130000000E+03 0.  1.
      622    1    1    2    0    0 -0.10721482272E-02  0.17748418503E-02  0.39332261325E+01  0.39334300691E+01  0.40000000000E-01 0.  1.
</event>
<event>
 5   0  0.7212170E+07  0.9118800E+02  0.7818608E-02  0.1180000E+00
       11   -1    0    0    0    0  0.00000000000E+00  0.00000000000E+00  0.39999999673E+01  0.40000000000E+01  0.51109989000E-03 0. -1.
     -623   -1    0    0    0    0  0.00000000000E+00  0.00000000000E+00  0.12525980253E-10  0.17130000000E+03  0.17130000000E+03 0.  1.
       11    1    1    2    0    0  0.74102154814E-02 -0.20800852631E-02  0.19739572145E+00  0.19754637460E+00  0.51109989000E-03 0. -1.
     -623    1    1    2    0    0  0.96897957545E-04  0.22340652987E-02  0.36844590526E-03  0.17130000001E+03  0.17130000000E+03 0.  1.
      622    1    1    2    0    0 -0.75071134389E-02 -0.15398003603E-03  0.38022358009E+01  0.38024536113E+01  0.40000000000E-01 0. -1.
</event>
<event>
 5   0  0.7212170E+07  0.9118800E+02  0.7818608E-02  0.1180000E+00
       11   -1    0    0    0    0  0.00000000000E+00  0.00000000000E+00  0.39999999673E+01  0.40000000000E+01  0.51109989000E-03 0. -1.
     -623   -1    0    0    0    0  0.00000000000E+00  0.00000000000E+00  0.12525980253E-10  0.17130000000E+03  0.17130000000E+03 0.  1.
       11    1    1    2    0    0  0.88186462857E-02  0.43106425525E-02  0.23098744475E+01  0.23098953601E+01  0.51109989000E-03 0. -1.
     -623    1    1    2    0    0  0.82970257256E-02  0.30195495365E-03  0.58748003126E-03  0.17130000020E+03  0.17130000000E+03 0.  1.
      622    1    1    2    0    0 -0.17115672012E-01 -0.46125975062E-02  0.16895380404E+01  0.16901044382E+01  0.40000000000E-01 0.  1.
</event>
<event>
 5   0  0.7212170E+07  0.9118800E+02  0.7818608E-02  0.1180000E+00
       11   -1    0    0    0    0  0.00000000000E+00  0.00000000000E+00  0.39999999673E+01  0.40000000000E+01  0.51109989000E-03 0.  1.
     -623   -1    0    0    0    0  0.00000000000E+00  0.00000000000E+00  0.12525980253E-10  0.17130000000E+03  0.17130000000E+03 0.  1.
       11    1    1    2    0    0  0.27935726611E-02  0.25769013145E-02  0.18995659016E-01  0.19378873887E-01  0.51109989000E-03 0.  1.
     -623    1    1    2    0    0 -0.36240060923E-03  0.39701355766E-03  0.58601623031E-03  0.17130000000E+03  0.17130000000E+03 0.  1.
      622    1    1    2    0    0 -0.24311720518E-02 -0.29739148722E-02  0.39804182929E+01  0.39806211251E+01  0.40000000000E-01 0.  1.
</event>
<event>
 5   0  0.7212170E+07  0.9118800E+02  0.7818608E-02  0.1180000E+00
       11   -1    0    0    0    0  0.00000000000E+00  0.00000000000E+00  0.39999999673E+01  0.40000000000E+01  0.51109989000E-03 0. -1.
     -623   -1    0    0    0    0  0.00000000000E+00  0.00000000000E+00  0.12525980253E-10  0.17130000000E+03  0.17130000000E+03 0. -1.
       11    1    1    2    0    0 -0.47270065052E-02  0.37408966627E-03  0.58827222861E+00  0.58829156098E+00  0.51109989000E-03 0. -1.
     -623    1    1    2    0    0 -0.13859285533E-03  0.11541862897E-02  0.25761063557E-03  0.17130000000E+03  0.17130000000E+03 0. -1.
      622    1    1    2    0    0  0.48655993605E-02 -0.15282759559E-02  0.34114701277E+01  0.34117084344E+01  0.40000000000E-01 0. -1.
</event>
<event>
 5   0  0.7212170E+07  0.9118800E+02  0.7818608E-02  0.1180000E+00
       11   -1    0    0    0    0  0.00000000000E+00  0.00000000000E+00  0.39999999673E+01  0.40000000000E+01  0.51109989000E-03 0. -1.
     -623   -1    0    0    0    0  0.00000000000E+00  0.00000000000E+00  0.12525980253E-10  0.17130000000E+03  0.17130000000E+03 0. -1.
       11    1    1    2    0    0  0.40966714222E-02  0.89333762748E-03  0.29062747441E-01  0.29368099713E-01  0.51109989000E-03 0. -1.
     -623    1    1    2    0    0 -0.66028734626E-02  0.88843631808E-03  0.50812510405E-03  0.17130000013E+03  0.17130000000E+03 0. -1.
      622    1    1    2    0    0  0.25062020407E-02 -0.17817739456E-02  0.39704290951E+01  0.39706317702E+01  0.40000000000E-01 0. -1.
</event>
<event>
 5   0  0.7212170E+07  0.9118800E+02  0.7818608E-02  0.1180000E+00
       11   -1    0    0    0    0  0.00000000000E+00  0.00000000000E+00  0.39999999673E+01  0.40000000000E+01  0.51109989000E-03 0. -1.
     -623   -1    0    0    0    0  0.00000000000E+00  0.00000000000E+00  0.12525980253E-10  0.17130000000E+03  0.17130000000E+03 0. -1.
       11    1    1    2    0    0  0.42523954858E-03  0.93028729072E-03  0.17170573011E-02  0.20629522509E-02  0.51109989000E-03 0. -1.
     -623    1    1    2    0    0 -0.18460253741E-02  0.12924548317E-02  0.54685660947E-03  0.17130000002E+03  0.17130000000E+03 0. -1.
      622    1    1    2    0    0  0.14207858253E-02 -0.22227421222E-02  0.39977360528E+01  0.39979370314E+01  0.40000000000E-01 0. -1.
</event>
<event>
 5   0  0.7212170E+07  0.9118800E+02  0.7818608E-02  0.1180000E+00
       11   -1    0    0    0    0  0.00000000000E+00  0.00000000000E+00  0.39999999673E+01  0.40000000000E+01  0.51109989000E-03 0.  1.
     -623   -1    0    0    0    0  0.00000000000E+00  0.00000000000E+00  0.12525980253E-10  0.17130000000E+03  0.17130000000E+03 0. -1.
       11    1    1    2    0    0  0.52909187397E-02 -0.11486346166E-02  0.46917754996E-01  0.47231876308E-01  0.51109989000E-03 0.  1.
     -623    1    1    2    0    0  0.59366408627E-02  0.77718679846E-02  0.53825933281E-03  0.17130000028E+03  0.17130000000E+03 0. -1.
      622    1    1    2    0    0 -0.11227559602E-01 -0.66232333680E-02  0.39525439531E+01  0.39527678437E+01  0.40000000000E-01 0.  1.
</event>
<event>
 5   0  0.7212170E+07  0.9118800E+02  0.7818608E-02  0.1180000E+00
       11   -1    0    0    0    0  0.00000000000E+00  0.00000000000E+00  0.39999999673E+01  0.40000000000E+01  0.51109989000E-03 0.  1.
     -623   -1    0    0    0    0  0.00000000000E+00  0.00000000000E+00  0.12525980253E-10  0.17130000000E+03  0.17130000000E+03 0.  1.
       11    1    1    2    0    0 -0.25739821410E-01 -0.21952176454E-02  0.23326448813E+01  0.23327879803E+01  0.51109989000E-03 0.  1.
     -623    1    1    2    0    0  0.49930417692E-02 -0.37668554947E-02  0.76288724030E-03  0.17130000012E+03  0.17130000000E+03 0.  1.
      622    1    1    2    0    0  0.20746779641E-01  0.59620731404E-02  0.16665921992E+01  0.16672119042E+01  0.40000000000E-01 0. -1.
</event>
<event>
 5   0  0.7212170E+07  0.9118800E+02  0.7818608E-02  0.1180000E+00
       11   -1    0    0    0    0  0.00000000000E+00  0.00000000000E+00  0.39999999673E+01  0.40000000000E+01  0.51109989000E-03 0. -1.
     -623   -1    0    0    0    0  0.00000000000E+00  0.00000000000E+00  0.12525980253E-10  0.17130000000E+03  0.17130000000E+03 0.  1.
       11    1    1    2    0    0  0.30517132806E-02 -0.83358190846E-02  0.62131213193E+00  0.62137575214E+00  0.51109989000E-03 0. -1.
     -623    1    1    2    0    0 -0.69602810537E-03  0.24073343800E-03  0.31090027328E-03  0.17130000000E+03  0.17130000000E+03 0.  1.
      622    1    1    2    0    0 -0.23556851753E-02  0.80950856466E-02  0.33783769350E+01  0.33786242458E+01  0.40000000000E-01 0. -1.
</event>
<event>
 5   0  0.7212170E+07  0.9118800E+02  0.7818608E-02  0.1180000E+00
       11   -1    0    0    0    0  0.00000000000E+00  0.00000000000E+00  0.39999999673E+01  0.40000000000E+01  0.51109989000E-03 0. -1.
     -623   -1    0    0    0    0  0.00000000000E+00  0.00000000000E+00  0.12525980253E-10  0.17130000000E+03  0.17130000000E+03 0. -1.
       11    1    1    2    0    0  0.84672719587E-02  0.61064034821E-02  0.23410920376E+00  0.23434240624E+00  0.51109989000E-03 0. -1.
     -623    1    1    2    0    0  0.13669051505E-01 -0.37999302515E-03  0.51559126518E-03  0.17130000055E+03  0.17130000000E+03 0. -1.
      622    1    1    2    0    0 -0.22136323464E-01 -0.57264104570E-02  0.37653751724E+01  0.37656570472E+01  0.40000000000E-01 0. -1.
</event>
<event>
 5   0  0.7212170E+07  0.9118800E+02  0.7818608E-02  0.1180000E+00
       11   -1    0    0    0    0  0.00000000000E+00  0.00000000000E+00  0.39999999673E+01  0.40000000000E+01  0.51109989000E-03 0. -1.
     -623   -1    0    0    0    0  0.00000000000E+00  0.00000000000E+00  0.12525980253E-10  0.17130000000E+03  0.17130000000E+03 0.  1.
       11    1    1    2    0    0  0.86846998002E-03  0.11946038303E-02  0.29378966902E-01  0.29420507095E-01  0.51109989000E-03 0. -1.
     -623    1    1    2    0    0 -0.46342456754E-04 -0.19617677213E-02  0.24316523663E-03  0.17130000001E+03  0.17130000000E+03 0.  1.
      622    1    1    2    0    0 -0.82212752326E-03  0.76716389142E-03  0.39703778361E+01  0.39705794824E+01  0.40000000000E-01 0. -1.
</event>
<event>
 5   0  0.7212170E+07  0.9118800E+02  0.7818608E-02  0.1180000E+00
       11   -1    0    0    0    0  0.00000000000E+00  0.00000000000E+00  0.39999999673E+01  0.40000000000E+01  0.51109989000E-03 0.  1.
     -623   -1    0    0    0    0  0.00000000000E+00  0.00000000000E+00  0.12525980253E-10  0.17130000000E+03  0.17130000000E+03 0. -1.
       11    1    1    2    0    0  0.92063797819E-02  0.99444189149E-02  0.98873743285E-01  0.99799435021E-01  0.51109989000E-03 0.  1.
     -623    1    1    2    0    0 -0.36203939806E-01  0.35349569581E-01  0.14947429381E-02  0.17130000748E+03  0.17130000000E+03 0. -1.
      622    1    1    2    0    0  0.26997560026E-01 -0.45293988498E-01  0.38996314814E+01  0.39001930855E+01  0.40000000000E-01 0.  1.
</event>
<event>
 5   0  0.7212170E+07  0.9118800E+02  0.7818608E-02  0.1180000E+00
       11   -1    0    0    0    0  0.00000000000E+00  0.00000000000E+00  0.39999999673E+01  0.40000000000E+01  0.51109989000E-03 0.  1.
     -623   -1    0    0    0    0  0.00000000000E+00  0.00000000000E+00  0.12525980253E-10  0.17130000000E+03  0.17130000000E+03 0. -1.
       11    1    1    2    0    0 -0.19573797293E-01  0.96427431766E-02  0.10862272501E+00  0.11079383398E+00  0.51109989000E-03 0.  1.
     -623    1    1    2    0    0  0.83015741664E-03  0.16508838165E-01  0.25106946278E-02  0.17130000082E+03  0.17130000000E+03 0. -1.
      622    1    1    2    0    0  0.18743639876E-01 -0.26151581341E-01  0.38888665477E+01  0.38892053501E+01  0.40000000000E-01 0.  1.
</event>
<event>
 5   0  0.7212170E+07  0.9118800E+02  0.7818608E-02  0.1180000E+00
       11   -1    0    0    0    0  0.00000000000E+00  0.00000000000E+00  0.39999999673E+01  0.40000000000E+01  0.51109989000E-03 0. -1.
     -623   -1    0    0    0    0  0.00000000000E+00  0.00000000000E+00  0.12525980253E-10  0.17130000000E+03  0.17130000000E+03 0. -1.
       11    1    1    2    0    0 -0.91301131414E-02 -0.61240738772E-02  0.29377763233E+00  0.29398370997E+00  0.51109989000E-03 0. -1.
     -623    1    1    2    0    0  0.77517730101E-02 -0.22226530665E-02  0.43176305173E-03  0.17130000019E+03  0.17130000000E+03 0. -1.
      622    1    1    2    0    0  0.13783401310E-02  0.83467269438E-02  0.37057905721E+01  0.37060160998E+01  0.40000000000E-01 0. -1.
</event>
<event>
 5   0  0.7212170E+07  0.9118800E+02  0.7818608E-02  0.1180000E+00
       11   -1    0    0    0    0  0.00000000000E+00  0.00000000000E+00  0.39999999673E+01  0.40000000000E+01  0.51109989000E-03 0.  1.
     -623   -1    0    0    0    0  0.00000000000E+00  0.00000000000E+00  0.12525980253E-10  0.17130000000E+03  0.17130000000E+03 0. -1.
       11    1    1    2    0    0  0.22966376051E-01 -0.31749818049E-02  0.55607241213E+00  0.55655576872E+00  0.51109989000E-03 0.  1.
     -623    1    1    2    0    0 -0.13385661704E-01  0.33492381435E-01  0.86626136935E-03  0.17130000380E+03  0.17130000000E+03 0. -1.
      622    1    1    2    0    0 -0.95807143477E-02 -0.30317399629E-01  0.34430612937E+01  0.34434404318E+01  0.40000000000E-01 0.  1.
</event>
<event>
 5   0  0.7212170E+07  0.9118800E+02  0.7818608E-02  0.1180000E+00
       11   -1    0    0    0    0  0.00000000000E+00  0.00000000000E+00  0.39999999673E+01  0.40000000000E+01  0.51109989000E-03 0. -1.
     -623   -1    0    0    0    0  0.00000000000E+00  0.00000000000E+00  0.12525980253E-10  0.17130000000E+03  0.17130000000E+03 0.  1.
       11    1    1    2    0    0  0.40405134401E-01  0.84708118829E-02  0.28107038222E+00  0.28408651944E+00  0.51109989000E-03 0. -1.
     -623    1    1    2    0    0 -0.61655631423E-02 -0.80396863238E-02  0.33895187462E-02  0.17130000033E+03  0.17130000000E+03 0.  1.
      622    1    1    2    0    0 -0.34239571258E-01 -0.43112555894E-03  0.37155400665E+01  0.37159131475E+01  0.40000000000E-01 0. -1.
</event>
<event>
 5   0  0.7212170E+07  0.9118800E+02  0.7818608E-02  0.1180000E+00
       11   -1    0    0    0    0  0.00000000000E+00  0.00000000000E+00  0.39999999673E+01  0.40000000000E+01  0.51109989000E-03 0.  1.
     -623   -1    0    0    0    0  0.00000000000E+00  0.00000000000E+00  0.12525980253E-10  0.17130000000E+03  0.17130000000E+03 0. -1.
       11    1    1    2    0    0 -0.88917904058E-04 -0.12366391506E-01  0.16618203438E-01  0.20721038919E-01  0.51109989000E-03 0.  1.
     -623    1    1    2    0    0  0.24089946061E-02  0.51307422347E-02  0.43112525294E-02  0.17130000015E+03  0.17130000000E+03 0. -1.
      622    1    1    2    0    0 -0.23200767021E-02  0.72356492709E-02  0.39790705115E+01  0.39792788131E+01  0.40000000000E-01 0.  1.
</event>
<event>
 5   0  0.7212170E+07  0.9118800E+02  0.7818608E-02  0.1180000E+00
       11   -1    0    0    0    0  0.00000000000E+00  0.00000000000E+00  0.39999999673E+01  0.40000000000E+01  0.51109989000E-03 0. -1.
     -623   -1    0    0    0    0  0.00000000000E+00  0.00000000000E+00  0.12525980253E-10  0.17130000000E+03  0.17130000000E+03 0.  1.
       11    1    1    2    0    0  0.59887951205E-02 -0.10840813010E-01  0.22864143683E+00  0.22897719701E+00  0.51109989000E-03 0. -1.
     -623    1    1    2    0    0  0.19024930755E-01 -0.19129909378E-02  0.65348018370E-03  0.17130000107E+03  0.17130000000E+03 0.  1.
      622    1    1    2    0    0 -0.25013725879E-01  0.12753803948E-01  0.37707050511E+01  0.37710217353E+01  0.40000000000E-01 0. -1.
</event>
<event>
 5   0  0.7212170E+07  0.9118800E+02  0.7818608E-02  0.1180000E+00
       11   -1    0    0    0    0  0.00000000000E+00  0.00000000000E+00  0.39999999673E+01  0.40000000000E+01  0.51109989000E-03 0. -1.
     -623   -1    0    0    0    0  0.00000000000E+00  0.00000000000E+00  0.12525980253E-10  0.17130000000E+03  0.17130000000E+03 0. -1.
       11    1    1    2    0    0 -0.15104248793E-03 -0.25323361031E-01  0.62424270208E+00  0.62475635871E+00  0.51109989000E-03 0. -1.
     -623    1    1    2    0    0 -0.38331196693E-04  0.97359782248E-03  0.83850201079E-03  0.17130000000E+03  0.17130000000E+03 0. -1.
      622    1    1    2    0    0  0.18937368462E-03  0.24349763209E-01  0.33749187634E+01  0.33752436366E+01  0.40000000000E-01 0. -1.
</event>
<event>
 5   0  0.7212170E+07  0.9118800E+02  0.7818608E-02  0.1180000E+00
       11   -1    0    0    0    0  0.00000000000E+00  0.00000000000E+00  0.39999999673E+01  0.40000000000E+01  0.51109989000E-03 0.  1.
     -623   -1    0    0    0    0  0.00000000000E+00  0.00000000000E+00  0.12525980253E-10  0.17130000000E+03  0.17130000000E+03 0.  1.
       11    1    1    2    0    0  0.44123318823E-02 -0.10107700900E-01  0.44038026271E-01  0.45400917073E-01  0.51109989000E-03 0.  1.
     -623    1    1    2    0    0 -0.42333186180E-02 -0.16861773644E-02  0.15828189153E-02  0.17130000007E+03  0.17130000000E+03 0.  1.
      622    1    1    2    0    0 -0.17901326432E-03  0.11793878264E-01  0.39543791222E+01  0.39545990150E+01  0.40000000000E-01 0.  1.
</event>
<event>
 5   0  0.7212170E+07  0.9118800E+02  0.7818608E-02  0.1180000E+00
       11   -1    0    0    0    0  0.00000000000E+00  0.00000000000E+00  0.39999999673E+01  0.40000000000E+01  0.51109989000E-03 0.  1.
     -623   -1    0    0    0    0  0.00000000000E+00  0.00000000000E+00  0.12525980253E-10  0.17130000000E+03  0.17130000000E+03 0. -1.
       11    1    1    2    0    0 -0.13776221542E-01  0.45298825259E-01  0.23154687305E+01  0.23159528214E+01  0.51109989000E-03 0.  1.
     -623    1    1    2    0    0  0.18813823052E-01 -0.39255955613E-01  0.98308877114E-03  0.17130000553E+03  0.17130000000E+03 0. -1.
      622    1    1    2    0    0 -0.50376015112E-02 -0.60428696434E-02  0.16835481484E+01  0.16840416449E+01  0.40000000000E-01 0.  1.
</event>
<event>
 5   0  0.7212170E+07  0.9118800E+02  0.7818608E-02  0.1180000E+00
       11   -1    0    0    0    0  0.00000000000E+00  0.00000000000E+00  0.39999999673E+01  0.40000000000E+01  0.51109989000E-03 0.  1.
     -623   -1    0    0    0    0  0.00000000000E+00  0.00000000000E+00  0.12525980253E-10  0.17130000000E+03  0.17130000000E+03 0.  1.
       11    1    1    2    0    0  0.34939462999E-02 -0.59452346754E-02  0.12996016293E+00  0.13014399198E+00  0.51109989000E-03 0.  1.
     -623    1    1    2    0    0  0.65170117701E-03  0.11187264688E-02  0.39576397321E-03  0.17130000001E+03  0.17130000000E+03 0.  1.
      622    1    1    2    0    0 -0.41456474769E-02  0.48265082067E-02  0.38696440403E+01  0.38698560025E+01  0.40000000000E-01 0.  1.
</event>
<event>
 5   0  0.7212170E+07  0.9118800E+02  0.7818608E-02  0.1180000E+00
       11   -1    0    0    0    0  0.00000000000E+00  0.00000000000E+00  0.39999999673E+01  0.40000000000E+01  0.51109989000E-03 0. -1.
     -623   -1    0    0    0    0  0.00000000000E+00  0.00000000000E+00  0.12525980253E-10  0.17130000000E+03  0.17130000000E+03 0. -1.
       11    1    1    2    0    0 -0.40236386150E-02 -0.34309379019E-02  0.12295564146E+00  0.12307035383E+00  0.51109989000E-03 0. -1.
     -623    1    1    2    0    0  0.11881000870E-03  0.90685139331E-03  0.32382509932E-03  0.17130000000E+03  0.17130000000E+03 0. -1.
      622    1    1    2    0    0  0.39048286062E-02  0.25240865082E-02  0.38767205023E+01  0.38769296449E+01  0.40000000000E-01 0. -1.
</event>
<event>
 5   0  0.7212170E+07  0.9118800E+02  0.7818608E-02  0.1180000E+00
       11   -1    0    0    0    0  0.00000000000E+00  0.00000000000E+00  0.39999999673E+01  0.40000000000E+01  0.51109989000E-03 0. -1.
     -623   -1    0    0    0    0  0.00000000000E+00  0.00000000000E+00  0.12525980253E-10  0.17130000000E+03  0.17130000000E+03 0. -1.
       11    1    1    2    0    0 -0.26034658002E-01  0.34793388440E-01  0.50832422949E+00  0.51017856365E+00  0.51109989000E-03 0. -1.
     -623    1    1    2    0    0 -0.27581497508E-02 -0.45506995369E-02  0.23334898519E-02  0.17130000010E+03  0.17130000000E+03 0. -1.
      622    1    1    2    0    0  0.28792807753E-01 -0.30242688903E-01  0.34893422481E+01  0.34898213378E+01  0.40000000000E-01 0. -1.
</event>
<event>
 5   0  0.7212170E+07  0.9118800E+02  0.7818608E-02  0.1180000E+00
       11   -1    0    0    0    0  0.00000000000E+00  0.00000000000E+00  0.39999999673E+01  0.40000000000E+01  0.51109989000E-03 0.  1.
     -623   -1    0    0    0    0  0.00000000000E+00  0.00000000000E+00  0.12525980253E-10  0.17130000000E+03  0.17130000000E+03 0.  1.
       11    1    1    2    0    0 -0.16598770058E-02 -0.53570638927E-03  0.13313041968E-01  0.13436535362E-01  0.51109989000E-03 0.  1.
     -623    1    1    2    0    0  0.15964837938E-02 -0.41991143357E-03  0.32426320311E-03  0.17130000001E+03  0.17130000000E+03 0.  1.
      622    1    1    2    0    0  0.63393211546E-04  0.95561782296E-03  0.39863626633E+01  0.39865634575E+01  0.40000000000E-01 0.  1.
</event>
<event>
 5   0  0.7212170E+07  0.9118800E+02  0.7818608E-02  0.1180000E+00
       11   -1    0    0    0    0  0.00000000000E+00  0.00000000000E+00  0.39999999673E+01  0.40000000000E+01  0.51109989000E-03 0.  1.
     -623   -1    0    0    0    0  0.00000000000E+00  0.00000000000E+00  0.12525980253E-10  0.17130000000E+03  0.17130000000E+03 0. -1.
       11    1    1    2    0    0 -0.20135434698E-03  0.42877866365E-02  0.25746128747E-01  0.26106513102E-01  0.51109989000E-03 0.  1.
     -623    1    1    2    0    0  0.32621717743E-02 -0.99753615969E-03  0.56424661991E-03  0.17130000003E+03  0.17130000000E+03 0. -1.
      622    1    1    2    0    0 -0.30608174275E-02 -0.32902504768E-02  0.39736895922E+01  0.39738934522E+01  0.40000000000E-01 0.  1.
</event>
<event>
 5   0  0.7212170E+07  0.9118800E+02  0.7818608E-02  0.1180000E+00
       11   -1    0    0    0    0  0.00000000000E+00  0.00000000000E+00  0.39999999673E+01  0.40000000000E+01  0.51109989000E-03 0. -1.
     -623   -1    0    0    0    0  0.00000000000E+00  0.00000000000E+00  0.12525980253E-10  0.17130000000E+03  0.17130000000E+03 0.  1.
       11    1    1    2    0    0  0.78043122373E-01  0.89716226092E-01  0.11044448528E+01  0.11108278103E+01  0.51109989000E-03 0. -1.
     -623    1    1    2    0    0  0.18223338676E-01 -0.37633270147E-01  0.87393429147E-02  0.17130000533E+03  0.17130000000E+03 0.  1.
      622    1    1    2    0    0 -0.96266461050E-01 -0.52082955945E-01  0.28868157717E+01  0.28891668636E+01  0.40000000000E-01 0. -1.
</event>
<event>
 5   0  0.7212170E+07  0.9118800E+02  0.7818608E-02  0.1180000E+00
       11   -1    0    0    0    0  0.00000000000E+00  0.00000000000E+00  0.39999999673E+01  0.40000000000E+01  0.51109989000E-03 0. -1.
     -623   -1    0    0    0    0  0.00000000000E+00  0.00000000000E+00  0.12525980253E-10  0.17130000000E+03  0.17130000000E+03 0. -1.
       11    1    1    2    0    0  0.63170562887E-03 -0.11946729740E-02  0.96752034254E-01  0.96762821636E-01  0.51109989000E-03 0. -1.
     -623    1    1    2    0    0 -0.68475080507E-03  0.14600222285E-03  0.21586100976E-03  0.17130000000E+03  0.17130000000E+03 0. -1.
      622    1    1    2    0    0  0.53045176433E-04  0.10486707511E-02  0.39030320735E+01  0.39032371782E+01  0.40000000000E-01 0. -1.
</event>
<event>
 5   0  0.7212170E+07  0.9118800E+02  0.7818608E-02  0.1180000E+00
       11   -1    0    0    0    0  0.00000000000E+00  0.00000000000E+00  0.39999999673E+01  0.40000000000E+01  0.51109989000E-03 0. -1.
     -623   -1    0    0    0    0  0.00000000000E+00  0.00000000000E+00  0.12525980253E-10  0.17130000000E+03  0.17130000000E+03 0.  1.
       11    1    1    2    0    0  0.17459155762E-02 -0.89528157864E-03  0.36661593274E-01  0.36717616954E-01  0.51109989000E-03 0. -1.
     -623    1    1    2    0    0 -0.94899345962E-04  0.14720601657E-02  0.25824149379E-03  0.17130000001E+03  0.17130000000E+03 0.  1.
      622    1    1    2    0    0 -0.16510162302E-02 -0.57677858692E-03  0.39630801323E+01  0.39632823762E+01  0.40000000000E-01 0. -1.
</event>
<event>
 5   0  0.7212170E+07  0.9118800E+02  0.7818608E-02  0.1180000E+00
       11   -1    0    0    0    0  0.00000000000E+00  0.00000000000E+00  0.39999999673E+01  0.40000000000E+01  0.51109989000E-03 0.  1.
     -623   -1    0    0    0    0  0.00000000000E+00  0.00000000000E+00  0.12525980253E-10  0.17130000000E+03  0.17130000000E+03 0.  1.
       11    1    1    2    0    0  0.31069886400E-01  0.62625859709E-01  0.18856948366E+01  0.18869903588E+01  0.51109989000E-03 0.  1.
     -623    1    1    2    0    0 -0.35023499844E-01  0.29373608859E-04  0.26107353451E-02  0.17130000360E+03  0.17130000000E+03 0.  1.
      622    1    1    2    0    0  0.39536134428E-02 -0.62655233317E-01  0.21116943953E+01  0.21130060408E+01  0.40000000000E-01 0.  1.
</event>
<event>
 5   0  0.7212170E+07  0.9118800E+02  0.7818608E-02  0.1180000E+00
       11   -1    0    0    0    0  0.00000000000E+00  0.00000000000E+00  0.39999999673E+01  0.40000000000E+01  0.51109989000E-03 0. -1.
     -623   -1    0    0    0    0  0.00000000000E+00  0.00000000000E+00  0.12525980253E-10  0.17130000000E+03  0.17130000000E+03 0.  1.
       11    1    1    2    0    0  0.84954586660E-03 -0.20861735587E-02  0.34062796536E-02  0.41155573708E-02  0.51109989000E-03 0. -1.
     -623    1    1    2    0    0  0.11693570233E-02 -0.30093505099E-03  0.91068586118E-03  0.17130000001E+03  0.17130000000E+03 0.  1.
      622    1    1    2    0    0 -0.20189028899E-02  0.23871086097E-02  0.39956830018E+01  0.39958844359E+01  0.40000000000E-01 0. -1.
</event>
<event>
 5   0  0.7212170E+07  0.9118800E+02  0.7818608E-02  0.1180000E+00
       11   -1    0    0    0    0  0.00000000000E+00  0.00000000000E+00  0.39999999673E+01  0.40000000000E+01  0.51109989000E-03 0.  1.
     -623   -1    0    0    0    0  0.00000000000E+00  0.00000000000E+00  0.12525980253E-10  0.17130000000E+03  0.17130000000E+03 0.  1.
       11    1    1    2    0    0  0.22220151512E-01  0.18021709155E-01  0.11856284509E+01  0.11859736936E+01  0.51109989000E-03 0.  1.
     -623    1    1    2    0    0 -0.30687937078E-02 -0.47484853609E-02  0.72609347383E-03  0.17130000009E+03  0.17130000000E+03 0.  1.
      622    1    1    2    0    0 -0.19151357804E-01 -0.13273223795E-01  0.28136454228E+01  0.28140262113E+01  0.40000000000E-01 0.  0.
</event>
<event>
 5   0  0.7212170E+07  0.9118800E+02  0.7818608E-02  0.1180000E+00
       11   -1    0    0    0    0  0.00000000000E+00  0.00000000000E+00  0.39999999673E+01  0.40000000000E+01  0.51109989000E-03 0.  1.
     -623   -1    0    0    0    0  0.00000000000E+00  0.00000000000E+00  0.12525980253E-10  0.17130000000E+03  0.17130000000E+03 0. -1.
       11    1    1    2    0    0  0.25740822934E-01  0.19603800633E-01  0.25847590537E+01  0.25849616101E+01  0.51109989000E-03 0.  1.
     -623    1    1    2    0    0 -0.25968016661E-01 -0.40895524872E-01  0.93512540694E-03  0.17130000685E+03  0.17130000000E+03 0. -1.
      622    1    1    2    0    0  0.22719373310E-03  0.21291724249E-01  0.14143057893E+01  0.14150315384E+01  0.40000000000E-01 0.  0.
</event>
<event>
 5   0  0.7212170E+07  0.9118800E+02  0.7818608E-02  0.1180000E+00
       11   -1    0    0    0    0  0.00000000000E+00  0.00000000000E+00  0.39999999673E+01  0.40000000000E+01  0.51109989000E-03 0.  1.
     -623   -1    0    0    0    0  0.00000000000E+00  0.00000000000E+00  0.12525980253E-10  0.17130000000E+03  0.17130000000E+03 0. -1.
       11    1    1    2    0    0  0.22680670961E-02 -0.21866677966E-02  0.24591443587E+00  0.24593514721E+00  0.51109989000E-03 0.  1.
     -623    1    1    2    0    0 -0.16277481662E-02 -0.33946287544E-03  0.23469990975E-03  0.17130000001E+03  0.17130000000E+03 0. -1.
      622    1    1    2    0    0 -0.64031893055E-03  0.25261306719E-02  0.37538508300E+01  0.37540648430E+01  0.40000000000E-01 0.  1.
</event>
<event>
 5   0  0.7212170E+07  0.9118800E+02  0.7818608E-02  0.1180000E+00
       11   -1    0    0    0    0  0.00000000000E+00  0.00000000000E+00  0.39999999673E+01  0.40000000000E+01  0.51109989000E-03 0. -1.
     -623   -1    0    0    0    0  0.00000000000E+00  0.00000000000E+00  0.12525980253E-10  0.17130000000E+03  0.17130000000E+03 0.  1.
       11    1    1    2    0    0 -0.23459146939E-01  0.36385985944E-02  0.72406618098E+00  0.72445542764E+00  0.51109989000E-03 0. -1.
     -623    1    1    2    0    0 -0.61427215496E-02 -0.58246951130E-02  0.76817005800E-03  0.17130000021E+03  0.17130000000E+03 0.  1.
      622    1    1    2    0    0  0.29601868490E-01  0.21860965191E-02  0.32751656167E+01  0.32755443618E+01  0.40000000000E-01 0. -1.
</event>
<event>
 5   0  0.7212170E+07  0.9118800E+02  0.7818608E-02  0.1180000E+00
       11   -1    0    0    0    0  0.00000000000E+00  0.00000000000E+00  0.39999999673E+01  0.40000000000E+01  0.51109989000E-03 0. -1.
     -623   -1    0    0    0    0  0.00000000000E+00  0.00000000000E+00  0.12525980253E-10  0.17130000000E+03  0.17130000000E+03 0. -1.
       11    1    1    2    0    0 -0.16169540667E-01  0.11950713406E-03  0.20489171700E-01  0.26106238860E-01  0.51109989000E-03 0. -1.
     -623    1    1    2    0    0  0.11799387408E-01  0.95759354981E-02  0.58333580073E-02  0.17130000077E+03  0.17130000000E+03 0. -1.
      622    1    1    2    0    0  0.43701532591E-02 -0.96954426320E-02  0.39736774376E+01  0.39738929877E+01  0.40000000000E-01 0. -1.
</event>
<event>
 5   0  0.7212170E+07  0.9118800E+02  0.7818608E-02  0.1180000E+00
       11   -1    0    0    0    0  0.00000000000E+00  0.00000000000E+00  0.39999999673E+01  0.40000000000E+01  0.51109989000E-03 0.  1.
     -623   -1    0    0    0    0  0.00000000000E+00  0.00000000000E+00  0.12525980253E-10  0.17130000000E+03  0.17130000000E+03 0.  1.
       11    1    1    2    0    0 -0.81385094239E-03  0.27620182726E-02  0.12397171182E-01  0.12737432030E-01  0.51109989000E-03 0.  1.
     -623    1    1    2    0    0 -0.30346148891E-02 -0.22929087358E-02  0.54280019061E-03  0.17130000004E+03  0.17130000000E+03 0.  1.
      622    1    1    2    0    0  0.38484658316E-02 -0.46910953681E-03  0.39870599960E+01  0.39872625249E+01  0.40000000000E-01 0.  1.
</event>
<event>
 5   0  0.7212170E+07  0.9118800E+02  0.7818608E-02  0.1180000E+00
       11   -1    0    0    0    0  0.00000000000E+00  0.00000000000E+00  0.39999999673E+01  0.40000000000E+01  0.51109989000E-03 0.  1.
     -623   -1    0    0    0    0  0.00000000000E+00  0.00000000000E+00  0.12525980253E-10  0.17130000000E+03  0.17130000000E+03 0. -1.
       11    1    1    2    0    0 -0.18474626406E-02 -0.89452312583E-02  0.82597675848E+00  0.82602741907E+00  0.51109989000E-03 0.  1.
     -623    1    1    2    0    0 -0.32922295273E-02  0.90435551282E-03  0.31707022377E-03  0.17130000003E+03  0.17130000000E+03 0. -1.
      622    1    1    2    0    0  0.51396921689E-02  0.80408757452E-02  0.31737061399E+01  0.31739725479E+01  0.40000000000E-01 0.  1.
</event>
<event>
 5   0  0.7212170E+07  0.9118800E+02  0.7818608E-02  0.1180000E+00
       11   -1    0    0    0    0  0.00000000000E+00  0.00000000000E+00  0.39999999673E+01  0.40000000000E+01  0.51109989000E-03 0.  1.
     -623   -1    0    0    0    0  0.00000000000E+00  0.00000000000E+00  0.12525980253E-10  0.17130000000E+03  0.17130000000E+03 0. -1.
       11    1    1    2    0    0  0.22411115926E-01  0.17120350262E-01  0.78967433399E+00  0.79017794167E+00  0.51109989000E-03 0.  1.
     -623    1    1    2    0    0 -0.20508861756E-01 -0.39639469852E-02  0.78162380808E-03  0.17130000128E+03  0.17130000000E+03 0. -1.
      622    1    1    2    0    0 -0.19022541688E-02 -0.13156403276E-01  0.32095440099E+01  0.32098207833E+01  0.40000000000E-01 0.  1.
</event>
<event>
 5   0  0.7212170E+07  0.9118800E+02  0.7818608E-02  0.1180000E+00
       11   -1    0    0    0    0  0.00000000000E+00  0.00000000000E+00  0.39999999673E+01  0.40000000000E+01  0.51109989000E-03 0.  1.
     -623   -1    0    0    0    0  0.00000000000E+00  0.00000000000E+00  0.12525980253E-10  0.17130000000E+03  0.17130000000E+03 0.  1.
       11    1    1    2    0    0 -0.32600121404E-02  0.33810330719E-03  0.63158080791E-01  0.63245129341E-01  0.51109989000E-03 0.  1.
     -623    1    1    2    0    0  0.27374370932E-02 -0.19210158863E-03  0.29029383427E-03  0.17130000002E+03  0.17130000000E+03 0.  1.
      622    1    1    2    0    0  0.52257504671E-03 -0.14600171852E-03  0.39365515935E+01  0.39367548492E+01  0.40000000000E-01 0.  1.
</event>
<event>
 5   0  0.7212170E+07  0.9118800E+02  0.7818608E-02  0.1180000E+00
       11   -1    0    0    0    0  0.00000000000E+00  0.00000000000E+00  0.39999999673E+01  0.40000000000E+01  0.51109989000E-03 0. -1.
     -623   -1    0    0    0    0  0.00000000000E+00  0.00000000000E+00  0.12525980253E-10  0.17130000000E+03  0.17130000000E+03 0.  1.
       11    1    1    2    0    0  0.29674074253E-02 -0.10210297351E-01  0.12887949506E+00  0.12931837127E+00  0.51109989000E-03 0. -1.
     -623    1    1    2    0    0  0.11210300138E-02  0.93338201140E-03  0.65881552123E-03  0.17130000001E+03  0.17130000000E+03 0.  1.
      622    1    1    2    0    0 -0.40884374395E-02  0.92769153395E-02  0.38704616579E+01  0.38706816223E+01  0.40000000000E-01 0. -1.
</event>
<event>
 5   0  0.7212170E+07  0.9118800E+02  0.7818608E-02  0.1180000E+00
       11   -1    0    0    0    0  0.00000000000E+00  0.00000000000E+00  0.39999999673E+01  0.40000000000E+01  0.51109989000E-03 0.  1.
     -623   -1    0    0    0    0  0.00000000000E+00  0.00000000000E+00  0.12525980253E-10  0.17130000000E+03  0.17130000000E+03 0. -1.
       11    1    1    2    0    0 -0.43670570129E-03 -0.13648343943E-03  0.70713988794E-02  0.71045932190E-02  0.51109989000E-03 0.  1.
     -623    1    1    2    0    0  0.26495538228E-03  0.60851882831E-02  0.23806622341E-03  0.17130000011E+03  0.17130000000E+03 0. -1.
      622    1    1    2    0    0  0.17175031893E-03 -0.59487048454E-02  0.39926905034E+01  0.39928952994E+01  0.40000000000E-01 0.  1.
</event>
<event>
 5   0  0.7212170E+07  0.9118800E+02  0.7818608E-02  0.1180000E+00
       11   -1    0    0    0    0  0.00000000000E+00  0.00000000000E+00  0.39999999673E+01  0.40000000000E+01  0.51109989000E-03 0.  1.
     -623   -1    0    0    0    0  0.00000000000E+00  0.00000000000E+00  0.12525980253E-10  0.17130000000E+03  0.17130000000E+03 0.  1.
       11    1    1    2    0    0  0.40922704377E-02 -0.29229520444E-02  0.30696945859E+00  0.30701107481E+00  0.51109989000E-03 0.  1.
     -623    1    1    2    0    0  0.93087049277E-03  0.49934367036E-03  0.26243181038E-03  0.17130000000E+03  0.17130000000E+03 0.  1.
      622    1    1    2    0    0 -0.50231409306E-02  0.24236083740E-02  0.36927680774E+01  0.36929889221E+01  0.40000000000E-01 0.  1.
</event>
<event>
 5   0  0.7212170E+07  0.9118800E+02  0.7818608E-02  0.1180000E+00
       11   -1    0    0    0    0  0.00000000000E+00  0.00000000000E+00  0.39999999673E+01  0.40000000000E+01  0.51109989000E-03 0.  1.
     -623   -1    0    0    0    0  0.00000000000E+00  0.00000000000E+00  0.12525980253E-10  0.17130000000E+03  0.17130000000E+03 0. -1.
       11    1    1    2    0    0 -0.36980988387E-03 -0.83089032901E-03  0.75562292064E-02  0.76279067251E-02  0.51109989000E-03 0.  1.
     -623    1    1    2    0    0  0.41385323301E-02  0.10331686362E-02  0.27386937649E-03  0.17130000005E+03  0.17130000000E+03 0. -1.
      622    1    1    2    0    0 -0.37687224459E-02 -0.20227830714E-03  0.39921698684E+01  0.39923720396E+01  0.40000000000E-01 0.  1.
</event>
<event>
 5   0  0.7212170E+07  0.9118800E+02  0.7818608E-02  0.1180000E+00
       11   -1    0    0    0    0  0.00000000000E+00  0.00000000000E+00  0.39999999673E+01  0.40000000000E+01  0.51109989000E-03 0. -1.
     -623   -1    0    0    0    0  0.00000000000E+00  0.00000000000E+00  0.12525980253E-10  0.17130000000E+03  0.17130000000E+03 0. -1.
       11    1    1    2    0    0 -0.24410313182E-03 -0.99294596202E-03  0.17668749469E-02  0.21044234835E-02  0.51109989000E-03 0. -1.
     -623    1    1    2    0    0  0.10439418330E-02 -0.30264373106E-03  0.53792042820E-03  0.17130000000E+03  0.17130000000E+03 0. -1.
      622    1    1    2    0    0 -0.79983870134E-03  0.12955896931E-02  0.39976951724E+01  0.39978955727E+01  0.40000000000E-01 0. -1.
</event>
<event>
 5   0  0.7212170E+07  0.9118800E+02  0.7818608E-02  0.1180000E+00
       11   -1    0    0    0    0  0.00000000000E+00  0.00000000000E+00  0.39999999673E+01  0.40000000000E+01  0.51109989000E-03 0. -1.
     -623   -1    0    0    0    0  0.00000000000E+00  0.00000000000E+00  0.12525980253E-10  0.17130000000E+03  0.17130000000E+03 0.  1.
       11    1    1    2    0    0 -0.37224767224E-01  0.61259820675E-01  0.11690383069E+01  0.11712340812E+01  0.51109989000E-03 0. -1.
     -623    1    1    2    0    0  0.48691630498E-02  0.22554324145E-02  0.33770221893E-02  0.17130000012E+03  0.17130000000E+03 0.  1.
      622    1    1    2    0    0  0.32355604174E-01 -0.63515253090E-01  0.28275846384E+01  0.28287658015E+01  0.40000000000E-01 0. -1.
</event>
<event>
 5   0  0.7212170E+07  0.9118800E+02  0.7818608E-02  0.1180000E+00
       11   -1    0    0    0    0  0.00000000000E+00  0.00000000000E+00  0.39999999673E+01  0.40000000000E+01  0.51109989000E-03 0. -1.
     -623   -1    0    0    0    0  0.00000000000E+00  0.00000000000E+00  0.12525980253E-10  0.17130000000E+03  0.17130000000E+03 0. -1.
       11    1    1    2    0    0  0.19737276238E-02  0.17194185085E-02  0.13079459719E+00  0.13082178671E+00  0.51109989000E-03 0. -1.
     -623    1    1    2    0    0  0.26045384678E-03  0.78944131574E-03  0.23538535533E-03  0.17130000000E+03  0.17130000000E+03 0. -1.
      622    1    1    2    0    0 -0.22341814707E-02 -0.25088598245E-02  0.38689699858E+01  0.38691782121E+01  0.40000000000E-01 0. -1.
</event>
<event>
 5   0  0.7212170E+07  0.9118800E+02  0.7818608E-02  0.1180000E+00
       11   -1    0    0    0    0  0.00000000000E+00  0.00000000000E+00  0.39999999673E+01  0.40000000000E+01  0.51109989000E-03 0. -1.
     -623   -1    0    0    0    0  0.00000000000E+00  0.00000000000E+00  0.12525980253E-10  0.17130000000E+03  0.17130000000E+03 0. -1.
       11    1    1    2    0    0  0.11223463068E-02  0.16597653616E-02  0.22928749359E-01  0.23021799507E-01  0.51109989000E-03 0. -1.
     -623    1    1    2    0    0 -0.11668007430E-02 -0.26447974375E-03  0.29442980257E-03  0.17130000000E+03  0.17130000000E+03 0. -1.
      622    1    1    2    0    0  0.44454436393E-04 -0.13952856178E-02  0.39767767890E+01  0.39769781969E+01  0.40000000000E-01 0. -1.
</event>
<event>
 5   0  0.7212170E+07  0.9118800E+02  0.7818608E-02  0.1180000E+00
       11   -1    0    0    0    0  0.00000000000E+00  0.00000000000E+00  0.39999999673E+01  0.40000000000E+01  0.51109989000E-03 0.  1.
     -623   -1    0    0    0    0  0.00000000000E+00  0.00000000000E+00  0.12525980253E-10  0.17130000000E+03  0.17130000000E+03 0.  1.
       11    1    1    2    0    0  0.12276157284E-01  0.34403980767E-02  0.13203932412E+01  0.13204548887E+01  0.51109989000E-03 0.  1.
     -623    1    1    2    0    0 -0.11880810638E-01 -0.69900223357E-02  0.36312521682E-03  0.17130000056E+03  0.17130000000E+03 0.  1.
      622    1    1    2    0    0 -0.39534664189E-03  0.35496242613E-02  0.26792436022E+01  0.26795445576E+01  0.40000000000E-01 0.  1.
</event>
<event>
 5   0  0.7212170E+07  0.9118800E+02  0.7818608E-02  0.1180000E+00
       11   -1    0    0    0    0  0.00000000000E+00  0.00000000000E+00  0.39999999673E+01  0.40000000000E+01  0.51109989000E-03 0. -1.
     -623   -1    0    0    0    0  0.00000000000E+00  0.00000000000E+00  0.12525980253E-10  0.17130000000E+03  0.17130000000E+03 0.  1.
       11    1    1    2    0    0 -0.65098717833E-02 -0.22967205229E-02  0.17601444559E+01  0.17601580668E+01  0.51109989000E-03 0. -1.
     -623    1    1    2    0    0 -0.26486455009E-02  0.11369560613E-01  0.40827908516E-03  0.17130000040E+03  0.17130000000E+03 0.  1.
      622    1    1    2    0    0  0.91585172838E-02 -0.90728400884E-02  0.22394472318E+01  0.22398415343E+01  0.40000000000E-01 0. -1.
</event>
<event>
 5   0  0.7212170E+07  0.9118800E+02  0.7818608E-02  0.1180000E+00
       11   -1    0    0    0    0  0.00000000000E+00  0.00000000000E+00  0.39999999673E+01  0.40000000000E+01  0.51109989000E-03 0. -1.
     -623   -1    0    0    0    0  0.00000000000E+00  0.00000000000E+00  0.12525980253E-10  0.17130000000E+03  0.17130000000E+03 0.  1.
       11    1    1    2    0    0 -0.74801012115E-03  0.25059905637E-01  0.54898976351E+00  0.54956217123E+00  0.51109989000E-03 0. -1.
     -623    1    1    2    0    0  0.48986933423E-02 -0.22103790694E-02  0.88248394192E-03  0.17130000009E+03  0.17130000000E+03 0.  1.
      622    1    1    2    0    0 -0.41506832216E-02 -0.22849526567E-01  0.34501277203E+01  0.34504377426E+01  0.40000000000E-01 0. -1.
</event>
<event>
 5   0  0.7212170E+07  0.9118800E+02  0.7818608E-02  0.1180000E+00
       11   -1    0    0    0    0  0.00000000000E+00  0.00000000000E+00  0.39999999673E+01  0.40000000000E+01  0.51109989000E-03 0.  1.
     -623   -1    0    0    0    0  0.00000000000E+00  0.00000000000E+00  0.12525980253E-10  0.17130000000E+03  0.17130000000E+03 0.  1.
       11    1    1    2    0    0  0.38474239647E-01 -0.14388097104E-01  0.13028819139E+01  0.13035293734E+01  0.51109989000E-03 0.  1.
     -623    1    1    2    0    0  0.62021784806E-01 -0.17355341490E-01  0.30168476451E-02  0.17130001213E+03  0.17130000000E+03 0.  1.
      622    1    1    2    0    0 -0.10049602446E+00  0.31743438595E-01  0.26941012060E+01  0.26964584931E+01  0.40000000000E-01 0.  1.
</event>
<event>
 5   0  0.7212170E+07  0.9118800E+02  0.7818608E-02  0.1180000E+00
       11   -1    0    0    0    0  0.00000000000E+00  0.00000000000E+00  0.39999999673E+01  0.40000000000E+01  0.51109989000E-03 0.  1.
     -623   -1    0    0    0    0  0.00000000000E+00  0.00000000000E+00  0.12525980253E-10  0.17130000000E+03  0.17130000000E+03 0.  1.
       11    1    1    2    0    0  0.39819039056E-02 -0.20538629507E-02  0.15950547444E-01  0.16575738252E-01  0.51109989000E-03 0.  1.
     -623    1    1    2    0    0  0.14945374061E-02  0.97871859664E-03  0.82991661134E-03  0.17130000001E+03  0.17130000000E+03 0.  1.
      622    1    1    2    0    0 -0.54764413116E-02  0.10751443541E-02  0.39832195031E+01  0.39834242502E+01  0.40000000000E-01 0.  1.
</event>
<event>
 5   0  0.7212170E+07  0.9118800E+02  0.7818608E-02  0.1180000E+00
       11   -1    0    0    0    0  0.00000000000E+00  0.00000000000E+00  0.39999999673E+01  0.40000000000E+01  0.51109989000E-03 0. -1.
     -623   -1    0    0    0    0  0.00000000000E+00  0.00000000000E+00  0.12525980253E-10  0.17130000000E+03  0.17130000000E+03 0. -1.
       11    1    1    2    0    0  0.22472601519E-02  0.67647246943E-04  0.83943524948E-02  0.87052358524E-02  0.51109989000E-03 0. -1.
     -623    1    1    2    0    0 -0.39234055654E-03  0.14134084697E-02  0.51200486067E-03  0.17130000001E+03  0.17130000000E+03 0. -1.
      622    1    1    2    0    0 -0.18549195954E-02 -0.14810557166E-02  0.39910936100E+01  0.39912947571E+01  0.40000000000E-01 0. -1.
</event>
<event>
 5   0  0.7212170E+07  0.9118800E+02  0.7818608E-02  0.1180000E+00
       11   -1    0    0    0    0  0.00000000000E+00  0.00000000000E+00  0.39999999673E+01  0.40000000000E+01  0.51109989000E-03 0.  1.
     -623   -1    0    0    0    0  0.00000000000E+00  0.00000000000E+00  0.12525980253E-10  0.17130000000E+03  0.17130000000E+03 0. -1.
       11    1    1    2    0    0  0.23721270102E-02  0.71239239281E-03  0.94855349307E-01  0.94889056296E-01  0.51109989000E-03 0.  1.
     -623    1    1    2    0    0  0.28808767569E-03  0.89740519312E-04  0.23952841301E-03  0.17130000000E+03  0.17130000000E+03 0. -1.
      622    1    1    2    0    0 -0.26602146859E-02 -0.80213291214E-03  0.39049050904E+01  0.39051109441E+01  0.40000000000E-01 0.  1.
</event>
<event>
 5   0  0.7212170E+07  0.9118800E+02  0.7818608E-02  0.1180000E+00
       11   -1    0    0    0    0  0.00000000000E+00  0.00000000000E+00  0.39999999673E+01  0.40000000000E+01  0.51109989000E-03 0. -1.
     -623   -1    0    0    0    0  0.00000000000E+00  0.00000000000E+00  0.12525980253E-10  0.17130000000E+03  0.17130000000E+03 0. -1.
       11    1    1    2    0    0 -0.10668805881E-02  0.28559126754E-02  0.10973675632E+00  0.10978028685E+00  0.51109989000E-03 0. -1.
     -623    1    1    2    0    0  0.90333203316E-03 -0.22063658282E-02  0.24922168440E-03  0.17130000002E+03  0.17130000000E+03 0. -1.
      622    1    1    2    0    0  0.16354855493E-03 -0.64954684720E-03  0.38900139893E+01  0.38902196963E+01  0.40000000000E-01 0. -1.
</event>
<event>
 5   0  0.7212170E+07  0.9118800E+02  0.7818608E-02  0.1180000E+00
       11   -1    0    0    0    0  0.00000000000E+00  0.00000000000E+00  0.39999999673E+01  0.40000000000E+01  0.51109989000E-03 0.  1.
     -623   -1    0    0    0    0  0.00000000000E+00  0.00000000000E+00  0.12525980253E-10  0.17130000000E+03  0.17130000000E+03 0. -1.
       11    1    1    2    0    0 -0.22238872536E-01 -0.13669833534E-01  0.55843606487E-01  0.61645773652E-01  0.51109989000E-03 0.  1.
     -623    1    1    2    0    0  0.73543247319E-02 -0.20663570103E-02  0.60651167111E-02  0.17130000028E+03  0.17130000000E+03 0. -1.
      622    1    1    2    0    0  0.14884547804E-01  0.15736190545E-01  0.39380912442E+01  0.39383539486E+01  0.40000000000E-01 0.  1.
</event>
<event>
 5   0  0.7212170E+07  0.9118800E+02  0.7818608E-02  0.1180000E+00
       11   -1    0    0    0    0  0.00000000000E+00  0.00000000000E+00  0.39999999673E+01  0.40000000000E+01  0.51109989000E-03 0.  1.
     -623   -1    0    0    0    0  0.00000000000E+00  0.00000000000E+00  0.12525980253E-10  0.17130000000E+03  0.17130000000E+03 0.  1.
       11    1    1    2    0    0 -0.26289863565E-02 -0.13790391194E-02  0.31310412493E+00  0.31311861584E+00  0.51109989000E-03 0.  1.
     -623    1    1    2    0    0  0.14577629961E-03  0.57406248065E-04  0.23252364384E-03  0.17130000000E+03  0.17130000000E+03 0.  1.
      622    1    1    2    0    0  0.24832100569E-02  0.13216328714E-02  0.36866633191E+01  0.36868813843E+01  0.40000000000E-01 0.  1.
</event>
<event>
 5   0  0.7212170E+07  0.9118800E+02  0.7818608E-02  0.1180000E+00
       11   -1    0    0    0    0  0.00000000000E+00  0.00000000000E+00  0.39999999673E+01  0.40000000000E+01  0.51109989000E-03 0. -1.
     -623   -1    0    0    0    0  0.00000000000E+00  0.00000000000E+00  0.12525980253E-10  0.17130000000E+03  0.17130000000E+03 0.  1.
       11    1    1    2    0    0 -0.30700652822E-01 -0.33070584044E-02  0.74651964559E+00  0.74715815541E+00  0.51109989000E-03 0. -1.
     -623    1    1    2    0    0  0.23152515282E-02  0.28334565104E-02  0.10083638481E-02  0.17130000004E+03  0.17130000000E+03 0.  1.
      622    1    1    2    0    0  0.28385401293E-01  0.47360189378E-03  0.32524719582E+01  0.32528418028E+01  0.40000000000E-01 0. -1.
</event>
<event>
 5   0  0.7212170E+07  0.9118800E+02  0.7818608E-02  0.1180000E+00
       11   -1    0    0    0    0  0.00000000000E+00  0.00000000000E+00  0.39999999673E+01  0.40000000000E+01  0.51109989000E-03 0. -1.
     -623   -1    0    0    0    0  0.00000000000E+00  0.00000000000E+00  0.12525980253E-10  0.17130000000E+03  0.17130000000E+03 0. -1.
       11    1    1    2    0    0  0.17099122797E-02  0.82587825540E-03  0.21476907849E+00  0.21477808123E+00  0.51109989000E-03 0. -1.
     -623    1    1    2    0    0 -0.59318697635E-03  0.30149317838E-03  0.22065830299E-03  0.17130000000E+03  0.17130000000E+03 0. -1.
      622    1    1    2    0    0 -0.11167253032E-02 -0.11273714339E-02  0.37850102316E+01  0.37852219183E+01  0.40000000000E-01 0. -1.
</event>
<event>
 5   0  0.7212170E+07  0.9118800E+02  0.7818608E-02  0.1180000E+00
       11   -1    0    0    0    0  0.00000000000E+00  0.00000000000E+00  0.39999999673E+01  0.40000000000E+01  0.51109989000E-03 0.  1.
     -623   -1    0    0    0    0  0.00000000000E+00  0.00000000000E+00  0.12525980253E-10  0.17130000000E+03  0.17130000000E+03 0. -1.
       11    1    1    2    0    0 -0.62327772156E-01  0.53197661265E-01  0.20853341413E+01  0.20869435748E+01  0.51109989000E-03 0.  1.
     -623    1    1    2    0    0 -0.31881523885E-02 -0.45178361802E-02  0.37701397329E-02  0.17130000013E+03  0.17130000000E+03 0. -1.
      622    1    1    2    0    0  0.65515924545E-01 -0.48679825084E-01  0.19108956864E+01  0.19130562945E+01  0.40000000000E-01 0.  1.
</event>
<event>
 5   0  0.7212170E+07  0.9118800E+02  0.7818608E-02  0.1180000E+00
       11   -1    0    0    0    0  0.00000000000E+00  0.00000000000E+00  0.39999999673E+01  0.40000000000E+01  0.51109989000E-03 0.  1.
     -623   -1    0    0    0    0  0.00000000000E+00  0.00000000000E+00  0.12525980253E-10  0.17130000000E+03  0.17130000000E+03 0. -1.
       11    1    1    2    0    0 -0.15615658962E-02 -0.11342317820E-02  0.75606395824E-02  0.78198122596E-02  0.51109989000E-03 0.  1.
     -623    1    1    2    0    0 -0.37408761085E-03  0.29331162036E-03  0.46009595692E-03  0.17130000000E+03  0.17130000000E+03 0. -1.
      622    1    1    2    0    0  0.19356535071E-02  0.84092016162E-03  0.39919792326E+01  0.39921801872E+01  0.40000000000E-01 0.  1.
</event>
<event>
 5   0  0.7212170E+07  0.9118800E+02  0.7818608E-02  0.1180000E+00
       11   -1    0    0    0    0  0.00000000000E+00  0.00000000000E+00  0.39999999673E+01  0.40000000000E+01  0.51109989000E-03 0.  1.
     -623   -1    0    0    0    0  0.00000000000E+00  0.00000000000E+00  0.12525980253E-10  0.17130000000E+03  0.17130000000E+03 0. -1.
       11    1    1    2    0    0  0.54918310642E-02  0.13863271264E-01  0.38746714624E+00  0.38775430512E+00  0.51109989000E-03 0.  1.
     -623    1    1    2    0    0 -0.52439386600E-02 -0.50889253364E-03  0.53337926212E-03  0.17130000008E+03  0.17130000000E+03 0. -1.
      622    1    1    2    0    0 -0.24789240340E-03 -0.13354378731E-01  0.36119994424E+01  0.36122456136E+01  0.40000000000E-01 0.  1.
</event>
<event>
 5   0  0.7212170E+07  0.9118800E+02  0.7818608E-02  0.1180000E+00
       11   -1    0    0    0    0  0.00000000000E+00  0.00000000000E+00  0.39999999673E+01  0.40000000000E+01  0.51109989000E-03 0.  1.
     -623   -1    0    0    0    0  0.00000000000E+00  0.00000000000E+00  0.12525980253E-10  0.17130000000E+03  0.17130000000E+03 0.  1.
       11    1    1    2    0    0  0.17921905150E-02  0.47392870963E-02  0.76510702582E+00  0.76512397360E+00  0.51109989000E-03 0.  1.
     -623    1    1    2    0    0  0.18173758854E-03 -0.11479816060E-02  0.26682937764E-03  0.17130000000E+03  0.17130000000E+03 0.  1.
      622    1    1    2    0    0 -0.19739281036E-02 -0.35913054902E-02  0.32346261128E+01  0.32348760229E+01  0.40000000000E-01 0.  1.
</event>
<event>
 5   0  0.7212170E+07  0.9118800E+02  0.7818608E-02  0.1180000E+00
       11   -1    0    0    0    0  0.00000000000E+00  0.00000000000E+00  0.39999999673E+01  0.40000000000E+01  0.51109989000E-03 0. -1.
     -623   -1    0    0    0    0  0.00000000000E+00  0.00000000000E+00  0.12525980253E-10  0.17130000000E+03  0.17130000000E+03 0. -1.
       11    1    1    2    0    0 -0.13234706631E-01 -0.42666938625E-02  0.63841334828E+00  0.63856497448E+00  0.51109989000E-03 0. -1.
     -623    1    1    2    0    0  0.26789233318E-02 -0.76581393450E-03  0.40996134202E-03  0.17130000002E+03  0.17130000000E+03 0. -1.
      622    1    1    2    0    0  0.10555783300E-01  0.50325077969E-02  0.33611766573E+01  0.33614350019E+01  0.40000000000E-01 0. -1.
</event>
<event>
 5   0  0.7212170E+07  0.9118800E+02  0.7818608E-02  0.1180000E+00
       11   -1    0    0    0    0  0.00000000000E+00  0.00000000000E+00  0.39999999673E+01  0.40000000000E+01  0.51109989000E-03 0.  1.
     -623   -1    0    0    0    0  0.00000000000E+00  0.00000000000E+00  0.12525980253E-10  0.17130000000E+03  0.17130000000E+03 0. -1.
       11    1    1    2    0    0 -0.24709351634E-03  0.11358781105E-02  0.19594707656E-01  0.19635810794E-01  0.51109989000E-03 0.  1.
     -623    1    1    2    0    0  0.21994302238E-03 -0.14183380054E-04  0.24222066998E-03  0.17130000000E+03  0.17130000000E+03 0. -1.
      622    1    1    2    0    0  0.27150493929E-04 -0.11216947304E-02  0.39801630396E+01  0.39803641894E+01  0.40000000000E-01 0.  1.
</event>
<event>
 5   0  0.7212170E+07  0.9118800E+02  0.7818608E-02  0.1180000E+00
       11   -1    0    0    0    0  0.00000000000E+00  0.00000000000E+00  0.39999999673E+01  0.40000000000E+01  0.51109989000E-03 0. -1.
     -623   -1    0    0    0    0  0.00000000000E+00  0.00000000000E+00  0.12525980253E-10  0.17130000000E+03  0.17130000000E+03 0.  1.
       11    1    1    2    0    0  0.61348628771E-03 -0.34181435009E-03  0.33108818581E-02  0.34229175057E-02  0.51109989000E-03 0. -1.
     -623    1    1    2    0    0  0.58333991305E-03  0.34541172553E-03  0.31236015269E-03  0.17130000000E+03  0.17130000000E+03 0.  1.
      622    1    1    2    0    0 -0.11968262005E-02 -0.35973753066E-05  0.39963767238E+01  0.39965770793E+01  0.40000000000E-01 0. -1.
</event>
<event>
 5   0  0.7212170E+07  0.9118800E+02  0.7818608E-02  0.1180000E+00
       11   -1    0    0    0    0  0.00000000000E+00  0.00000000000E+00  0.39999999673E+01  0.40000000000E+01  0.51109989000E-03 0.  1.
     -623   -1    0    0    0    0  0.00000000000E+00  0.00000000000E+00  0.12525980253E-10  0.17130000000E+03  0.17130000000E+03 0.  1.
       11    1    1    2    0    0  0.21071952192E-01  0.29776417817E-01  0.17852265403E+01  0.17855992618E+01  0.51109989000E-03 0.  1.
     -623    1    1    2    0    0 -0.30687153628E-01 -0.73022274771E-02  0.87184487311E-03  0.17130000291E+03  0.17130000000E+03 0.  1.
      622    1    1    2    0    0  0.96152014378E-02 -0.22474190340E-01  0.22139015823E+01  0.22143978318E+01  0.40000000000E-01 0.  1.
</event>
<event>
 5   0  0.7212170E+07  0.9118800E+02  0.7818608E-02  0.1180000E+00
       11   -1    0    0    0    0  0.00000000000E+00  0.00000000000E+00  0.39999999673E+01  0.40000000000E+01  0.51109989000E-03 0. -1.
     -623   -1    0    0    0    0  0.00000000000E+00  0.00000000000E+00  0.12525980253E-10  0.17130000000E+03  0.17130000000E+03 0. -1.
       11    1    1    2    0    0 -0.42673704319E-02  0.35720699958E-02  0.12899404600E+00  0.12911504661E+00  0.51109989000E-03 0. -1.
     -623    1    1    2    0    0  0.62443616384E-02 -0.34710508772E-02  0.32830007858E-03  0.17130000015E+03  0.17130000000E+03 0. -1.
      622    1    1    2    0    0 -0.19769912073E-02 -0.10101911813E-03  0.38706776218E+01  0.38708848046E+01  0.40000000000E-01 0. -1.
</event>
<event>
 5   0  0.7212170E+07  0.9118800E+02  0.7818608E-02  0.1180000E+00
       11   -1    0    0    0    0  0.00000000000E+00  0.00000000000E+00  0.39999999673E+01  0.40000000000E+01  0.51109989000E-03 0.  1.
     -623   -1    0    0    0    0  0.00000000000E+00  0.00000000000E+00  0.12525980253E-10  0.17130000000E+03  0.17130000000E+03 0.  1.
       11    1    1    2    0    0  0.12701049741E-02 -0.32973619741E-02  0.62308009491E-01  0.62410215770E-01  0.51109989000E-03 0.  1.
     -623    1    1    2    0    0  0.21810786167E-02  0.85994746466E-02  0.31066132635E-03  0.17130000023E+03  0.17130000000E+03 0.  1.
      622    1    1    2    0    0 -0.34511835909E-02 -0.53021126729E-02  0.39373812967E+01  0.39375895544E+01  0.40000000000E-01 0.  1.
</event>
<event>
 5   0  0.7212170E+07  0.9118800E+02  0.7818608E-02  0.1180000E+00
       11   -1    0    0    0    0  0.00000000000E+00  0.00000000000E+00  0.39999999673E+01  0.40000000000E+01  0.51109989000E-03 0.  1.
     -623   -1    0    0    0    0  0.00000000000E+00  0.00000000000E+00  0.12525980253E-10  0.17130000000E+03  0.17130000000E+03 0.  1.
       11    1    1    2    0    0 -0.30818676154E-02 -0.22558768107E-02  0.76076433102E-01  0.76173957392E-01  0.51109989000E-03 0.  1.
     -623    1    1    2    0    0 -0.14092543195E-02  0.24397253433E-02  0.30397768514E-03  0.17130000002E+03  0.17130000000E+03 0.  1.
      622    1    1    2    0    0  0.44911219356E-02 -0.18384853367E-03  0.39236195584E+01  0.39238260210E+01  0.40000000000E-01 0.  1.
</event>
<event>
 5   0  0.7212170E+07  0.9118800E+02  0.7818608E-02  0.1180000E+00
       11   -1    0    0    0    0  0.00000000000E+00  0.00000000000E+00  0.39999999673E+01  0.40000000000E+01  0.51109989000E-03 0. -1.
     -623   -1    0    0    0    0  0.00000000000E+00  0.00000000000E+00  0.12525980253E-10  0.17130000000E+03  0.17130000000E+03 0. -1.
       11    1    1    2    0    0  0.60933367064E-02 -0.40237841039E-01  0.19193568910E+01  0.19197883605E+01  0.51109989000E-03 0. -1.
     -623    1    1    2    0    0 -0.16033838122E-02 -0.22641134736E-02  0.12552392865E-02  0.17130000003E+03  0.17130000000E+03 0. -1.
      622    1    1    2    0    0 -0.44899528942E-02  0.42501954512E-01  0.20793878369E+01  0.20802116124E+01  0.40000000000E-01 0.  0.
</event>
<event>
 5   0  0.7212170E+07  0.9118800E+02  0.7818608E-02  0.1180000E+00
       11   -1    0    0    0    0  0.00000000000E+00  0.00000000000E+00  0.39999999673E+01  0.40000000000E+01  0.51109989000E-03 0.  1.
     -623   -1    0    0    0    0  0.00000000000E+00  0.00000000000E+00  0.12525980253E-10  0.17130000000E+03  0.17130000000E+03 0. -1.
       11    1    1    2    0    0  0.12807278097E-02 -0.22717407547E-02  0.30274029481E-01  0.30390445108E-01  0.51109989000E-03 0.  1.
     -623    1    1    2    0    0 -0.13843773314E-03  0.43685522557E-03  0.31850862239E-03  0.17130000000E+03  0.17130000000E+03 0. -1.
      622    1    1    2    0    0 -0.11422900766E-02  0.18348855292E-02  0.39694074291E+01  0.39696095538E+01  0.40000000000E-01 0.  1.
</event>
<event>
 5   0  0.7212170E+07  0.9118800E+02  0.7818608E-02  0.1180000E+00
       11   -1    0    0    0    0  0.00000000000E+00  0.00000000000E+00  0.39999999673E+01  0.40000000000E+01  0.51109989000E-03 0.  1.
     -623   -1    0    0    0    0  0.00000000000E+00  0.00000000000E+00  0.12525980253E-10  0.17130000000E+03  0.17130000000E+03 0.  1.
       11    1    1    2    0    0 -0.11998932770E-01 -0.22616754088E-01  0.20928505301E+01  0.20930071893E+01  0.51109989000E-03 0.  1.
     -623    1    1    2    0    0  0.16931295448E-01  0.17500557609E-02  0.69760155415E-03  0.17130000085E+03  0.17130000000E+03 0.  1.
      622    1    1    2    0    0 -0.49323626762E-02  0.20866698327E-01  0.19064518354E+01  0.19069919633E+01  0.40000000000E-01 0.  1.
</event>
<event>
 5   0  0.7212170E+07  0.9118800E+02  0.7818608E-02  0.1180000E+00
       11   -1    0    0    0    0  0.00000000000E+00  0.00000000000E+00  0.39999999673E+01  0.40000000000E+01  0.51109989000E-03 0.  1.
     -623   -1    0    0    0    0  0.00000000000E+00  0.00000000000E+00  0.12525980253E-10  0.17130000000E+03  0.17130000000E+03 0.  1.
       11    1    1    2    0    0 -0.44173755088E-02  0.12314073932E-01  0.19714872898E+00  0.19758297544E+00  0.51109989000E-03 0.  1.
     -623    1    1    2    0    0 -0.49283410664E-02 -0.87827414265E-02  0.65803511800E-03  0.17130000030E+03  0.17130000000E+03 0.  1.
      622    1    1    2    0    0  0.93457165752E-02 -0.35313325052E-02  0.38021932033E+01  0.38024167273E+01  0.40000000000E-01 0.  1.
</event>
<event>
 5   0  0.7212170E+07  0.9118800E+02  0.7818608E-02  0.1180000E+00
       11   -1    0    0    0    0  0.00000000000E+00  0.00000000000E+00  0.39999999673E+01  0.40000000000E+01  0.51109989000E-03 0.  1.
     -623   -1    0    0    0    0  0.00000000000E+00  0.00000000000E+00  0.12525980253E-10  0.17130000000E+03  0.17130000000E+03 0.  1.
       11    1    1    2    0    0  0.63894708244E-01 -0.37863130585E-01  0.22667198842E+01  0.22679363847E+01  0.51109989000E-03 0.  1.
     -623    1    1    2    0    0 -0.61724715075E-02 -0.11651472793E-01  0.33497540672E-02  0.17130000054E+03  0.17130000000E+03 0.  1.
      622    1    1    2    0    0 -0.57722236736E-01  0.49514603379E-01  0.17299303291E+01  0.17320630751E+01  0.40000000000E-01 0.  1.
</event>
<event>
 5   0  0.7212170E+07  0.9118800E+02  0.7818608E-02  0.1180000E+00
       11   -1    0    0    0    0  0.00000000000E+00  0.00000000000E+00  0.39999999673E+01  0.40000000000E+01  0.51109989000E-03 0. -1.
     -623   -1    0    0    0    0  0.00000000000E+00  0.00000000000E+00  0.12525980253E-10  0.17130000000E+03  0.17130000000E+03 0.  1.
       11    1    1    2    0    0 -0.70783521903E-04 -0.53422527840E-02  0.31126469703E-01  0.31585804001E-01  0.51109989000E-03 0. -1.
     -623    1    1    2    0    0  0.36977068596E-03 -0.12996821496E-02  0.66647511828E-03  0.17130000001E+03  0.17130000000E+03 0.  1.
      622    1    1    2    0    0 -0.29898716410E-03  0.66419349338E-02  0.39682070230E+01  0.39684141898E+01  0.40000000000E-01 0. -1.
</event>
<event>
 5   0  0.7212170E+07  0.9118800E+02  0.7818608E-02  0.1180000E+00
       11   -1    0    0    0    0  0.00000000000E+00  0.00000000000E+00  0.39999999673E+01  0.40000000000E+01  0.51109989000E-03 0. -1.
     -623   -1    0    0    0    0  0.00000000000E+00  0.00000000000E+00  0.12525980253E-10  0.17130000000E+03  0.17130000000E+03 0.  1.
       11    1    1    2    0    0 -0.69962361210E-03  0.57488179597E-03  0.36591991606E-02  0.38040667545E-02  0.51109989000E-03 0. -1.
     -623    1    1    2    0    0 -0.25778670173E-03 -0.10824013582E-02  0.34518123774E-03  0.17130000000E+03  0.17130000000E+03 0.  1.
      622    1    1    2    0    0  0.95741031384E-03  0.50751956229E-03  0.39959955871E+01  0.39961959295E+01  0.40000000000E-01 0. -1.
</event>
<event>
 5   0  0.7212170E+07  0.9118800E+02  0.7818608E-02  0.1180000E+00
       11   -1    0    0    0    0  0.00000000000E+00  0.00000000000E+00  0.39999999673E+01  0.40000000000E+01  0.51109989000E-03 0.  1.
     -623   -1    0    0    0    0  0.00000000000E+00  0.00000000000E+00  0.12525980253E-10  0.17130000000E+03  0.17130000000E+03 0. -1.
       11    1    1    2    0    0 -0.29792396781E-01  0.98951634781E-02  0.17684684469E+01  0.17687471301E+01  0.51109989000E-03 0.  1.
     -623    1    1    2    0    0  0.10751637660E-01  0.17410585330E-01  0.88682645355E-03  0.17130000122E+03  0.17130000000E+03 0. -1.
      622    1    1    2    0    0  0.19040759121E-01 -0.27305748808E-01  0.22306446941E+01  0.22312516456E+01  0.40000000000E-01 0.  1.
</event>
<event>
 5   0  0.7212170E+07  0.9118800E+02  0.7818608E-02  0.1180000E+00
       11   -1    0    0    0    0  0.00000000000E+00  0.00000000000E+00  0.39999999673E+01  0.40000000000E+01  0.51109989000E-03 0. -1.
     -623   -1    0    0    0    0  0.00000000000E+00  0.00000000000E+00  0.12525980253E-10  0.17130000000E+03  0.17130000000E+03 0.  1.
       11    1    1    2    0    0 -0.10266597065E-01  0.65878323639E-02  0.74320416611E-01  0.75316585816E-01  0.51109989000E-03 0. -1.
     -623    1    1    2    0    0  0.16486798236E-02  0.14980402130E-02  0.12177909564E-02  0.17130000002E+03  0.17130000000E+03 0.  1.
      622    1    1    2    0    0  0.86179172416E-02 -0.80858725769E-02  0.39244617596E+01  0.39246833952E+01  0.40000000000E-01 0. -1.
</event>
<event>
 5   0  0.7212170E+07  0.9118800E+02  0.7818608E-02  0.1180000E+00
       11   -1    0    0    0    0  0.00000000000E+00  0.00000000000E+00  0.39999999673E+01  0.40000000000E+01  0.51109989000E-03 0. -1.
     -623   -1    0    0    0    0  0.00000000000E+00  0.00000000000E+00  0.12525980253E-10  0.17130000000E+03  0.17130000000E+03 0. -1.
       11    1    1    2    0    0 -0.30257771435E-02  0.44851665982E-03  0.31748227617E-01  0.31899336583E-01  0.51109989000E-03 0. -1.
     -623    1    1    2    0    0  0.22867199791E-03  0.18210871474E-03  0.35372585091E-03  0.17130000000E+03  0.17130000000E+03 0. -1.
      622    1    1    2    0    0  0.27971051456E-02 -0.63062537460E-03  0.39678980147E+01  0.39681006636E+01  0.40000000000E-01 0. -1.
</event>
<event>
 5   0  0.7212170E+07  0.9118800E+02  0.7818608E-02  0.1180000E+00
       11   -1    0    0    0    0  0.00000000000E+00  0.00000000000E+00  0.39999999673E+01  0.40000000000E+01  0.51109989000E-03 0. -1.
     -623   -1    0    0    0    0  0.00000000000E+00  0.00000000000E+00  0.12525980253E-10  0.17130000000E+03  0.17130000000E+03 0.  1.
       11    1    1    2    0    0 -0.66955130328E-02  0.31911119496E-01  0.67398778458E+00  0.67477621804E+00  0.51109989000E-03 0. -1.
     -623    1    1    2    0    0  0.17582589019E-02 -0.42055856920E-02  0.11481557682E-02  0.17130000006E+03  0.17130000000E+03 0.  1.
      622    1    1    2    0    0  0.49372541308E-02 -0.27705533804E-01  0.33248640273E+01  0.33252237178E+01  0.40000000000E-01 0. -1.
</event>
<event>
 5   0  0.7212170E+07  0.9118800E+02  0.7818608E-02  0.1180000E+00
       11   -1    0    0    0    0  0.00000000000E+00  0.00000000000E+00  0.39999999673E+01  0.40000000000E+01  0.51109989000E-03 0. -1.
     -623   -1    0    0    0    0  0.00000000000E+00  0.00000000000E+00  0.12525980253E-10  0.17130000000E+03  0.17130000000E+03 0. -1.
       11    1    1    2    0    0 -0.88931000169E-04 -0.47441359870E-03  0.16882782387E-02  0.18287929063E-02  0.51109989000E-03 0. -1.
     -623    1    1    2    0    0  0.66655374922E-03  0.10244055900E-02  0.34066277256E-03  0.17130000000E+03  0.17130000000E+03 0. -1.
      622    1    1    2    0    0 -0.57762274925E-03 -0.54999199158E-03  0.39979710276E+01  0.39981712036E+01  0.40000000000E-01 0. -1.
</event>
<event>
 5   0  0.7212170E+07  0.9118800E+02  0.7818608E-02  0.1180000E+00
       11   -1    0    0    0    0  0.00000000000E+00  0.00000000000E+00  0.39999999673E+01  0.40000000000E+01  0.51109989000E-03 0. -1.
     -623   -1    0    0    0    0  0.00000000000E+00  0.00000000000E+00  0.12525980253E-10  0.17130000000E+03  0.17130000000E+03 0. -1.
       11    1    1    2    0    0 -0.15448653388E-02  0.11661249782E-02 -0.23015172227E-03  0.20151052808E-02  0.51109989000E-03 0. -1.
     -623    1    1    2    0    0 -0.11506096726E-02 -0.93370597136E-03  0.24462695118E-02  0.17130000002E+03  0.17130000000E+03 0. -1.
      622    1    1    2    0    0  0.26954750114E-02 -0.23241900682E-03  0.39977838495E+01  0.39979848707E+01  0.40000000000E-01 0. -1.
</event>
<event>
 5   0  0.7212170E+07  0.9118800E+02  0.7818608E-02  0.1180000E+00
       11   -1    0    0    0    0  0.00000000000E+00  0.00000000000E+00  0.39999999673E+01  0.40000000000E+01  0.51109989000E-03 0. -1.
     -623   -1    0    0    0    0  0.00000000000E+00  0.00000000000E+00  0.12525980253E-10  0.17130000000E+03  0.17130000000E+03 0.  1.
       11    1    1    2    0    0  0.45907412574E-02 -0.76474004638E-03  0.48183672474E+00  0.48185947149E+00  0.51109989000E-03 0. -1.
     -623    1    1    2    0    0 -0.69173113091E-03  0.97015172738E-02  0.26390269964E-03  0.17130000028E+03  0.17130000000E+03 0.  1.
      622    1    1    2    0    0 -0.38990101263E-02 -0.89367772293E-02  0.35178993407E+01  0.35181402530E+01  0.40000000000E-01 0. -1.
</event>
<event>
 5   0  0.7212170E+07  0.9118800E+02  0.7818608E-02  0.1180000E+00
       11   -1    0    0    0    0  0.00000000000E+00  0.00000000000E+00  0.39999999673E+01  0.40000000000E+01  0.51109989000E-03 0.  1.
     -623   -1    0    0    0    0  0.00000000000E+00  0.00000000000E+00  0.12525980253E-10  0.17130000000E+03  0.17130000000E+03 0. -1.
       11    1    1    2    0    0 -0.13993730166E-03 -0.39530342462E-02  0.15481365542E+00  0.15486502249E+00  0.51109989000E-03 0.  1.
     -623    1    1    2    0    0  0.35366795102E-02  0.12469204903E-02  0.26188912215E-03  0.17130000004E+03  0.17130000000E+03 0. -1.
      622    1    1    2    0    0 -0.33967422085E-02  0.27061137560E-02  0.38449244228E+01  0.38451349362E+01  0.40000000000E-01 0.  1.
</event>
<event>
 5   0  0.7212170E+07  0.9118800E+02  0.7818608E-02  0.1180000E+00
       11   -1    0    0    0    0  0.00000000000E+00  0.00000000000E+00  0.39999999673E+01  0.40000000000E+01  0.51109989000E-03 0.  1.
     -623   -1    0    0    0    0  0.00000000000E+00  0.00000000000E+00  0.12525980253E-10  0.17130000000E+03  0.17130000000E+03 0. -1.
       11    1    1    2    0    0  0.22972572490E-01  0.25654680237E-02  0.73440103223E+00  0.73476489986E+00  0.51109989000E-03 0.  1.
     -623    1    1    2    0    0  0.71772374143E-02 -0.50594675004E-02  0.74923759122E-03  0.17130000023E+03  0.17130000000E+03 0. -1.
      622    1    1    2    0    0 -0.30149809903E-01  0.24939994761E-02  0.32648496970E+01  0.32652348729E+01  0.40000000000E-01 0.  1.
</event>
<event>
 5   0  0.7212170E+07  0.9118800E+02  0.7818608E-02  0.1180000E+00
       11   -1    0    0    0    0  0.00000000000E+00  0.00000000000E+00  0.39999999673E+01  0.40000000000E+01  0.51109989000E-03 0. -1.
     -623   -1    0    0    0    0  0.00000000000E+00  0.00000000000E+00  0.12525980253E-10  0.17130000000E+03  0.17130000000E+03 0. -1.
       11    1    1    2    0    0  0.17060758609E-01 -0.53858411705E-02  0.18066032699E+00  0.18154473757E+00  0.51109989000E-03 0. -1.
     -623    1    1    2    0    0 -0.12315077772E-02  0.15436892984E-01  0.11406372249E-02  0.17130000070E+03  0.17130000000E+03 0. -1.
      622    1    1    2    0    0 -0.15829250831E-01 -0.10051051814E-01  0.38181990033E+01  0.38184545588E+01  0.40000000000E-01 0. -1.
</event>
<event>
 5   0  0.7212170E+07  0.9118800E+02  0.7818608E-02  0.1180000E+00
       11   -1    0    0    0    0  0.00000000000E+00  0.00000000000E+00  0.39999999673E+01  0.40000000000E+01  0.51109989000E-03 0.  1.
     -623   -1    0    0    0    0  0.00000000000E+00  0.00000000000E+00  0.12525980253E-10  0.17130000000E+03  0.17130000000E+03 0.  1.
       11    1    1    2    0    0  0.84580449727E-02 -0.57754496743E-02  0.10697407482E+01  0.10697898971E+01  0.51109989000E-03 0.  1.
     -623    1    1    2    0    0 -0.16572452416E-02  0.90598980724E-03  0.33409695606E-03  0.17130000001E+03  0.17130000000E+03 0.  1.
      622    1    1    2    0    0 -0.68007997309E-02  0.48694598669E-02  0.29299251228E+01  0.29302100927E+01  0.40000000000E-01 0.  1.
</event>
<event>
 5   0  0.7212170E+07  0.9118800E+02  0.7818608E-02  0.1180000E+00
       11   -1    0    0    0    0  0.00000000000E+00  0.00000000000E+00  0.39999999673E+01  0.40000000000E+01  0.51109989000E-03 0.  1.
     -623   -1    0    0    0    0  0.00000000000E+00  0.00000000000E+00  0.12525980253E-10  0.17130000000E+03  0.17130000000E+03 0. -1.
       11    1    1    2    0    0  0.23394933518E-02 -0.53569479899E-02  0.62650982370E+00  0.62653730179E+00  0.51109989000E-03 0.  1.
     -623    1    1    2    0    0  0.14431280127E-03  0.15910557199E-03  0.26951835186E-03  0.17130000000E+03  0.17130000000E+03 0. -1.
      622    1    1    2    0    0 -0.24838061531E-02  0.51978424179E-02  0.33732206249E+01  0.33734626974E+01  0.40000000000E-01 0.  1.
</event>
<event>
 5   0  0.7212170E+07  0.9118800E+02  0.7818608E-02  0.1180000E+00
       11   -1    0    0    0    0  0.00000000000E+00  0.00000000000E+00  0.39999999673E+01  0.40000000000E+01  0.51109989000E-03 0. -1.
     -623   -1    0    0    0    0  0.00000000000E+00  0.00000000000E+00  0.12525980253E-10  0.17130000000E+03  0.17130000000E+03 0.  1.
       11    1    1    2    0    0  0.27734733892E-02  0.46487545739E-02  0.47376269330E-01  0.47687264468E-01  0.51109989000E-03 0. -1.
     -623    1    1    2    0    0  0.91630549198E-03 -0.54812377544E-03  0.51723472075E-03  0.17130000000E+03  0.17130000000E+03 0.  1.
      622    1    1    2    0    0 -0.36897788813E-02 -0.41006307984E-02  0.39521064635E+01  0.39523127316E+01  0.40000000000E-01 0. -1.
</event>
<event>
 5   0  0.7212170E+07  0.9118800E+02  0.7818608E-02  0.1180000E+00
       11   -1    0    0    0    0  0.00000000000E+00  0.00000000000E+00  0.39999999673E+01  0.40000000000E+01  0.51109989000E-03 0.  1.
     -623   -1    0    0    0    0  0.00000000000E+00  0.00000000000E+00  0.12525980253E-10  0.17130000000E+03  0.17130000000E+03 0. -1.
       11    1    1    2    0    0  0.73281136649E-02  0.12037304764E-01  0.74943117331E+00  0.74956383498E+00  0.51109989000E-03 0.  1.
     -623    1    1    2    0    0 -0.56888919448E-02 -0.27025351921E-03  0.40056858736E-03  0.17130000010E+03  0.17130000000E+03 0. -1.
      622    1    1    2    0    0 -0.16392217188E-02 -0.11767051244E-01  0.32501682264E+01  0.32504360708E+01  0.40000000000E-01 0.  1.
</event>
<event>
 5   0  0.7212170E+07  0.9118800E+02  0.7818608E-02  0.1180000E+00
       11   -1    0    0    0    0  0.00000000000E+00  0.00000000000E+00  0.39999999673E+01  0.40000000000E+01  0.51109989000E-03 0. -1.
     -623   -1    0    0    0    0  0.00000000000E+00  0.00000000000E+00  0.12525980253E-10  0.17130000000E+03  0.17130000000E+03 0. -1.
       11    1    1    2    0    0 -0.43375998472E-01  0.85125063932E-01  0.66723114194E+00  0.67403665460E+00  0.51109989000E-03 0. -1.
     -623    1    1    2    0    0  0.52171772286E-02  0.18635699549E-02  0.84031581215E-02  0.17130000030E+03  0.17130000000E+03 0. -1.
      622    1    1    2    0    0  0.38158821243E-01 -0.86988633887E-01  0.33243656673E+01  0.33259630497E+01  0.40000000000E-01 0. -1.
</event>
<event>
 5   0  0.7212170E+07  0.9118800E+02  0.7818608E-02  0.1180000E+00
       11   -1    0    0    0    0  0.00000000000E+00  0.00000000000E+00  0.39999999673E+01  0.40000000000E+01  0.51109989000E-03 0.  1.
     -623   -1    0    0    0    0  0.00000000000E+00  0.00000000000E+00  0.12525980253E-10  0.17130000000E+03  0.17130000000E+03 0.  1.
       11    1    1    2    0    0  0.27105078093E-02 -0.18495688838E-02  0.21868616047E-01  0.22119343312E-01  0.51109989000E-03 0.  1.
     -623    1    1    2    0    0 -0.27879807853E-02 -0.82505567261E-03  0.45273707444E-03  0.17130000003E+03  0.17130000000E+03 0.  1.
      622    1    1    2    0    0  0.77472976456E-04  0.26746245566E-02  0.39776786149E+01  0.39778806321E+01  0.40000000000E-01 0.  1.
</event>
<event>
 5   0  0.7212170E+07  0.9118800E+02  0.7818608E-02  0.1180000E+00
       11   -1    0    0    0    0  0.00000000000E+00  0.00000000000E+00  0.39999999673E+01  0.40000000000E+01  0.51109989000E-03 0. -1.
     -623   -1    0    0    0    0  0.00000000000E+00  0.00000000000E+00  0.12525980253E-10  0.17130000000E+03  0.17130000000E+03 0. -1.
       11    1    1    2    0    0  0.41893691626E-01 -0.42374710561E-01  0.10415064984E+01  0.10432098278E+01  0.51109989000E-03 0. -1.
     -623    1    1    2    0    0 -0.45260907861E-01  0.56464814435E-01  0.20246647662E-02  0.17130001530E+03  0.17130000000E+03 0. -1.
      622    1    1    2    0    0  0.33672162335E-02 -0.14090103873E-01  0.29564688041E+01  0.29567748746E+01  0.40000000000E-01 0. -1.
</event>
<event>
 5   0  0.7212170E+07  0.9118800E+02  0.7818608E-02  0.1180000E+00
       11   -1    0    0    0    0  0.00000000000E+00  0.00000000000E+00  0.39999999673E+01  0.40000000000E+01  0.51109989000E-03 0. -1.
     -623   -1    0    0    0    0  0.00000000000E+00  0.00000000000E+00  0.12525980253E-10  0.17130000000E+03  0.17130000000E+03 0.  1.
       11    1    1    2    0    0  0.99077949880E-03 -0.89385405144E-03  0.86745104377E-01  0.86756872786E-01  0.51109989000E-03 0. -1.
     -623    1    1    2    0    0 -0.96440000268E-04  0.33849442136E-03  0.21631723316E-03  0.17130000000E+03  0.17130000000E+03 0.  1.
      622    1    1    2    0    0 -0.89433949854E-03  0.55535963013E-03  0.39130385452E+01  0.39132431261E+01  0.40000000000E-01 0. -1.
</event>
<event>
 5   0  0.7212170E+07  0.9118800E+02  0.7818608E-02  0.1180000E+00
       11   -1    0    0    0    0  0.00000000000E+00  0.00000000000E+00  0.39999999673E+01  0.40000000000E+01  0.51109989000E-03 0.  1.
     -623   -1    0    0    0    0  0.00000000000E+00  0.00000000000E+00  0.12525980253E-10  0.17130000000E+03  0.17130000000E+03 0.  1.
       11    1    1    2    0    0 -0.91179519863E-04  0.92103237003E-03  0.21619564683E-01  0.21645401694E-01  0.51109989000E-03 0.  1.
     -623    1    1    2    0    0  0.31616311079E-03 -0.31342300982E-03  0.22695110488E-03  0.17130000000E+03  0.17130000000E+03 0.  1.
      622    1    1    2    0    0 -0.22498359100E-03 -0.60760936013E-03  0.39781534524E+01  0.39783545984E+01  0.40000000000E-01 0.  1.
</event>
<event>
 5   0  0.7212170E+07  0.9118800E+02  0.7818608E-02  0.1180000E+00
       11   -1    0    0    0    0  0.00000000000E+00  0.00000000000E+00  0.39999999673E+01  0.40000000000E+01  0.51109989000E-03 0. -1.
     -623   -1    0    0    0    0  0.00000000000E+00  0.00000000000E+00  0.12525980253E-10  0.17130000000E+03  0.17130000000E+03 0.  1.
       11    1    1    2    0    0 -0.88111199723E-02  0.29470457373E-02  0.42955235824E+00  0.42965312824E+00  0.51109989000E-03 0. -1.
     -623    1    1    2    0    0  0.46690357655E-03  0.16238914572E-03  0.33591861082E-03  0.17130000000E+03  0.17130000000E+03 0.  1.
      622    1    1    2    0    0  0.83442163957E-02 -0.31094348830E-02  0.35701116911E+01  0.35703468713E+01  0.40000000000E-01 0. -1.
</event>
<event>
 5   0  0.7212170E+07  0.9118800E+02  0.7818608E-02  0.1180000E+00
       11   -1    0    0    0    0  0.00000000000E+00  0.00000000000E+00  0.39999999673E+01  0.40000000000E+01  0.51109989000E-03 0.  1.
     -623   -1    0    0    0    0  0.00000000000E+00  0.00000000000E+00  0.12525980253E-10  0.17130000000E+03  0.17130000000E+03 0.  1.
       11    1    1    2    0    0 -0.89576390682E-04  0.32461512613E-03 -0.10636332245E-03  0.62123680171E-03  0.51109989000E-03 0. -1.
     -623    1    1    2    0    0  0.21398031908E-02  0.13279031489E-02  0.92849154122E-03  0.17130000002E+03  0.17130000000E+03 0.  1.
      622    1    1    2    0    0 -0.20502268001E-02 -0.16525182751E-02  0.39991778392E+01  0.39993787422E+01  0.40000000000E-01 0.  1.
</event>
<event>
 5   0  0.7212170E+07  0.9118800E+02  0.7818608E-02  0.1180000E+00
       11   -1    0    0    0    0  0.00000000000E+00  0.00000000000E+00  0.39999999673E+01  0.40000000000E+01  0.51109989000E-03 0.  1.
     -623   -1    0    0    0    0  0.00000000000E+00  0.00000000000E+00  0.12525980253E-10  0.17130000000E+03  0.17130000000E+03 0.  1.
       11    1    1    2    0    0  0.13433858616E-03  0.35923067097E-02  0.10952813503E-02  0.37925688769E-02  0.51109989000E-03 0.  1.
     -623    1    1    2    0    0  0.15072350367E-01 -0.99460626745E-02  0.29324124736E-02  0.17130000098E+03  0.17130000000E+03 0.  1.
      622    1    1    2    0    0 -0.15206688954E-01  0.63537559652E-02  0.39959722737E+01  0.39962064543E+01  0.40000000000E-01 0.  1.
</event>
<event>
 5   0  0.7212170E+07  0.9118800E+02  0.7818608E-02  0.1180000E+00
       11   -1    0    0    0    0  0.00000000000E+00  0.00000000000E+00  0.39999999673E+01  0.40000000000E+01  0.51109989000E-03 0. -1.
     -623   -1    0    0    0    0  0.00000000000E+00  0.00000000000E+00  0.12525980253E-10  0.17130000000E+03  0.17130000000E+03 0. -1.
       11    1    1    2    0    0  0.40524180407E-02 -0.50059264974E-03  0.23389363842E+00  0.23392983564E+00  0.51109989000E-03 0. -1.
     -623    1    1    2    0    0 -0.64256198379E-03  0.14553900064E-02  0.25026595485E-03  0.17130000001E+03  0.17130000000E+03 0. -1.
      622    1    1    2    0    0 -0.34098560570E-02 -0.95479735634E-03  0.37658560621E+01  0.37660701560E+01  0.40000000000E-01 0. -1.
</event>
<event>
 5   0  0.7212170E+07  0.9118800E+02  0.7818608E-02  0.1180000E+00
       11   -1    0    0    0    0  0.00000000000E+00  0.00000000000E+00  0.39999999673E+01  0.40000000000E+01  0.51109989000E-03 0.  1.
     -623   -1    0    0    0    0  0.00000000000E+00  0.00000000000E+00  0.12525980253E-10  0.17130000000E+03  0.17130000000E+03 0. -1.
       11    1    1    2    0    0 -0.40034459228E-03 -0.23849793907E-02  0.16923411184E-01  0.17102966751E-01  0.51109989000E-03 0.  1.
     -623    1    1    2    0    0  0.48586066151E-03  0.14133223189E-02  0.38051320008E-03  0.17130000001E+03  0.17130000000E+03 0. -1.
      622    1    1    2    0    0 -0.85516069320E-04  0.97165707150E-03  0.39826960437E+01  0.39828970270E+01  0.40000000000E-01 0.  1.
</event>
<event>
 5   0  0.7212170E+07  0.9118800E+02  0.7818608E-02  0.1180000E+00
       11   -1    0    0    0    0  0.00000000000E+00  0.00000000000E+00  0.39999999673E+01  0.40000000000E+01  0.51109989000E-03 0. -1.
     -623   -1    0    0    0    0  0.00000000000E+00  0.00000000000E+00  0.12525980253E-10  0.17130000000E+03  0.17130000000E+03 0.  1.
       11    1    1    2    0    0 -0.46903909111E-02  0.41754248248E-03  0.10855787068E+00  0.10866115506E+00  0.51109989000E-03 0. -1.
     -623    1    1    2    0    0 -0.12306494838E-02 -0.19956047113E-02  0.31368321713E-03  0.17130000002E+03  0.17130000000E+03 0.  1.
      622    1    1    2    0    0  0.59210403949E-02  0.15780622289E-02  0.38911284136E+01  0.38913388288E+01  0.40000000000E-01 0. -1.
</event>
<event>
 5   0  0.7212170E+07  0.9118800E+02  0.7818608E-02  0.1180000E+00
       11   -1    0    0    0    0  0.00000000000E+00  0.00000000000E+00  0.39999999673E+01  0.40000000000E+01  0.51109989000E-03 0.  1.
     -623   -1    0    0    0    0  0.00000000000E+00  0.00000000000E+00  0.12525980253E-10  0.17130000000E+03  0.17130000000E+03 0. -1.
       11    1    1    2    0    0  0.28952836274E-03  0.84080731048E-03  0.21986172230E-01  0.22010083508E-01  0.51109989000E-03 0.  1.
     -623    1    1    2    0    0 -0.19256217905E-04  0.12189955784E-03  0.22511618658E-03  0.17130000000E+03  0.17130000000E+03 0. -1.
      622    1    1    2    0    0 -0.27027214483E-03 -0.96270686831E-03  0.39777886788E+01  0.39779899161E+01  0.40000000000E-01 0.  1.
</event>
<event>
 5   0  0.7212170E+07  0.9118800E+02  0.7818608E-02  0.1180000E+00
       11   -1    0    0    0    0  0.00000000000E+00  0.00000000000E+00  0.39999999673E+01  0.40000000000E+01  0.51109989000E-03 0.  1.
     -623   -1    0    0    0    0  0.00000000000E+00  0.00000000000E+00  0.12525980253E-10  0.17130000000E+03  0.17130000000E+03 0. -1.
       11    1    1    2    0    0 -0.21560863405E-02  0.41733841573E-02  0.78876659913E-01  0.79018064680E-01  0.51109989000E-03 0.  1.
     -623    1    1    2    0    0  0.35860436818E-02 -0.99404736198E-02  0.35023647481E-03  0.17130000033E+03  0.17130000000E+03 0. -1.
      622    1    1    2    0    0 -0.14299573410E-02  0.57670894618E-02  0.39207730707E+01  0.39209816087E+01  0.40000000000E-01 0.  1.
</event>
<event>
 5   0  0.7212170E+07  0.9118800E+02  0.7818608E-02  0.1180000E+00
       11   -1    0    0    0    0  0.00000000000E+00  0.00000000000E+00  0.39999999673E+01  0.40000000000E+01  0.51109989000E-03 0.  1.
     -623   -1    0    0    0    0  0.00000000000E+00  0.00000000000E+00  0.12525980253E-10  0.17130000000E+03  0.17130000000E+03 0.  1.
       11    1    1    2    0    0 -0.14855105199E-01 -0.97230117286E-03  0.39621168422E+00  0.39649158813E+00  0.51109989000E-03 0.  1.
     -623    1    1    2    0    0  0.72623090009E-03  0.24408743213E-02  0.52990351871E-03  0.17130000002E+03  0.17130000000E+03 0.  1.
      622    1    1    2    0    0  0.14128874299E-01 -0.14685731488E-02  0.36032583801E+01  0.36035083926E+01  0.40000000000E-01 0.  1.
</event>
<event>
 5   0  0.7212170E+07  0.9118800E+02  0.7818608E-02  0.1180000E+00
       11   -1    0    0    0    0  0.00000000000E+00  0.00000000000E+00  0.39999999673E+01  0.40000000000E+01  0.51109989000E-03 0. -1.
     -623   -1    0    0    0    0  0.00000000000E+00  0.00000000000E+00  0.12525980253E-10  0.17130000000E+03  0.17130000000E+03 0. -1.
       11    1    1    2    0    0 -0.21543658659E-01 -0.33245361942E-02  0.17154229666E+01  0.17155615399E+01  0.51109989000E-03 0. -1.
     -623    1    1    2    0    0  0.28955796213E-02 -0.21883547285E-02  0.57158155949E-03  0.17130000004E+03  0.17130000000E+03 0. -1.
      622    1    1    2    0    0  0.18648079037E-01  0.55128909231E-02  0.22840054199E+01  0.22844384213E+01  0.40000000000E-01 0.  0.
</event>
<event>
 5   0  0.7212170E+07  0.9118800E+02  0.7818608E-02  0.1180000E+00
       11   -1    0    0    0    0  0.00000000000E+00  0.00000000000E+00  0.39999999673E+01  0.40000000000E+01  0.51109989000E-03 0.  1.
     -623   -1    0    0    0    0  0.00000000000E+00  0.00000000000E+00  0.12525980253E-10  0.17130000000E+03  0.17130000000E+03 0.  1.
       11    1    1    2    0    0 -0.10671598784E-01 -0.40386456608E-02  0.77914340836E+00  0.77922712073E+00  0.51109989000E-03 0.  1.
     -623    1    1    2    0    0 -0.50940267627E-02  0.19486854541E-02  0.37143172117E-03  0.17130000009E+03  0.17130000000E+03 0.  1.
      622    1    1    2    0    0  0.15765625547E-01  0.20899602064E-02  0.32204851278E+01  0.32207727926E+01  0.40000000000E-01 0.  0.
</event>
<event>
 5   0  0.7212170E+07  0.9118800E+02  0.7818608E-02  0.1180000E+00
       11   -1    0    0    0    0  0.00000000000E+00  0.00000000000E+00  0.39999999673E+01  0.40000000000E+01  0.51109989000E-03 0.  1.
     -623   -1    0    0    0    0  0.00000000000E+00  0.00000000000E+00  0.12525980253E-10  0.17130000000E+03  0.17130000000E+03 0.  1.
       11    1    1    2    0    0  0.42689361692E-04  0.14282526914E-02  0.98645288375E-01  0.98656960575E-01  0.51109989000E-03 0.  1.
     -623    1    1    2    0    0  0.32745766692E-03 -0.28205138032E-02  0.21699220986E-03  0.17130000002E+03  0.17130000000E+03 0.  1.
      622    1    1    2    0    0 -0.37014702849E-03  0.13922611107E-02  0.39011376853E+01  0.39013430143E+01  0.40000000000E-01 0.  1.
</event>
<event>
 5   0  0.7212170E+07  0.9118800E+02  0.7818608E-02  0.1180000E+00
       11   -1    0    0    0    0  0.00000000000E+00  0.00000000000E+00  0.39999999673E+01  0.40000000000E+01  0.51109989000E-03 0.  1.
     -623   -1    0    0    0    0  0.00000000000E+00  0.00000000000E+00  0.12525980253E-10  0.17130000000E+03  0.17130000000E+03 0.  1.
       11    1    1    2    0    0  0.44418564003E-02  0.58529882539E-02  0.15906042051E+01  0.15906212579E+01  0.51109989000E-03 0.  1.
     -623    1    1    2    0    0 -0.20047671701E-01  0.14002947757E-01  0.48320488968E-03  0.17130000175E+03  0.17130000000E+03 0.  1.
      622    1    1    2    0    0  0.15605815295E-01 -0.19855936007E-01  0.24089125563E+01  0.24093769949E+01  0.40000000000E-01 0.  0.
</event>
<event>
 5   0  0.7212170E+07  0.9118800E+02  0.7818608E-02  0.1180000E+00
       11   -1    0    0    0    0  0.00000000000E+00  0.00000000000E+00  0.39999999673E+01  0.40000000000E+01  0.51109989000E-03 0. -1.
     -623   -1    0    0    0    0  0.00000000000E+00  0.00000000000E+00  0.12525980253E-10  0.17130000000E+03  0.17130000000E+03 0. -1.
       11    1    1    2    0    0 -0.13595870115E-02 -0.39234874481E-02  0.16112991764E+00  0.16118422321E+00  0.51109989000E-03 0. -1.
     -623    1    1    2    0    0  0.33898877429E-03  0.62037073733E-02  0.26360199764E-03  0.17130000011E+03  0.17130000000E+03 0. -1.
      622    1    1    2    0    0  0.10205982373E-02 -0.22802199240E-02  0.38386064470E+01  0.38388156632E+01  0.40000000000E-01 0. -1.
</event>
<event>
 5   0  0.7212170E+07  0.9118800E+02  0.7818608E-02  0.1180000E+00
       11   -1    0    0    0    0  0.00000000000E+00  0.00000000000E+00  0.39999999673E+01  0.40000000000E+01  0.51109989000E-03 0. -1.
     -623   -1    0    0    0    0  0.00000000000E+00  0.00000000000E+00  0.12525980253E-10  0.17130000000E+03  0.17130000000E+03 0.  1.
       11    1    1    2    0    0  0.28639125859E-01 -0.12731161376E-02  0.64006394401E-01  0.70134870799E-01  0.51109989000E-03 0. -1.
     -623    1    1    2    0    0 -0.14643736774E-01  0.12461950723E-01  0.63740674144E-02  0.17130000120E+03  0.17130000000E+03 0.  1.
      622    1    1    2    0    0 -0.13995389085E-01 -0.11188834586E-01  0.39296195056E+01  0.39298639315E+01  0.40000000000E-01 0. -1.
</event>
<event>
 5   0  0.7212170E+07  0.9118800E+02  0.7818608E-02  0.1180000E+00
       11   -1    0    0    0    0  0.00000000000E+00  0.00000000000E+00  0.39999999673E+01  0.40000000000E+01  0.51109989000E-03 0.  1.
     -623   -1    0    0    0    0  0.00000000000E+00  0.00000000000E+00  0.12525980253E-10  0.17130000000E+03  0.17130000000E+03 0.  1.
       11    1    1    2    0    0  0.34217140504E-02  0.13069213838E-02  0.74756508697E+00  0.74757423488E+00  0.51109989000E-03 0.  1.
     -623    1    1    2    0    0  0.32376528654E-03  0.95854590927E-03  0.25804387146E-03  0.17130000000E+03  0.17130000000E+03 0.  1.
      622    1    1    2    0    0 -0.37454793370E-02 -0.22654672932E-02  0.32521768369E+01  0.32524257624E+01  0.40000000000E-01 0.  1.
</event>
<event>
 5   0  0.7212170E+07  0.9118800E+02  0.7818608E-02  0.1180000E+00
       11   -1    0    0    0    0  0.00000000000E+00  0.00000000000E+00  0.39999999673E+01  0.40000000000E+01  0.51109989000E-03 0.  1.
     -623   -1    0    0    0    0  0.00000000000E+00  0.00000000000E+00  0.12525980253E-10  0.17130000000E+03  0.17130000000E+03 0. -1.
       11    1    1    2    0    0  0.14816572793E-01  0.81744404873E-02  0.18624109090E+00  0.18700897697E+00  0.51109989000E-03 0.  1.
     -623    1    1    2    0    0 -0.83650059940E-02  0.85771476532E-02  0.10203481867E-02  0.17130000042E+03  0.17130000000E+03 0. -1.
      622    1    1    2    0    0 -0.64515667993E-02 -0.16751588140E-01  0.38127385281E+01  0.38129906009E+01  0.40000000000E-01 0.  1.
</event>
<event>
 5   0  0.7212170E+07  0.9118800E+02  0.7818608E-02  0.1180000E+00
       11   -1    0    0    0    0  0.00000000000E+00  0.00000000000E+00  0.39999999673E+01  0.40000000000E+01  0.51109989000E-03 0. -1.
     -623   -1    0    0    0    0  0.00000000000E+00  0.00000000000E+00  0.12525980253E-10  0.17130000000E+03  0.17130000000E+03 0.  1.
       11    1    1    2    0    0 -0.40907425918E-02  0.18290588019E-02  0.11010190548E+00  0.11019423961E+00  0.51109989000E-03 0. -1.
     -623    1    1    2    0    0  0.70169269262E-04 -0.39433230350E-03  0.30031604834E-03  0.17130000000E+03  0.17130000000E+03 0.  1.
      622    1    1    2    0    0  0.40205733226E-02 -0.14347264984E-02  0.38895977454E+01  0.38898057592E+01  0.40000000000E-01 0. -1.
</event>
<event>
 5   0  0.7212170E+07  0.9118800E+02  0.7818608E-02  0.1180000E+00
       11   -1    0    0    0    0  0.00000000000E+00  0.00000000000E+00  0.39999999673E+01  0.40000000000E+01  0.51109989000E-03 0. -1.
     -623   -1    0    0    0    0  0.00000000000E+00  0.00000000000E+00  0.12525980253E-10  0.17130000000E+03  0.17130000000E+03 0.  1.
       11    1    1    2    0    0 -0.30389902191E-02  0.97438154345E-03  0.11502302413E+00  0.11506842392E+00  0.51109989000E-03 0. -1.
     -623    1    1    2    0    0  0.89182176024E-03  0.91755462674E-03  0.25235550509E-03  0.17130000000E+03  0.17130000000E+03 0.  1.
      622    1    1    2    0    0  0.21471684584E-02 -0.18919361706E-02  0.38847245895E+01  0.38849315729E+01  0.40000000000E-01 0. -1.
</event>
<event>
 5   0  0.7212170E+07  0.9118800E+02  0.7818608E-02  0.1180000E+00
       11   -1    0    0    0    0  0.00000000000E+00  0.00000000000E+00  0.39999999673E+01  0.40000000000E+01  0.51109989000E-03 0. -1.
     -623   -1    0    0    0    0  0.00000000000E+00  0.00000000000E+00  0.12525980253E-10  0.17130000000E+03  0.17130000000E+03 0. -1.
       11    1    1    2    0    0 -0.42013844983E-01 -0.30779254109E-01  0.22018110394E+00  0.22625760851E+00  0.51109989000E-03 0. -1.
     -623    1    1    2    0    0  0.13507448979E-01  0.38112047706E-02  0.64932110540E-02  0.17130000070E+03  0.17130000000E+03 0. -1.
      622    1    1    2    0    0  0.28506396004E-01  0.26968049339E-01  0.37733256524E+01  0.37737416935E+01  0.40000000000E-01 0. -1.
</event>
<event>
 5   0  0.7212170E+07  0.9118800E+02  0.7818608E-02  0.1180000E+00
       11   -1    0    0    0    0  0.00000000000E+00  0.00000000000E+00  0.39999999673E+01  0.40000000000E+01  0.51109989000E-03 0.  1.
     -623   -1    0    0    0    0  0.00000000000E+00  0.00000000000E+00  0.12525980253E-10  0.17130000000E+03  0.17130000000E+03 0. -1.
       11    1    1    2    0    0  0.10369750378E-02  0.55221641842E-03  0.29974083660E-02  0.32597454213E-02  0.51109989000E-03 0.  1.
     -623    1    1    2    0    0  0.11789523690E-02  0.24022756972E-02  0.46420047553E-03  0.17130000002E+03  0.17130000000E+03 0. -1.
      622    1    1    2    0    0 -0.22159274069E-02 -0.29544921158E-02  0.39965383588E+01  0.39967402334E+01  0.40000000000E-01 0.  1.
</event>
<event>
 5   0  0.7212170E+07  0.9118800E+02  0.7818608E-02  0.1180000E+00
       11   -1    0    0    0    0  0.00000000000E+00  0.00000000000E+00  0.39999999673E+01  0.40000000000E+01  0.51109989000E-03 0. -1.
     -623   -1    0    0    0    0  0.00000000000E+00  0.00000000000E+00  0.12525980253E-10  0.17130000000E+03  0.17130000000E+03 0. -1.
       11    1    1    2    0    0  0.34673319157E-02 -0.92984625315E-02  0.71303763624E-01  0.71992858855E-01  0.51109989000E-03 0. -1.
     -623    1    1    2    0    0 -0.17530798547E-01 -0.13733744518E-02  0.93331358622E-03  0.17130000091E+03  0.17130000000E+03 0. -1.
      622    1    1    2    0    0  0.14063466632E-01  0.10671836983E-01  0.39277628903E+01  0.39280062362E+01  0.40000000000E-01 0. -1.
</event>
<event>
 5   0  0.7212170E+07  0.9118800E+02  0.7818608E-02  0.1180000E+00
       11   -1    0    0    0    0  0.00000000000E+00  0.00000000000E+00  0.39999999673E+01  0.40000000000E+01  0.51109989000E-03 0.  1.
     -623   -1    0    0    0    0  0.00000000000E+00  0.00000000000E+00  0.12525980253E-10  0.17130000000E+03  0.17130000000E+03 0. -1.
       11    1    1    2    0    0  0.21142586274E-03  0.34377609133E-04  0.92897342522E-01  0.92898995438E-01  0.51109989000E-03 0.  1.
     -623    1    1    2    0    0 -0.43033697130E-03  0.19505601756E-03  0.20639467989E-03  0.17130000000E+03  0.17130000000E+03 0. -1.
      622    1    1    2    0    0  0.21891110878E-03 -0.22943362679E-03  0.39068962322E+01  0.39071010058E+01  0.40000000000E-01 0.  1.
</event>
<event>
 5   0  0.7212170E+07  0.9118800E+02  0.7818608E-02  0.1180000E+00
       11   -1    0    0    0    0  0.00000000000E+00  0.00000000000E+00  0.39999999673E+01  0.40000000000E+01  0.51109989000E-03 0.  1.
     -623   -1    0    0    0    0  0.00000000000E+00  0.00000000000E+00  0.12525980253E-10  0.17130000000E+03  0.17130000000E+03 0. -1.
       11    1    1    2    0    0 -0.19451387235E-02 -0.14786474370E-02  0.41165243282E-01  0.41240858871E-01  0.51109989000E-03 0.  1.
     -623    1    1    2    0    0  0.31675779114E-02 -0.29098575408E-03  0.27828569182E-03  0.17130000003E+03  0.17130000000E+03 0. -1.
      622    1    1    2    0    0 -0.12224391890E-02  0.17696331912E-02  0.39585564398E+01  0.39587591128E+01  0.40000000000E-01 0.  1.
</event>
<event>
 5   0  0.7212170E+07  0.9118800E+02  0.7818608E-02  0.1180000E+00
       11   -1    0    0    0    0  0.00000000000E+00  0.00000000000E+00  0.39999999673E+01  0.40000000000E+01  0.51109989000E-03 0. -1.
     -623   -1    0    0    0    0  0.00000000000E+00  0.00000000000E+00  0.12525980253E-10  0.17130000000E+03  0.17130000000E+03 0. -1.
       11    1    1    2    0    0  0.11533997913E-02 -0.11158857812E-02  0.54381832045E-02  0.56930301087E-02  0.51109989000E-03 0. -1.
     -623    1    1    2    0    0  0.10294113050E-02  0.13394406477E-02  0.45571599756E-03  0.17130000001E+03  0.17130000000E+03 0. -1.
      622    1    1    2    0    0 -0.21828110963E-02 -0.22355486649E-03  0.39941060681E+01  0.39943069609E+01  0.40000000000E-01 0. -1.
</event>
<event>
 5   0  0.7212170E+07  0.9118800E+02  0.7818608E-02  0.1180000E+00
       11   -1    0    0    0    0  0.00000000000E+00  0.00000000000E+00  0.39999999673E+01  0.40000000000E+01  0.51109989000E-03 0.  1.
     -623   -1    0    0    0    0  0.00000000000E+00  0.00000000000E+00  0.12525980253E-10  0.17130000000E+03  0.17130000000E+03 0. -1.
       11    1    1    2    0    0  0.11230737544E-01  0.26813365471E-02  0.28794158531E+01  0.28794390487E+01  0.51109989000E-03 0.  1.
     -623    1    1    2    0    0 -0.10073723111E-02 -0.96545360714E-03  0.78530764538E-03  0.17130000001E+03  0.17130000000E+03 0. -1.
      622    1    1    2    0    0 -0.10223365233E-01 -0.17158829399E-02  0.11197988066E+01  0.11205609437E+01  0.40000000000E-01 0.  0.
</event>
<event>
 5   0  0.7212170E+07  0.9118800E+02  0.7818608E-02  0.1180000E+00
       11   -1    0    0    0    0  0.00000000000E+00  0.00000000000E+00  0.39999999673E+01  0.40000000000E+01  0.51109989000E-03 0. -1.
     -623   -1    0    0    0    0  0.00000000000E+00  0.00000000000E+00  0.12525980253E-10  0.17130000000E+03  0.17130000000E+03 0.  1.
       11    1    1    2    0    0  0.96931177833E-02  0.32557197010E-01  0.20065688214E+01  0.20068564034E+01  0.51109989000E-03 0. -1.
     -623    1    1    2    0    0  0.39348029011E-03 -0.24234722254E-02  0.94236672275E-03  0.17130000002E+03  0.17130000000E+03 0.  1.
      622    1    1    2    0    0 -0.10086598073E-01 -0.30133724785E-01  0.19924887791E+01  0.19931435763E+01  0.40000000000E-01 0.  0.
</event>
<event>
 5   0  0.7212170E+07  0.9118800E+02  0.7818608E-02  0.1180000E+00
       11   -1    0    0    0    0  0.00000000000E+00  0.00000000000E+00  0.39999999673E+01  0.40000000000E+01  0.51109989000E-03 0.  1.
     -623   -1    0    0    0    0  0.00000000000E+00  0.00000000000E+00  0.12525980253E-10  0.17130000000E+03  0.17130000000E+03 0. -1.
       11    1    1    2    0    0 -0.20704404714E-02  0.17256714045E-02  0.81362525314E-02  0.85862968674E-02  0.51109989000E-03 0.  1.
     -623    1    1    2    0    0  0.29199776800E-03 -0.24957501898E-02  0.65093715283E-03  0.17130000002E+03  0.17130000000E+03 0. -1.
      622    1    1    2    0    0  0.17784427034E-02  0.77007878555E-03  0.39912127780E+01  0.39914136838E+01  0.40000000000E-01 0.  1.
</event>
<event>
 5   0  0.7212170E+07  0.9118800E+02  0.7818608E-02  0.1180000E+00
       11   -1    0    0    0    0  0.00000000000E+00  0.00000000000E+00  0.39999999673E+01  0.40000000000E+01  0.51109989000E-03 0.  1.
     -623   -1    0    0    0    0  0.00000000000E+00  0.00000000000E+00  0.12525980253E-10  0.17130000000E+03  0.17130000000E+03 0.  1.
       11    1    1    2    0    0 -0.11794590272E-02  0.15910977111E-01  0.34794378339E+00  0.34830975860E+00  0.51109989000E-03 0.  1.
     -623    1    1    2    0    0 -0.10213675475E-02 -0.24615377930E-01  0.59783662732E-03  0.17130000177E+03  0.17130000000E+03 0.  1.
      622    1    1    2    0    0  0.22008265748E-02  0.87044008200E-02  0.36514583474E+01  0.36516884688E+01  0.40000000000E-01 0.  1.
</event>
<event>
 5   0  0.7212170E+07  0.9118800E+02  0.7818608E-02  0.1180000E+00
       11   -1    0    0    0    0  0.00000000000E+00  0.00000000000E+00  0.39999999673E+01  0.40000000000E+01  0.51109989000E-03 0.  1.
     -623   -1    0    0    0    0  0.00000000000E+00  0.00000000000E+00  0.12525980253E-10  0.17130000000E+03  0.17130000000E+03 0.  1.
       11    1    1    2    0    0 -0.14633903833E-01 -0.21140698554E-02  0.81160478273E+00  0.81173961650E+00  0.51109989000E-03 0.  1.
     -623    1    1    2    0    0 -0.10745333091E-04 -0.23683413980E-03  0.42023552451E-03  0.17130000000E+03  0.17130000000E+03 0.  1.
      622    1    1    2    0    0  0.14644649166E-01  0.23509039953E-02  0.31879749497E+01  0.31882603834E+01  0.40000000000E-01 0.  1.
</event>
<event>
 5   0  0.7212170E+07  0.9118800E+02  0.7818608E-02  0.1180000E+00
       11   -1    0    0    0    0  0.00000000000E+00  0.00000000000E+00  0.39999999673E+01  0.40000000000E+01  0.51109989000E-03 0.  1.
     -623   -1    0    0    0    0  0.00000000000E+00  0.00000000000E+00  0.12525980253E-10  0.17130000000E+03  0.17130000000E+03 0.  1.
       11    1    1    2    0    0  0.61876033758E-03 -0.51931873192E-02  0.21630441832E-01  0.22259588852E-01  0.51109989000E-03 0.  1.
     -623    1    1    2    0    0 -0.55870883030E-02 -0.16043706938E-02  0.83925079351E-03  0.17130000010E+03  0.17130000000E+03 0.  1.
      622    1    1    2    0    0  0.49683279660E-02  0.67975580131E-02  0.39775302751E+01  0.39777403109E+01  0.40000000000E-01 0.  1.
</event>
<event>
 5   0  0.7212170E+07  0.9118800E+02  0.7818608E-02  0.1180000E+00
       11   -1    0    0    0    0  0.00000000000E+00  0.00000000000E+00  0.39999999673E+01  0.40000000000E+01  0.51109989000E-03 0. -1.
     -623   -1    0    0    0    0  0.00000000000E+00  0.00000000000E+00  0.12525980253E-10  0.17130000000E+03  0.17130000000E+03 0. -1.
       11    1    1    2    0    0  0.61708529943E-01 -0.28028099342E-01  0.20587761853E+01  0.20598915407E+01  0.51109989000E-03 0. -1.
     -623    1    1    2    0    0 -0.64666319926E-03  0.61446327489E-02  0.26127105609E-02  0.17130000013E+03  0.17130000000E+03 0. -1.
      622    1    1    2    0    0 -0.61061866744E-01  0.21883466593E-01  0.19386110715E+01  0.19401083280E+01  0.40000000000E-01 0. -1.
</event>
<event>
 5   0  0.7212170E+07  0.9118800E+02  0.7818608E-02  0.1180000E+00
       11   -1    0    0    0    0  0.00000000000E+00  0.00000000000E+00  0.39999999673E+01  0.40000000000E+01  0.51109989000E-03 0.  1.
     -623   -1    0    0    0    0  0.00000000000E+00  0.00000000000E+00  0.12525980253E-10  0.17130000000E+03  0.17130000000E+03 0.  1.
       11    1    1    2    0    0  0.63919931108E-01  0.84282924230E-02  0.18622260061E+01  0.18633418239E+01  0.51109989000E-03 0.  1.
     -623    1    1    2    0    0 -0.26484454860E-01  0.38561021631E-03  0.18385060878E-02  0.17130000206E+03  0.17130000000E+03 0.  1.
      622    1    1    2    0    0 -0.37435476249E-01 -0.88139026393E-02  0.21359354551E+01  0.21366561183E+01  0.40000000000E-01 0.  0.
</event>
<event>
 5   0  0.7212170E+07  0.9118800E+02  0.7818608E-02  0.1180000E+00
       11   -1    0    0    0    0  0.00000000000E+00  0.00000000000E+00  0.39999999673E+01  0.40000000000E+01  0.51109989000E-03 0.  1.
     -623   -1    0    0    0    0  0.00000000000E+00  0.00000000000E+00  0.12525980253E-10  0.17130000000E+03  0.17130000000E+03 0. -1.
       11    1    1    2    0    0 -0.89398681414E-03  0.88502917690E-04  0.23875113288E-02  0.26016299954E-02  0.51109989000E-03 0.  1.
     -623    1    1    2    0    0  0.17052282772E-02  0.70348126628E-04  0.41431568416E-03  0.17130000001E+03  0.17130000000E+03 0. -1.
      622    1    1    2    0    0 -0.81124146326E-03 -0.15885104433E-03  0.39971981408E+01  0.39973983615E+01  0.40000000000E-01 0.  1.
</event>
<event>
 5   0  0.7212170E+07  0.9118800E+02  0.7818608E-02  0.1180000E+00
       11   -1    0    0    0    0  0.00000000000E+00  0.00000000000E+00  0.39999999673E+01  0.40000000000E+01  0.51109989000E-03 0. -1.
     -623   -1    0    0    0    0  0.00000000000E+00  0.00000000000E+00  0.12525980253E-10  0.17130000000E+03  0.17130000000E+03 0. -1.
       11    1    1    2    0    0  0.10446159146E-02 -0.17752015341E-02  0.69694677569E-03  0.22337235284E-02  0.51109989000E-03 0. -1.
     -623    1    1    2    0    0  0.10955857499E-01  0.15213001354E-01  0.17784941803E-02  0.17130000104E+03  0.17130000000E+03 0. -1.
      622    1    1    2    0    0 -0.12000473415E-01 -0.13437799821E-01  0.39975245267E+01  0.39977652416E+01  0.40000000000E-01 0. -1.
</event>
<event>
 5   0  0.7212170E+07  0.9118800E+02  0.7818608E-02  0.1180000E+00
       11   -1    0    0    0    0  0.00000000000E+00  0.00000000000E+00  0.39999999673E+01  0.40000000000E+01  0.51109989000E-03 0.  1.
     -623   -1    0    0    0    0  0.00000000000E+00  0.00000000000E+00  0.12525980253E-10  0.17130000000E+03  0.17130000000E+03 0.  1.
       11    1    1    2    0    0  0.14377429140E-02  0.93303919742E-02  0.58055579618E+00  0.58063277295E+00  0.51109989000E-03 0.  1.
     -623    1    1    2    0    0 -0.11178855964E-02  0.11117837068E-02  0.32688153481E-03  0.17130000001E+03  0.17130000000E+03 0.  1.
      622    1    1    2    0    0 -0.31985731754E-03 -0.10442175681E-01  0.34191172898E+01  0.34193672196E+01  0.40000000000E-01 0.  1.
</event>
<event>
 5   0  0.7212170E+07  0.9118800E+02  0.7818608E-02  0.1180000E+00
       11   -1    0    0    0    0  0.00000000000E+00  0.00000000000E+00  0.39999999673E+01  0.40000000000E+01  0.51109989000E-03 0. -1.
     -623   -1    0    0    0    0  0.00000000000E+00  0.00000000000E+00  0.12525980253E-10  0.17130000000E+03  0.17130000000E+03 0.  1.
       11    1    1    2    0    0  0.51929151365E-03  0.12279688202E-02  0.87041397578E-02  0.88204786219E-02  0.51109989000E-03 0. -1.
     -623    1    1    2    0    0  0.34350902367E-03 -0.43336233313E-03  0.31692680859E-03  0.17130000000E+03  0.17130000000E+03 0.  1.
      622    1    1    2    0    0 -0.86280053739E-03 -0.79460648694E-03  0.39909789016E+01  0.39911795210E+01  0.40000000000E-01 0. -1.
</event>
<event>
 5   0  0.7212170E+07  0.9118800E+02  0.7818608E-02  0.1180000E+00
       11   -1    0    0    0    0  0.00000000000E+00  0.00000000000E+00  0.39999999673E+01  0.40000000000E+01  0.51109989000E-03 0. -1.
     -623   -1    0    0    0    0  0.00000000000E+00  0.00000000000E+00  0.12525980253E-10  0.17130000000E+03  0.17130000000E+03 0.  1.
       11    1    1    2    0    0 -0.53506437035E-02 -0.10429726393E-01  0.46467668957E+00  0.46482480101E+00  0.51109989000E-03 0. -1.
     -623    1    1    2    0    0 -0.95809941517E-03  0.54529741221E-02  0.38360593909E-03  0.17130000009E+03  0.17130000000E+03 0.  1.
      622    1    1    2    0    0  0.63087431188E-02  0.49767522706E-02  0.35349396723E+01  0.35351751096E+01  0.40000000000E-01 0. -1.
</event>
<event>
 5   0  0.7212170E+07  0.9118800E+02  0.7818608E-02  0.1180000E+00
       11   -1    0    0    0    0  0.00000000000E+00  0.00000000000E+00  0.39999999673E+01  0.40000000000E+01  0.51109989000E-03 0.  1.
     -623   -1    0    0    0    0  0.00000000000E+00  0.00000000000E+00  0.12525980253E-10  0.17130000000E+03  0.17130000000E+03 0.  1.
       11    1    1    2    0    0  0.11209736117E-01 -0.60573680380E-02  0.43194205059E+00  0.43213024215E+00  0.51109989000E-03 0.  1.
     -623    1    1    2    0    0 -0.64330070278E-02 -0.16289734475E-01  0.48647318447E-03  0.17130000090E+03  0.17130000000E+03 0.  1.
      622    1    1    2    0    0 -0.47767290897E-02  0.22347102513E-01  0.35675714435E+01  0.35678688617E+01  0.40000000000E-01 0.  1.
</event>
<event>
 5   0  0.7212170E+07  0.9118800E+02  0.7818608E-02  0.1180000E+00
       11   -1    0    0    0    0  0.00000000000E+00  0.00000000000E+00  0.39999999673E+01  0.40000000000E+01  0.51109989000E-03 0. -1.
     -623   -1    0    0    0    0  0.00000000000E+00  0.00000000000E+00  0.12525980253E-10  0.17130000000E+03  0.17130000000E+03 0. -1.
       11    1    1    2    0    0 -0.26549585499E-03  0.14477063823E-02  0.18951187469E-01  0.19015127436E-01  0.51109989000E-03 0. -1.
     -623    1    1    2    0    0  0.45629667525E-03 -0.90211161102E-03  0.26491284615E-03  0.17130000000E+03  0.17130000000E+03 0. -1.
      622    1    1    2    0    0 -0.19080082023E-03 -0.54559477129E-03  0.39807838668E+01  0.39809848692E+01  0.40000000000E-01 0. -1.
</event>
<event>
 5   0  0.7212170E+07  0.9118800E+02  0.7818608E-02  0.1180000E+00
       11   -1    0    0    0    0  0.00000000000E+00  0.00000000000E+00  0.39999999673E+01  0.40000000000E+01  0.51109989000E-03 0. -1.
     -623   -1    0    0    0    0  0.00000000000E+00  0.00000000000E+00  0.12525980253E-10  0.17130000000E+03  0.17130000000E+03 0.  1.
       11    1    1    2    0    0  0.66037900059E-02  0.28804626818E-02  0.26520440964E+01  0.26520539319E+01  0.51109989000E-03 0. -1.
     -623    1    1    2    0    0  0.16648683230E-03 -0.48824922019E-03  0.62256472417E-03  0.17130000000E+03  0.17130000000E+03 0.  1.
      622    1    1    2    0    0 -0.67702768382E-02 -0.23922134616E-02  0.13473333060E+01  0.13479460660E+01  0.40000000000E-01 0. -1.
</event>
<event>
 5   0  0.7212170E+07  0.9118800E+02  0.7818608E-02  0.1180000E+00
       11   -1    0    0    0    0  0.00000000000E+00  0.00000000000E+00  0.39999999673E+01  0.40000000000E+01  0.51109989000E-03 0.  1.
     -623   -1    0    0    0    0  0.00000000000E+00  0.00000000000E+00  0.12525980253E-10  0.17130000000E+03  0.17130000000E+03 0. -1.
       11    1    1    2    0    0 -0.32552644923E-02 -0.20044586317E-02  0.65652468800E-01  0.65765663411E-01  0.51109989000E-03 0.  1.
     -623    1    1    2    0    0  0.35998608342E-02  0.91308294259E-03  0.31671750783E-03  0.17130000004E+03  0.17130000000E+03 0. -1.
      622    1    1    2    0    0 -0.34459634253E-03  0.10913756889E-02  0.39340307818E+01  0.39342342968E+01  0.40000000000E-01 0.  1.
</event>
<event>
 5   0  0.7212170E+07  0.9118800E+02  0.7818608E-02  0.1180000E+00
       11   -1    0    0    0    0  0.00000000000E+00  0.00000000000E+00  0.39999999673E+01  0.40000000000E+01  0.51109989000E-03 0. -1.
     -623   -1    0    0    0    0  0.00000000000E+00  0.00000000000E+00  0.12525980253E-10  0.17130000000E+03  0.17130000000E+03 0.  1.
       11    1    1    2    0    0  0.28612124594E-01  0.14421363529E-01  0.71531375769E+00  0.71603118826E+00  0.51109989000E-03 0. -1.
     -623    1    1    2    0    0 -0.17858691158E-01 -0.22649353790E-02  0.10020729751E-02  0.17130000095E+03  0.17130000000E+03 0.  1.
      622    1    1    2    0    0 -0.10753433436E-01 -0.12156428150E-01  0.32836841365E+01  0.32839678627E+01  0.40000000000E-01 0. -1.
</event>
<event>
 5   0  0.7212170E+07  0.9118800E+02  0.7818608E-02  0.1180000E+00
       11   -1    0    0    0    0  0.00000000000E+00  0.00000000000E+00  0.39999999673E+01  0.40000000000E+01  0.51109989000E-03 0. -1.
     -623   -1    0    0    0    0  0.00000000000E+00  0.00000000000E+00  0.12525980253E-10  0.17130000000E+03  0.17130000000E+03 0. -1.
       11    1    1    2    0    0  0.10222271711E-02  0.10106082637E-01  0.23539477540E+00  0.23561438700E+00  0.51109989000E-03 0. -1.
     -623    1    1    2    0    0 -0.85186213785E-03 -0.50454741189E-03  0.44435600350E-03  0.17130000000E+03  0.17130000000E+03 0. -1.
      622    1    1    2    0    0 -0.17036503299E-03 -0.96015352253E-02  0.37641608370E+01  0.37643856106E+01  0.40000000000E-01 0. -1.
</event>
<event>
 5   0  0.7212170E+07  0.9118800E+02  0.7818608E-02  0.1180000E+00
       11   -1    0    0    0    0  0.00000000000E+00  0.00000000000E+00  0.39999999673E+01  0.40000000000E+01  0.51109989000E-03 0.  1.
     -623   -1    0    0    0    0  0.00000000000E+00  0.00000000000E+00  0.12525980253E-10  0.17130000000E+03  0.17130000000E+03 0.  1.
       11    1    1    2    0    0 -0.33991419925E-03 -0.93808548017E-03  0.10502941369E+00  0.10503539645E+00  0.51109989000E-03 0.  1.
     -623    1    1    2    0    0  0.51748768794E-03 -0.81114055765E-04  0.21148727231E-03  0.17130000000E+03  0.17130000000E+03 0.  1.
      622    1    1    2    0    0 -0.17757348877E-03  0.10191995359E-02  0.38947590670E+01  0.38949646032E+01  0.40000000000E-01 0.  1.
</event>
<event>
 5   0  0.7212170E+07  0.9118800E+02  0.7818608E-02  0.1180000E+00
       11   -1    0    0    0    0  0.00000000000E+00  0.00000000000E+00  0.39999999673E+01  0.40000000000E+01  0.51109989000E-03 0. -1.
     -623   -1    0    0    0    0  0.00000000000E+00  0.00000000000E+00  0.12525980253E-10  0.17130000000E+03  0.17130000000E+03 0.  1.
       11    1    1    2    0    0 -0.53000076307E-03  0.29416594235E-03  0.27910910801E-02  0.29015249311E-02  0.51109989000E-03 0. -1.
     -623    1    1    2    0    0 -0.69766654037E-04 -0.13299670464E-03  0.31060000033E-03  0.17130000000E+03  0.17130000000E+03 0.  1.
      622    1    1    2    0    0  0.59976741712E-03 -0.16116923768E-03  0.39968982773E+01  0.39970984757E+01  0.40000000000E-01 0. -1.
</event>
<event>
 5   0  0.7212170E+07  0.9118800E+02  0.7818608E-02  0.1180000E+00
       11   -1    0    0    0    0  0.00000000000E+00  0.00000000000E+00  0.39999999673E+01  0.40000000000E+01  0.51109989000E-03 0.  1.
     -623   -1    0    0    0    0  0.00000000000E+00  0.00000000000E+00  0.12525980253E-10  0.17130000000E+03  0.17130000000E+03 0. -1.
       11    1    1    2    0    0  0.23462488749E-02  0.20733020123E-02  0.29467644979E-01  0.29637928212E-01  0.51109989000E-03 0.  1.
     -623    1    1    2    0    0  0.42777665317E-03 -0.62493335979E-03  0.37298406942E-03  0.17130000000E+03  0.17130000000E+03 0. -1.
      622    1    1    2    0    0 -0.27740255280E-02 -0.14483686526E-02  0.39701593377E+01  0.39703620691E+01  0.40000000000E-01 0.  1.
</event>
<event>
 5   0  0.7212170E+07  0.9118800E+02  0.7818608E-02  0.1180000E+00
       11   -1    0    0    0    0  0.00000000000E+00  0.00000000000E+00  0.39999999673E+01  0.40000000000E+01  0.51109989000E-03 0.  1.
     -623   -1    0    0    0    0  0.00000000000E+00  0.00000000000E+00  0.12525980253E-10  0.17130000000E+03  0.17130000000E+03 0. -1.
       11    1    1    2    0    0 -0.52805022600E-02 -0.19047028136E-01  0.58608492047E+00  0.58641833891E+00  0.51109989000E-03 0.  1.
     -623    1    1    2    0    0  0.23641077431E-01  0.82261716482E-03  0.66742077180E-03  0.17130000163E+03  0.17130000000E+03 0. -1.
      622    1    1    2    0    0 -0.18360575177E-01  0.18224410971E-01  0.34132476270E+01  0.34135800274E+01  0.40000000000E-01 0.  1.
</event>
<event>
 5   0  0.7212170E+07  0.9118800E+02  0.7818608E-02  0.1180000E+00
       11   -1    0    0    0    0  0.00000000000E+00  0.00000000000E+00  0.39999999673E+01  0.40000000000E+01  0.51109989000E-03 0. -1.
     -623   -1    0    0    0    0  0.00000000000E+00  0.00000000000E+00  0.12525980253E-10  0.17130000000E+03  0.17130000000E+03 0. -1.
       11    1    1    2    0    0  0.62104298384E-02 -0.41597806127E-02  0.87209238343E-01  0.87530484341E-01  0.51109989000E-03 0. -1.
     -623    1    1    2    0    0 -0.40474130220E-01 -0.68311801701E-03  0.68351939524E-03  0.17130000478E+03  0.17130000000E+03 0. -1.
      622    1    1    2    0    0  0.34263700381E-01  0.48428986298E-02  0.39121072096E+01  0.39124647314E+01  0.40000000000E-01 0. -1.
</event>
<event>
 5   0  0.7212170E+07  0.9118800E+02  0.7818608E-02  0.1180000E+00
       11   -1    0    0    0    0  0.00000000000E+00  0.00000000000E+00  0.39999999673E+01  0.40000000000E+01  0.51109989000E-03 0.  1.
     -623   -1    0    0    0    0  0.00000000000E+00  0.00000000000E+00  0.12525980253E-10  0.17130000000E+03  0.17130000000E+03 0.  1.
       11    1    1    2    0    0 -0.45563278716E-02 -0.58241776724E-03  0.45623950261E-02  0.64943056289E-02  0.51109989000E-03 0.  1.
     -623    1    1    2    0    0  0.30596537333E-02 -0.20268378302E-02  0.21333937611E-02  0.17130000005E+03  0.17130000000E+03 0.  1.
      622    1    1    2    0    0  0.14966741383E-02  0.26092555975E-02  0.39933041786E+01  0.39935056418E+01  0.40000000000E-01 0.  1.
</event>
<event>
 5   0  0.7212170E+07  0.9118800E+02  0.7818608E-02  0.1180000E+00
       11   -1    0    0    0    0  0.00000000000E+00  0.00000000000E+00  0.39999999673E+01  0.40000000000E+01  0.51109989000E-03 0. -1.
     -623   -1    0    0    0    0  0.00000000000E+00  0.00000000000E+00  0.12525980253E-10  0.17130000000E+03  0.17130000000E+03 0. -1.
       11    1    1    2    0    0  0.11318869302E-02 -0.34374836432E-03  0.75785918682E-01  0.75796873448E-01  0.51109989000E-03 0. -1.
     -623    1    1    2    0    0 -0.38090402137E-03  0.31394688944E-02  0.21588758912E-03  0.17130000003E+03  0.17130000000E+03 0. -1.
      622    1    1    2    0    0 -0.75098290878E-03 -0.27957205306E-02  0.39239981618E+01  0.39242030979E+01  0.40000000000E-01 0. -1.
</event>
<event>
 5   0  0.7212170E+07  0.9118800E+02  0.7818608E-02  0.1180000E+00
       11   -1    0    0    0    0  0.00000000000E+00  0.00000000000E+00  0.39999999673E+01  0.40000000000E+01  0.51109989000E-03 0.  1.
     -623   -1    0    0    0    0  0.00000000000E+00  0.00000000000E+00  0.12525980253E-10  0.17130000000E+03  0.17130000000E+03 0.  1.
       11    1    1    2    0    0 -0.34966305451E-02 -0.32308863734E-01  0.20923984445E+01  0.20926508550E+01  0.51109989000E-03 0.  1.
     -623    1    1    2    0    0  0.46780734648E-02  0.13275209625E-02  0.92398096128E-03  0.17130000007E+03  0.17130000000E+03 0.  1.
      622    1    1    2    0    0 -0.11814429198E-02  0.30981342771E-01  0.19066775420E+01  0.19073490736E+01  0.40000000000E-01 0.  1.
</event>
<event>
 5   0  0.7212170E+07  0.9118800E+02  0.7818608E-02  0.1180000E+00
       11   -1    0    0    0    0  0.00000000000E+00  0.00000000000E+00  0.39999999673E+01  0.40000000000E+01  0.51109989000E-03 0. -1.
     -623   -1    0    0    0    0  0.00000000000E+00  0.00000000000E+00  0.12525980253E-10  0.17130000000E+03  0.17130000000E+03 0. -1.
       11    1    1    2    0    0 -0.74161833053E-02 -0.92402554350E-04  0.27771210514E+00  0.27781159601E+00  0.51109989000E-03 0. -1.
     -623    1    1    2    0    0  0.11927780257E-02  0.18004772578E-01  0.36364841734E-03  0.17130000095E+03  0.17130000000E+03 0. -1.
      622    1    1    2    0    0  0.62234052797E-02 -0.17912370022E-01  0.37219242135E+01  0.37221874530E+01  0.40000000000E-01 0. -1.
</event>
<event>
 5   0  0.7212170E+07  0.9118800E+02  0.7818608E-02  0.1180000E+00
       11   -1    0    0    0    0  0.00000000000E+00  0.00000000000E+00  0.39999999673E+01  0.40000000000E+01  0.51109989000E-03 0.  1.
     -623   -1    0    0    0    0  0.00000000000E+00  0.00000000000E+00  0.12525980253E-10  0.17130000000E+03  0.17130000000E+03 0.  1.
       11    1    1    2    0    0 -0.27418865985E-03 -0.57528591058E-03  0.76524164543E-01  0.76528524848E-01  0.51109989000E-03 0.  1.
     -623    1    1    2    0    0 -0.24514663491E-03  0.64490396078E-03  0.20827053203E-03  0.17130000000E+03  0.17130000000E+03 0.  1.
      622    1    1    2    0    0  0.51933529479E-03 -0.69618050259E-04  0.39232675327E+01  0.39234714740E+01  0.40000000000E-01 0.  1.
</event>
<event>
 5   0  0.7212170E+07  0.9118800E+02  0.7818608E-02  0.1180000E+00
       11   -1    0    0    0    0  0.00000000000E+00  0.00000000000E+00  0.39999999673E+01  0.40000000000E+01  0.51109989000E-03 0. -1.
     -623   -1    0    0    0    0  0.00000000000E+00  0.00000000000E+00  0.12525980253E-10  0.17130000000E+03  0.17130000000E+03 0.  1.
       11    1    1    2    0    0 -0.15612692486E-03 -0.20135616671E-01  0.38789055054E+00  0.38841319217E+00  0.51109989000E-03 0. -1.
     -623    1    1    2    0    0  0.13632732804E-01  0.79336008236E-02  0.79061286911E-03  0.17130000073E+03  0.17130000000E+03 0.  1.
      622    1    1    2    0    0 -0.13476605880E-01  0.12202015847E-01  0.36113188042E+01  0.36115860800E+01  0.40000000000E-01 0. -1.
</event>
<event>
 5   0  0.7212170E+07  0.9118800E+02  0.7818608E-02  0.1180000E+00
       11   -1    0    0    0    0  0.00000000000E+00  0.00000000000E+00  0.39999999673E+01  0.40000000000E+01  0.51109989000E-03 0.  1.
     -623   -1    0    0    0    0  0.00000000000E+00  0.00000000000E+00  0.12525980253E-10  0.17130000000E+03  0.17130000000E+03 0.  1.
       11    1    1    2    0    0 -0.55997453731E-02 -0.14474758051E-01  0.25834499149E+01  0.25834965840E+01  0.51109989000E-03 0.  1.
     -623    1    1    2    0    0 -0.17967464692E-02  0.53320543084E-02  0.66045052060E-03  0.17130000009E+03  0.17130000000E+03 0.  1.
      622    1    1    2    0    0  0.73964918423E-02  0.91427037425E-02  0.14158896022E+01  0.14165033225E+01  0.40000000000E-01 0.  1.
</event>
<event>
 5   0  0.7212170E+07  0.9118800E+02  0.7818608E-02  0.1180000E+00
       11   -1    0    0    0    0  0.00000000000E+00  0.00000000000E+00  0.39999999673E+01  0.40000000000E+01  0.51109989000E-03 0. -1.
     -623   -1    0    0    0    0  0.00000000000E+00  0.00000000000E+00  0.12525980253E-10  0.17130000000E+03  0.17130000000E+03 0.  1.
       11    1    1    2    0    0 -0.36856584680E-03  0.10833269652E-02  0.28170950595E-02  0.30832913856E-02  0.51109989000E-03 0. -1.
     -623    1    1    2    0    0 -0.13460609826E-02 -0.16082429294E-02  0.46673872140E-03  0.17130000001E+03  0.17130000000E+03 0.  1.
      622    1    1    2    0    0  0.17146268295E-02  0.52491596423E-03  0.39967161339E+01  0.39969166954E+01  0.40000000000E-01 0. -1.
</event>
<event>
 5   0  0.7212170E+07  0.9118800E+02  0.7818608E-02  0.1180000E+00
       11   -1    0    0    0    0  0.00000000000E+00  0.00000000000E+00  0.39999999673E+01  0.40000000000E+01  0.51109989000E-03 0.  1.
     -623   -1    0    0    0    0  0.00000000000E+00  0.00000000000E+00  0.12525980253E-10  0.17130000000E+03  0.17130000000E+03 0. -1.
       11    1    1    2    0    0  0.20311507223E-01 -0.14830642923E-01  0.77855968294E+00  0.77896594689E+00  0.51109989000E-03 0.  1.
     -623    1    1    2    0    0 -0.21016342817E-02 -0.67051937219E-03  0.74340581186E-03  0.17130000002E+03  0.17130000000E+03 0. -1.
      622    1    1    2    0    0 -0.18209872942E-01  0.15501162295E-01  0.32206968785E+01  0.32210340371E+01  0.40000000000E-01 0.  1.
</event>
<event>
 5   0  0.7212170E+07  0.9118800E+02  0.7818608E-02  0.1180000E+00
       11   -1    0    0    0    0  0.00000000000E+00  0.00000000000E+00  0.39999999673E+01  0.40000000000E+01  0.51109989000E-03 0.  1.
     -623   -1    0    0    0    0  0.00000000000E+00  0.00000000000E+00  0.12525980253E-10  0.17130000000E+03  0.17130000000E+03 0.  1.
       11    1    1    2    0    0  0.72576100361E-02 -0.67590877694E-02  0.10564900239E+01  0.10565366960E+01  0.51109989000E-03 0.  1.
     -623    1    1    2    0    0 -0.98834794290E-02  0.75433810682E-02  0.32016811947E-03  0.17130000045E+03  0.17130000000E+03 0.  1.
      622    1    1    2    0    0  0.26258693955E-02 -0.78429330084E-03  0.29431897764E+01  0.29434628536E+01  0.40000000000E-01 0.  1.
</event>
<event>
 5   0  0.7212170E+07  0.9118800E+02  0.7818608E-02  0.1180000E+00
       11   -1    0    0    0    0  0.00000000000E+00  0.00000000000E+00  0.39999999673E+01  0.40000000000E+01  0.51109989000E-03 0.  1.
     -623   -1    0    0    0    0  0.00000000000E+00  0.00000000000E+00  0.12525980253E-10  0.17130000000E+03  0.17130000000E+03 0. -1.
       11    1    1    2    0    0  0.69595636714E-02  0.37411591943E-03  0.23421651820E+00  0.23432075049E+00  0.51109989000E-03 0.  1.
     -623    1    1    2    0    0  0.46995803023E-02 -0.29402916280E-02  0.33566552863E-03  0.17130000009E+03  0.17130000000E+03 0. -1.
      622    1    1    2    0    0 -0.11659143974E-01  0.25661757084E-02  0.37654477835E+01  0.37656791594E+01  0.40000000000E-01 0.  1.
</event>
<event>
 5   0  0.7212170E+07  0.9118800E+02  0.7818608E-02  0.1180000E+00
       11   -1    0    0    0    0  0.00000000000E+00  0.00000000000E+00  0.39999999673E+01  0.40000000000E+01  0.51109989000E-03 0.  1.
     -623   -1    0    0    0    0  0.00000000000E+00  0.00000000000E+00  0.12525980253E-10  0.17130000000E+03  0.17130000000E+03 0.  1.
       11    1    1    2    0    0  0.44865305788E-03  0.43895009817E-02  0.67829887967E-01  0.67975171447E-01  0.51109989000E-03 0.  1.
     -623    1    1    2    0    0 -0.98762607235E-03  0.66390155918E-03  0.35200251741E-03  0.17130000000E+03  0.17130000000E+03 0.  1.
      622    1    1    2    0    0  0.53897301486E-03 -0.50534025411E-02  0.39318180785E+01  0.39320248256E+01  0.40000000000E-01 0.  1.
</event>
<event>
 5   0  0.7212170E+07  0.9118800E+02  0.7818608E-02  0.1180000E+00
       11   -1    0    0    0    0  0.00000000000E+00  0.00000000000E+00  0.39999999673E+01  0.40000000000E+01  0.51109989000E-03 0.  1.
     -623   -1    0    0    0    0  0.00000000000E+00  0.00000000000E+00  0.12525980253E-10  0.17130000000E+03  0.17130000000E+03 0. -1.
       11    1    1    2    0    0  0.29214550323E-01  0.15098207235E-01  0.16286794695E+01  0.16290115166E+01  0.51109989000E-03 0.  1.
     -623    1    1    2    0    0  0.66998457313E-04  0.27786783860E-02  0.91773094197E-03  0.17130000003E+03  0.17130000000E+03 0. -1.
      622    1    1    2    0    0 -0.29281548781E-01 -0.17876885621E-01  0.23704027672E+01  0.23709884586E+01  0.40000000000E-01 0.  0.
</event>
<event>
 5   0  0.7212170E+07  0.9118800E+02  0.7818608E-02  0.1180000E+00
       11   -1    0    0    0    0  0.00000000000E+00  0.00000000000E+00  0.39999999673E+01  0.40000000000E+01  0.51109989000E-03 0. -1.
     -623   -1    0    0    0    0  0.00000000000E+00  0.00000000000E+00  0.12525980253E-10  0.17130000000E+03  0.17130000000E+03 0. -1.
       11    1    1    2    0    0 -0.24620278078E-02  0.32673283722E-02  0.44577327703E-02  0.60720359162E-02  0.51109989000E-03 0. -1.
     -623    1    1    2    0    0  0.17262585845E-03 -0.45825873723E-02  0.18155233770E-02  0.17130000007E+03  0.17130000000E+03 0. -1.
      622    1    1    2    0    0  0.22894019493E-02  0.13152590004E-02  0.39937267115E+01  0.39939278933E+01  0.40000000000E-01 0. -1.
</event>
<event>
 5   0  0.7212170E+07  0.9118800E+02  0.7818608E-02  0.1180000E+00
       11   -1    0    0    0    0  0.00000000000E+00  0.00000000000E+00  0.39999999673E+01  0.40000000000E+01  0.51109989000E-03 0. -1.
     -623   -1    0    0    0    0  0.00000000000E+00  0.00000000000E+00  0.12525980253E-10  0.17130000000E+03  0.17130000000E+03 0. -1.
       11    1    1    2    0    0  0.31096636935E-02  0.99856136694E-02  0.23843775668E+01  0.23844005588E+01  0.51109989000E-03 0. -1.
     -623    1    1    2    0    0  0.10680467758E-02  0.22937140375E-02  0.57030981151E-03  0.17130000002E+03  0.17130000000E+03 0. -1.
      622    1    1    2    0    0 -0.41777104695E-02 -0.12279327707E-01  0.16150520914E+01  0.16155994222E+01  0.40000000000E-01 0.  0.
</event>
<event>
 5   0  0.7212170E+07  0.9118800E+02  0.7818608E-02  0.1180000E+00
       11   -1    0    0    0    0  0.00000000000E+00  0.00000000000E+00  0.39999999673E+01  0.40000000000E+01  0.51109989000E-03 0.  1.
     -623   -1    0    0    0    0  0.00000000000E+00  0.00000000000E+00  0.12525980253E-10  0.17130000000E+03  0.17130000000E+03 0.  1.
       11    1    1    2    0    0  0.12523412593E-02 -0.62258470988E-03  0.24324416994E-02  0.28520108817E-02  0.51109989000E-03 0.  1.
     -623    1    1    2    0    0 -0.99029497983E-03  0.69255071100E-04  0.61973514409E-03  0.17130000000E+03  0.17130000000E+03 0.  1.
      622    1    1    2    0    0 -0.26204627936E-03  0.55332963878E-03  0.39969477908E+01  0.39971479854E+01  0.40000000000E-01 0.  1.
</event>
<event>
 5   0  0.7212170E+07  0.9118800E+02  0.7818608E-02  0.1180000E+00
       11   -1    0    0    0    0  0.00000000000E+00  0.00000000000E+00  0.39999999673E+01  0.40000000000E+01  0.51109989000E-03 0.  1.
     -623   -1    0    0    0    0  0.00000000000E+00  0.00000000000E+00  0.12525980253E-10  0.17130000000E+03  0.17130000000E+03 0. -1.
       11    1    1    2    0    0 -0.63493538307E-03  0.36764660659E-04  0.90511113494E-03  0.12185827198E-02  0.51109989000E-03 0. -1.
     -623    1    1    2    0    0 -0.71819007222E-03 -0.40083217838E-03  0.51375316602E-03  0.17130000000E+03  0.17130000000E+03 0. -1.
      622    1    1    2    0    0  0.13531254554E-02  0.36406751780E-03  0.39985811038E+01  0.39987814153E+01  0.40000000000E-01 0.  1.
</event>
<event>
 5   0  0.7212170E+07  0.9118800E+02  0.7818608E-02  0.1180000E+00
       11   -1    0    0    0    0  0.00000000000E+00  0.00000000000E+00  0.39999999673E+01  0.40000000000E+01  0.51109989000E-03 0.  1.
     -623   -1    0    0    0    0  0.00000000000E+00  0.00000000000E+00  0.12525980253E-10  0.17130000000E+03  0.17130000000E+03 0. -1.
       11    1    1    2    0    0  0.77353573495E-03 -0.81293681233E-03  0.96527785916E-04  0.12368364909E-02  0.51109989000E-03 0.  1.
     -623    1    1    2    0    0 -0.65987244250E-02  0.53771221025E-02  0.13474077735E-02  0.17130000022E+03  0.17130000000E+03 0. -1.
      622    1    1    2    0    0  0.58251886906E-02 -0.45641852906E-02  0.39985560321E+01  0.39987629470E+01  0.40000000000E-01 0.  1.
</event>
<event>
 5   0  0.7212170E+07  0.9118800E+02  0.7818608E-02  0.1180000E+00
       11   -1    0    0    0    0  0.00000000000E+00  0.00000000000E+00  0.39999999673E+01  0.40000000000E+01  0.51109989000E-03 0.  1.
     -623   -1    0    0    0    0  0.00000000000E+00  0.00000000000E+00  0.12525980253E-10  0.17130000000E+03  0.17130000000E+03 0.  1.
       11    1    1    2    0    0 -0.74131809068E-02 -0.77802693026E-02  0.17711198594E+00  0.17743845308E+00  0.51109989000E-03 0.  1.
     -623    1    1    2    0    0 -0.13368181252E-02  0.67555865227E-02  0.54601573220E-03  0.17130000014E+03  0.17130000000E+03 0.  1.
      622    1    1    2    0    0  0.87499990317E-02  0.10246827811E-02  0.38223419650E+01  0.38225614069E+01  0.40000000000E-01 0.  1.
</event>
<event>
 5   0  0.7212170E+07  0.9118800E+02  0.7818608E-02  0.1180000E+00
       11   -1    0    0    0    0  0.00000000000E+00  0.00000000000E+00  0.39999999673E+01  0.40000000000E+01  0.51109989000E-03 0. -1.
     -623   -1    0    0    0    0  0.00000000000E+00  0.00000000000E+00  0.12525980253E-10  0.17130000000E+03  0.17130000000E+03 0. -1.
       11    1    1    2    0    0  0.91780047803E-02  0.16710136309E-01  0.26622906966E+00  0.26691130209E+00  0.51109989000E-03 0. -1.
     -623    1    1    2    0    0  0.14737396358E-03 -0.14713822160E-02  0.93926778627E-03  0.17130000001E+03  0.17130000000E+03 0. -1.
      622    1    1    2    0    0 -0.93253787439E-02 -0.15238754093E-01  0.37328316301E+01  0.37330886891E+01  0.40000000000E-01 0. -1.
</event>
<event>
 5   0  0.7212170E+07  0.9118800E+02  0.7818608E-02  0.1180000E+00
       11   -1    0    0    0    0  0.00000000000E+00  0.00000000000E+00  0.39999999673E+01  0.40000000000E+01  0.51109989000E-03 0.  1.
     -623   -1    0    0    0    0  0.00000000000E+00  0.00000000000E+00  0.12525980253E-10  0.17130000000E+03  0.17130000000E+03 0. -1.
       11    1    1    2    0    0  0.42494924444E-02 -0.15961341485E-01  0.60614086625E+00  0.60636608874E+00  0.51109989000E-03 0.  1.
     -623    1    1    2    0    0 -0.48089362794E-03 -0.75502433791E-03  0.50420314458E-03  0.17130000000E+03  0.17130000000E+03 0. -1.
      622    1    1    2    0    0 -0.37685988164E-02  0.16716365823E-01  0.33933548989E+01  0.33936339091E+01  0.40000000000E-01 0.  1.
</event>
<event>
 5   0  0.7212170E+07  0.9118800E+02  0.7818608E-02  0.1180000E+00
       11   -1    0    0    0    0  0.00000000000E+00  0.00000000000E+00  0.39999999673E+01  0.40000000000E+01  0.51109989000E-03 0.  1.
     -623   -1    0    0    0    0  0.00000000000E+00  0.00000000000E+00  0.12525980253E-10  0.17130000000E+03  0.17130000000E+03 0. -1.
       11    1    1    2    0    0  0.13467412220E-02  0.14197491205E-02  0.14022044017E-01  0.14167157125E-01  0.51109989000E-03 0.  1.
     -623    1    1    2    0    0  0.78741724392E-04 -0.10217538539E-02  0.34607459947E-03  0.17130000000E+03  0.17130000000E+03 0. -1.
      622    1    1    2    0    0 -0.14254829464E-02 -0.39799526683E-03  0.39856318478E+01  0.39858328385E+01  0.40000000000E-01 0.  1.
</event>
<event>
 5   0  0.7212170E+07  0.9118800E+02  0.7818608E-02  0.1180000E+00
       11   -1    0    0    0    0  0.00000000000E+00  0.00000000000E+00  0.39999999673E+01  0.40000000000E+01  0.51109989000E-03 0. -1.
     -623   -1    0    0    0    0  0.00000000000E+00  0.00000000000E+00  0.12525980253E-10  0.17130000000E+03  0.17130000000E+03 0. -1.
       11    1    1    2    0    0 -0.12051390498E-01  0.32482669405E-01  0.19872537069E+01  0.19875557644E+01  0.51109989000E-03 0. -1.
     -623    1    1    2    0    0  0.16377173368E-01  0.76160251519E-02  0.11048070895E-02  0.17130000096E+03  0.17130000000E+03 0. -1.
      622    1    1    2    0    0 -0.43257828708E-02 -0.40098694557E-01  0.20116414535E+01  0.20124432799E+01  0.40000000000E-01 0. -1.
</event>
<event>
 5   0  0.7212170E+07  0.9118800E+02  0.7818608E-02  0.1180000E+00
       11   -1    0    0    0    0  0.00000000000E+00  0.00000000000E+00  0.39999999673E+01  0.40000000000E+01  0.51109989000E-03 0.  1.
     -623   -1    0    0    0    0  0.00000000000E+00  0.00000000000E+00  0.12525980253E-10  0.17130000000E+03  0.17130000000E+03 0.  1.
       11    1    1    2    0    0 -0.46979890396E-03 -0.28204389205E-03  0.94159011448E-03  0.12033598001E-02  0.51109989000E-03 0.  1.
     -623    1    1    2    0    0  0.47152849012E-03  0.12414059599E-03  0.46180667110E-03  0.17130000000E+03  0.17130000000E+03 0.  1.
      622    1    1    2    0    0 -0.17295860997E-05  0.15790329608E-03  0.39985965700E+01  0.39987966383E+01  0.40000000000E-01 0.  1.
</event>
<event>
 5   0  0.7212170E+07  0.9118800E+02  0.7818608E-02  0.1180000E+00
       11   -1    0    0    0    0  0.00000000000E+00  0.00000000000E+00  0.39999999673E+01  0.40000000000E+01  0.51109989000E-03 0. -1.
     -623   -1    0    0    0    0  0.00000000000E+00  0.00000000000E+00  0.12525980253E-10  0.17130000000E+03  0.17130000000E+03 0. -1.
       11    1    1    2    0    0  0.42464230496E-02  0.75484134655E-02  0.66205102522E+00  0.66210787027E+00  0.51109989000E-03 0. -1.
     -623    1    1    2    0    0  0.20346797305E-03 -0.27131653340E-03  0.30739338640E-03  0.17130000000E+03  0.17130000000E+03 0. -1.
      622    1    1    2    0    0 -0.44498910226E-02 -0.72770969322E-02  0.33376415481E+01  0.33378921285E+01  0.40000000000E-01 0. -1.
</event>
<event>
 5   0  0.7212170E+07  0.9118800E+02  0.7818608E-02  0.1180000E+00
       11   -1    0    0    0    0  0.00000000000E+00  0.00000000000E+00  0.39999999673E+01  0.40000000000E+01  0.51109989000E-03 0. -1.
     -623   -1    0    0    0    0  0.00000000000E+00  0.00000000000E+00  0.12525980253E-10  0.17130000000E+03  0.17130000000E+03 0. -1.
       11    1    1    2    0    0  0.84616270694E-02 -0.20568285820E-02  0.11704616153E+00  0.11737075798E+00  0.51109989000E-03 0. -1.
     -623    1    1    2    0    0  0.66923468281E-02  0.25586799155E-01  0.63353755346E-03  0.17130000204E+03  0.17130000000E+03 0. -1.
      622    1    1    2    0    0 -0.15153973898E-01 -0.23529970576E-01  0.38823202687E+01  0.38826271996E+01  0.40000000000E-01 0. -1.
</event>
<event>
 5   0  0.7212170E+07  0.9118800E+02  0.7818608E-02  0.1180000E+00
       11   -1    0    0    0    0  0.00000000000E+00  0.00000000000E+00  0.39999999673E+01  0.40000000000E+01  0.51109989000E-03 0.  1.
     -623   -1    0    0    0    0  0.00000000000E+00  0.00000000000E+00  0.12525980253E-10  0.17130000000E+03  0.17130000000E+03 0. -1.
       11    1    1    2    0    0 -0.60433788037E-02 -0.36326004143E-03  0.11550360477E+00  0.11566329721E+00  0.51109989000E-03 0.  1.
     -623    1    1    2    0    0  0.23632830671E-02  0.44569956112E-02  0.36959604138E-03  0.17130000007E+03  0.17130000000E+03 0. -1.
      622    1    1    2    0    0  0.36800957365E-02 -0.40937355700E-02  0.38841267667E+01  0.38843366283E+01  0.40000000000E-01 0.  1.
</event>
<event>
 5   0  0.7212170E+07  0.9118800E+02  0.7818608E-02  0.1180000E+00
       11   -1    0    0    0    0  0.00000000000E+00  0.00000000000E+00  0.39999999673E+01  0.40000000000E+01  0.51109989000E-03 0.  1.
     -623   -1    0    0    0    0  0.00000000000E+00  0.00000000000E+00  0.12525980253E-10  0.17130000000E+03  0.17130000000E+03 0.  1.
       11    1    1    2    0    0  0.57511879743E-03  0.77328580413E-04  0.33818922233E-02  0.34691727326E-02  0.51109989000E-03 0. -1.
     -623    1    1    2    0    0  0.63926348657E-03  0.95395571737E-03  0.28774815784E-03  0.17130000000E+03  0.17130000000E+03 0.  1.
      622    1    1    2    0    0 -0.12143822840E-02 -0.10312842978E-02  0.39963303270E+01  0.39965308232E+01  0.40000000000E-01 0.  1.
</event>
<event>
 5   0  0.7212170E+07  0.9118800E+02  0.7818608E-02  0.1180000E+00
       11   -1    0    0    0    0  0.00000000000E+00  0.00000000000E+00  0.39999999673E+01  0.40000000000E+01  0.51109989000E-03 0.  1.
     -623   -1    0    0    0    0  0.00000000000E+00  0.00000000000E+00  0.12525980253E-10  0.17130000000E+03  0.17130000000E+03 0.  1.
       11    1    1    2    0    0  0.20080047055E-02 -0.12842828922E-01  0.81469877672E+00  0.81480263154E+00  0.51109989000E-03 0.  1.
     -623    1    1    2    0    0  0.65717460133E-03  0.52393048957E-03  0.37993543688E-03  0.17130000000E+03  0.17130000000E+03 0.  1.
      622    1    1    2    0    0 -0.26651793068E-02  0.12318898432E-01  0.31849212551E+01  0.31851973659E+01  0.40000000000E-01 0.  0.
</event>
<event>
 5   0  0.7212170E+07  0.9118800E+02  0.7818608E-02  0.1180000E+00
       11   -1    0    0    0    0  0.00000000000E+00  0.00000000000E+00  0.39999999673E+01  0.40000000000E+01  0.51109989000E-03 0. -1.
     -623   -1    0    0    0    0  0.00000000000E+00  0.00000000000E+00  0.12525980253E-10  0.17130000000E+03  0.17130000000E+03 0.  1.
       11    1    1    2    0    0  0.41867583972E-02 -0.34579812608E-02  0.44739009591E+00  0.44742334061E+00  0.51109989000E-03 0. -1.
     -623    1    1    2    0    0  0.12561795655E-04 -0.33143816256E-03  0.26291160129E-03  0.17130000000E+03  0.17130000000E+03 0.  1.
      622    1    1    2    0    0 -0.41993201929E-02  0.37894194234E-02  0.35523469605E+01  0.35525766595E+01  0.40000000000E-01 0. -1.
</event>
<event>
 5   0  0.7212170E+07  0.9118800E+02  0.7818608E-02  0.1180000E+00
       11   -1    0    0    0    0  0.00000000000E+00  0.00000000000E+00  0.39999999673E+01  0.40000000000E+01  0.51109989000E-03 0.  1.
     -623   -1    0    0    0    0  0.00000000000E+00  0.00000000000E+00  0.12525980253E-10  0.17130000000E+03  0.17130000000E+03 0.  1.
       11    1    1    2    0    0  0.16499282563E-02 -0.67371347756E-03  0.13605688348E+00  0.13606951502E+00  0.51109989000E-03 0.  1.
     -623    1    1    2    0    0 -0.10324184469E-02 -0.49535246596E-03  0.21987769167E-03  0.17130000000E+03  0.17130000000E+03 0.  1.
      622    1    1    2    0    0 -0.61750980894E-03  0.11690659437E-02  0.38637232078E+01  0.38639304826E+01  0.40000000000E-01 0.  1.
</event>
<event>
 5   0  0.7212170E+07  0.9118800E+02  0.7818608E-02  0.1180000E+00
       11   -1    0    0    0    0  0.00000000000E+00  0.00000000000E+00  0.39999999673E+01  0.40000000000E+01  0.51109989000E-03 0.  1.
     -623   -1    0    0    0    0  0.00000000000E+00  0.00000000000E+00  0.12525980253E-10  0.17130000000E+03  0.17130000000E+03 0.  1.
       11    1    1    2    0    0  0.40823510319E-03  0.10498296937E-02  0.23012354406E-01  0.23045573907E-01  0.51109989000E-03 0.  1.
     -623    1    1    2    0    0 -0.94339560028E-03 -0.24785495236E-02  0.23466425044E-03  0.17130000002E+03  0.17130000000E+03 0.  1.
      622    1    1    2    0    0  0.53516049686E-03  0.14287198293E-02  0.39767529477E+01  0.39769544044E+01  0.40000000000E-01 0.  1.
</event>
<event>
 5   0  0.7212170E+07  0.9118800E+02  0.7818608E-02  0.1180000E+00
       11   -1    0    0    0    0  0.00000000000E+00  0.00000000000E+00  0.39999999673E+01  0.40000000000E+01  0.51109989000E-03 0. -1.
     -623   -1    0    0    0    0  0.00000000000E+00  0.00000000000E+00  0.12525980253E-10  0.17130000000E+03  0.17130000000E+03 0.  1.
       11    1    1    2    0    0  0.72967740050E-02 -0.11133910506E-01  0.10976460908E+01  0.10977269282E+01  0.51109989000E-03 0. -1.
     -623    1    1    2    0    0  0.21101039048E-03 -0.24759677915E-02  0.39810832832E-03  0.17130000002E+03  0.17130000000E+03 0.  1.
      622    1    1    2    0    0 -0.75077843955E-02  0.13609878298E-01  0.29019557682E+01  0.29022730533E+01  0.40000000000E-01 0. -1.
</event>
<event>
 5   0  0.7212170E+07  0.9118800E+02  0.7818608E-02  0.1180000E+00
       11   -1    0    0    0    0  0.00000000000E+00  0.00000000000E+00  0.39999999673E+01  0.40000000000E+01  0.51109989000E-03 0. -1.
     -623   -1    0    0    0    0  0.00000000000E+00  0.00000000000E+00  0.12525980253E-10  0.17130000000E+03  0.17130000000E+03 0. -1.
       11    1    1    2    0    0  0.25063534433E-02 -0.17243360017E-02  0.11112285198E-01  0.11532529976E-01  0.51109989000E-03 0. -1.
     -623    1    1    2    0    0  0.42269324068E-03  0.29243989442E-03  0.62212999056E-03  0.17130000000E+03  0.17130000000E+03 0. -1.
      622    1    1    2    0    0 -0.29290466840E-02  0.14318961072E-02  0.39882655529E+01  0.39884674688E+01  0.40000000000E-01 0. -1.
</event>
<event>
 5   0  0.7212170E+07  0.9118800E+02  0.7818608E-02  0.1180000E+00
       11   -1    0    0    0    0  0.00000000000E+00  0.00000000000E+00  0.39999999673E+01  0.40000000000E+01  0.51109989000E-03 0. -1.
     -623   -1    0    0    0    0  0.00000000000E+00  0.00000000000E+00  0.12525980253E-10  0.17130000000E+03  0.17130000000E+03 0.  1.
       11    1    1    2    0    0  0.51128359164E-02  0.17018733687E-02  0.90180950234E-01  0.90343248073E-01  0.51109989000E-03 0. -1.
     -623    1    1    2    0    0  0.17189859629E-04 -0.16424360917E-03  0.37056080020E-03  0.17130000000E+03  0.17130000000E+03 0.  1.
      622    1    1    2    0    0 -0.51300257761E-02 -0.15376297595E-02  0.39094484568E+01  0.39096567520E+01  0.40000000000E-01 0. -1.
</event>
<event>
 5   0  0.7212170E+07  0.9118800E+02  0.7818608E-02  0.1180000E+00
       11   -1    0    0    0    0  0.00000000000E+00  0.00000000000E+00  0.39999999673E+01  0.40000000000E+01  0.51109989000E-03 0.  1.
     -623   -1    0    0    0    0  0.00000000000E+00  0.00000000000E+00  0.12525980253E-10  0.17130000000E+03  0.17130000000E+03 0.  1.
       11    1    1    2    0    0  0.20530390589E-02 -0.12699875250E-01  0.44472115285E-01  0.46298294372E-01  0.51109989000E-03 0.  1.
     -623    1    1    2    0    0  0.42691390747E-03 -0.47725228904E-02  0.20679605867E-02  0.17130000008E+03  0.17130000000E+03 0.  1.
      622    1    1    2    0    0 -0.24799529664E-02  0.17472398141E-01  0.39534598914E+01  0.39537016261E+01  0.40000000000E-01 0.  1.
</event>
<event>
 5   0  0.7212170E+07  0.9118800E+02  0.7818608E-02  0.1180000E+00
       11   -1    0    0    0    0  0.00000000000E+00  0.00000000000E+00  0.39999999673E+01  0.40000000000E+01  0.51109989000E-03 0. -1.
     -623   -1    0    0    0    0  0.00000000000E+00  0.00000000000E+00  0.12525980253E-10  0.17130000000E+03  0.17130000000E+03 0. -1.
       11    1    1    2    0    0  0.55090880386E-03 -0.79044841147E-02  0.19698883325E+01  0.19699043348E+01  0.51109989000E-03 0. -1.
     -623    1    1    2    0    0 -0.11235391980E-02  0.97317501923E-03  0.42200075970E-03  0.17130000001E+03  0.17130000000E+03 0. -1.
      622    1    1    2    0    0  0.57263039402E-03  0.69313090955E-02  0.20296896338E+01  0.20300956579E+01  0.40000000000E-01 0. -1.
</event>
<event>
 5   0  0.7212170E+07  0.9118800E+02  0.7818608E-02  0.1180000E+00
       11   -1    0    0    0    0  0.00000000000E+00  0.00000000000E+00  0.39999999673E+01  0.40000000000E+01  0.51109989000E-03 0. -1.
     -623   -1    0    0    0    0  0.00000000000E+00  0.00000000000E+00  0.12525980253E-10  0.17130000000E+03  0.17130000000E+03 0. -1.
       11    1    1    2    0    0 -0.12051207548E-01 -0.12827417188E-01  0.44887013247E+00  0.44921535067E+00  0.51109989000E-03 0. -1.
     -623    1    1    2    0    0 -0.10130499976E-02  0.22701467832E-03  0.61689297754E-03  0.17130000000E+03  0.17130000000E+03 0. -1.
      622    1    1    2    0    0  0.13064257546E-01  0.12600402509E-01  0.35505129426E+01  0.35507846457E+01  0.40000000000E-01 0. -1.
</event>
<event>
 5   0  0.7212170E+07  0.9118800E+02  0.7818608E-02  0.1180000E+00
       11   -1    0    0    0    0  0.00000000000E+00  0.00000000000E+00  0.39999999673E+01  0.40000000000E+01  0.51109989000E-03 0.  1.
     -623   -1    0    0    0    0  0.00000000000E+00  0.00000000000E+00  0.12525980253E-10  0.17130000000E+03  0.17130000000E+03 0. -1.
       11    1    1    2    0    0 -0.18199589679E-02 -0.19822929356E-02  0.18981986400E-01  0.19178601793E-01  0.51109989000E-03 0.  1.
     -623    1    1    2    0    0  0.10627778120E-02 -0.96991998991E-03  0.39872464582E-03  0.17130000001E+03  0.17130000000E+03 0. -1.
      622    1    1    2    0    0  0.75718115574E-03  0.29522129256E-02  0.39806192568E+01  0.39808213922E+01  0.40000000000E-01 0.  1.
</event>
<event>
 5   0  0.7212170E+07  0.9118800E+02  0.7818608E-02  0.1180000E+00
       11   -1    0    0    0    0  0.00000000000E+00  0.00000000000E+00  0.39999999673E+01  0.40000000000E+01  0.51109989000E-03 0. -1.
     -623   -1    0    0    0    0  0.00000000000E+00  0.00000000000E+00  0.12525980253E-10  0.17130000000E+03  0.17130000000E+03 0.  1.
       11    1    1    2    0    0  0.89971282534E-03 -0.23086182925E-03  0.96110791460E-03  0.14309898229E-02  0.51109989000E-03 0. -1.
     -623    1    1    2    0    0 -0.24086963512E-02 -0.20105791990E-02  0.67086890651E-03  0.17130000003E+03  0.17130000000E+03 0.  1.
      622    1    1    2    0    0  0.15089835261E-02  0.22414410284E-02  0.39983679910E+01  0.39985689806E+01  0.40000000000E-01 0. -1.
</event>
<event>
 5   0  0.7212170E+07  0.9118800E+02  0.7818608E-02  0.1180000E+00
       11   -1    0    0    0    0  0.00000000000E+00  0.00000000000E+00  0.39999999673E+01  0.40000000000E+01  0.51109989000E-03 0.  1.
     -623   -1    0    0    0    0  0.00000000000E+00  0.00000000000E+00  0.12525980253E-10  0.17130000000E+03  0.17130000000E+03 0.  1.
       11    1    1    2    0    0 -0.80827267636E-03  0.16610155304E-02  0.64490794449E-01  0.64519268975E-01  0.51109989000E-03 0.  1.
     -623    1    1    2    0    0  0.25797862688E-03 -0.17241888351E-02  0.23177399830E-03  0.17130000001E+03  0.17130000000E+03 0.  1.
      622    1    1    2    0    0  0.55029404954E-03  0.63173304309E-04  0.39352773980E+01  0.39354807211E+01  0.40000000000E-01 0.  1.
</event>
<event>
 5   0  0.7212170E+07  0.9118800E+02  0.7818608E-02  0.1180000E+00
       11   -1    0    0    0    0  0.00000000000E+00  0.00000000000E+00  0.39999999673E+01  0.40000000000E+01  0.51109989000E-03 0. -1.
     -623   -1    0    0    0    0  0.00000000000E+00  0.00000000000E+00  0.12525980253E-10  0.17130000000E+03  0.17130000000E+03 0.  1.
       11    1    1    2    0    0  0.47701237850E-03  0.13483760727E-02  0.21677901059E-02  0.26469219640E-02  0.51109989000E-03 0. -1.
     -623    1    1    2    0    0 -0.21209584538E-02 -0.12556734089E-02  0.67959487891E-03  0.17130000002E+03  0.17130000000E+03 0.  1.
      622    1    1    2    0    0  0.16439460755E-02 -0.92702663751E-04  0.39971525828E+01  0.39973530594E+01  0.40000000000E-01 0. -1.
</event>
<event>
 5   0  0.7212170E+07  0.9118800E+02  0.7818608E-02  0.1180000E+00
       11   -1    0    0    0    0  0.00000000000E+00  0.00000000000E+00  0.39999999673E+01  0.40000000000E+01  0.51109989000E-03 0.  1.
     -623   -1    0    0    0    0  0.00000000000E+00  0.00000000000E+00  0.12525980253E-10  0.17130000000E+03  0.17130000000E+03 0. -1.
       11    1    1    2    0    0  0.13542031431E-02  0.41672911084E-03  0.10125092319E+00  0.10126212618E+00  0.51109989000E-03 0.  1.
     -623    1    1    2    0    0  0.85263739038E-03  0.54718360505E-03  0.21711727436E-03  0.17130000000E+03  0.17130000000E+03 0. -1.
      622    1    1    2    0    0 -0.22068405335E-02 -0.96391271586E-03  0.38985319267E+01  0.38987378705E+01  0.40000000000E-01 0.  1.
</event>
<event>
 5   0  0.7212170E+07  0.9118800E+02  0.7818608E-02  0.1180000E+00
       11   -1    0    0    0    0  0.00000000000E+00  0.00000000000E+00  0.39999999673E+01  0.40000000000E+01  0.51109989000E-03 0. -1.
     -623   -1    0    0    0    0  0.00000000000E+00  0.00000000000E+00  0.12525980253E-10  0.17130000000E+03  0.17130000000E+03 0.  1.
       11    1    1    2    0    0 -0.42572187675E-02 -0.28565448766E-01  0.28177374271E+00  0.28325044056E+00  0.51109989000E-03 0. -1.
     -623    1    1    2    0    0 -0.11965158549E-02 -0.49605698597E-02  0.18472192976E-02  0.17130000009E+03  0.17130000000E+03 0.  1.
      622    1    1    2    0    0  0.54537346224E-02  0.33526018626E-01  0.37163790053E+01  0.37167494734E+01  0.40000000000E-01 0. -1.
</event>
<event>
 5   0  0.7212170E+07  0.9118800E+02  0.7818608E-02  0.1180000E+00
       11   -1    0    0    0    0  0.00000000000E+00  0.00000000000E+00  0.39999999673E+01  0.40000000000E+01  0.51109989000E-03 0.  1.
     -623   -1    0    0    0    0  0.00000000000E+00  0.00000000000E+00  0.12525980253E-10  0.17130000000E+03  0.17130000000E+03 0. -1.
       11    1    1    2    0    0  0.10963812672E-02 -0.88838587067E-03  0.48024064200E-01  0.48047510308E-01  0.51109989000E-03 0.  1.
     -623    1    1    2    0    0 -0.74328525524E-04  0.63773822577E-03  0.22599170481E-03  0.17130000000E+03  0.17130000000E+03 0. -1.
      622    1    1    2    0    0 -0.10220527416E-02  0.25064764474E-03  0.39517499125E+01  0.39519524893E+01  0.40000000000E-01 0.  1.
</event>
<event>
 5   0  0.7212170E+07  0.9118800E+02  0.7818608E-02  0.1180000E+00
       11   -1    0    0    0    0  0.00000000000E+00  0.00000000000E+00  0.39999999673E+01  0.40000000000E+01  0.51109989000E-03 0. -1.
     -623   -1    0    0    0    0  0.00000000000E+00  0.00000000000E+00  0.12525980253E-10  0.17130000000E+03  0.17130000000E+03 0. -1.
       11    1    1    2    0    0  0.14146145667E-02  0.51775955106E-02  0.17619602022E+01  0.17619684515E+01  0.51109989000E-03 0. -1.
     -623    1    1    2    0    0  0.35334100726E-02 -0.10698537112E-02  0.37498333917E-03  0.17130000004E+03  0.17130000000E+03 0. -1.
      622    1    1    2    0    0 -0.49480246396E-02 -0.41077417993E-02  0.22376647822E+01  0.22380315087E+01  0.40000000000E-01 0. -1.
</event>
<event>
 5   0  0.7212170E+07  0.9118800E+02  0.7818608E-02  0.1180000E+00
       11   -1    0    0    0    0  0.00000000000E+00  0.00000000000E+00  0.39999999673E+01  0.40000000000E+01  0.51109989000E-03 0.  1.
     -623   -1    0    0    0    0  0.00000000000E+00  0.00000000000E+00  0.12525980253E-10  0.17130000000E+03  0.17130000000E+03 0. -1.
       11    1    1    2    0    0  0.67104400997E-03 -0.19946913151E-02  0.61271819719E-01  0.61310082436E-01  0.51109989000E-03 0.  1.
     -623    1    1    2    0    0  0.61986687157E-03  0.85723610681E-03  0.24172778442E-03  0.17130000000E+03  0.17130000000E+03 0. -1.
      622    1    1    2    0    0 -0.12909108818E-02  0.11374552079E-02  0.39384864217E+01  0.39386899159E+01  0.40000000000E-01 0.  1.
</event>
<event>
 5   0  0.7212170E+07  0.9118800E+02  0.7818608E-02  0.1180000E+00
       11   -1    0    0    0    0  0.00000000000E+00  0.00000000000E+00  0.39999999673E+01  0.40000000000E+01  0.51109989000E-03 0. -1.
     -623   -1    0    0    0    0  0.00000000000E+00  0.00000000000E+00  0.12525980253E-10  0.17130000000E+03  0.17130000000E+03 0. -1.
       11    1    1    2    0    0  0.23939613240E-02 -0.92199622085E-02  0.17963243906E+00  0.17988555568E+00  0.51109989000E-03 0. -1.
     -623    1    1    2    0    0 -0.10448417612E-02  0.63605673804E-04  0.47372358116E-03  0.17130000000E+03  0.17130000000E+03 0. -1.
      622    1    1    2    0    0 -0.13491195628E-02  0.91563565347E-02  0.38198938045E+01  0.38201144402E+01  0.40000000000E-01 0. -1.
</event>
<event>
 5   0  0.7212170E+07  0.9118800E+02  0.7818608E-02  0.1180000E+00
       11   -1    0    0    0    0  0.00000000000E+00  0.00000000000E+00  0.39999999673E+01  0.40000000000E+01  0.51109989000E-03 0.  1.
     -623   -1    0    0    0    0  0.00000000000E+00  0.00000000000E+00  0.12525980253E-10  0.17130000000E+03  0.17130000000E+03 0.  1.
       11    1    1    2    0    0  0.76044826389E-02 -0.41022399931E-02  0.18390461409E+00  0.18410818786E+00  0.51109989000E-03 0.  1.
     -623    1    1    2    0    0  0.76912127909E-02  0.61832024872E-02  0.44470633164E-03  0.17130000028E+03  0.17130000000E+03 0.  1.
      622    1    1    2    0    0 -0.15295695431E-01 -0.20809624954E-02  0.38156506478E+01  0.38158915281E+01  0.40000000000E-01 0.  1.
</event>
<event>
 5   0  0.7212170E+07  0.9118800E+02  0.7818608E-02  0.1180000E+00
       11   -1    0    0    0    0  0.00000000000E+00  0.00000000000E+00  0.39999999673E+01  0.40000000000E+01  0.51109989000E-03 0. -1.
     -623   -1    0    0    0    0  0.00000000000E+00  0.00000000000E+00  0.12525980253E-10  0.17130000000E+03  0.17130000000E+03 0. -1.
       11    1    1    2    0    0  0.23934931756E-02 -0.77238537883E-03  0.10950570433E+00  0.10953577448E+00  0.51109989000E-03 0. -1.
     -623    1    1    2    0    0 -0.24542098316E-03 -0.12014920116E-02  0.23677230287E-03  0.17130000000E+03  0.17130000000E+03 0. -1.
      622    1    1    2    0    0 -0.21480721923E-02  0.19738773908E-02  0.38902574921E+01  0.38904642223E+01  0.40000000000E-01 0. -1.
</event>
<event>
 5   0  0.7212170E+07  0.9118800E+02  0.7818608E-02  0.1180000E+00
       11   -1    0    0    0    0  0.00000000000E+00  0.00000000000E+00  0.39999999673E+01  0.40000000000E+01  0.51109989000E-03 0.  1.
     -623   -1    0    0    0    0  0.00000000000E+00  0.00000000000E+00  0.12525980253E-10  0.17130000000E+03  0.17130000000E+03 0. -1.
       11    1    1    2    0    0  0.55680949980E-02 -0.17584486140E-01  0.19473330854E+00  0.19560557383E+00  0.51109989000E-03 0.  1.
     -623    1    1    2    0    0 -0.17081078391E-01  0.18452154387E-01  0.11018911237E-02  0.17130000185E+03  0.17130000000E+03 0. -1.
      622    1    1    2    0    0  0.11512983393E-01 -0.86766824670E-03  0.38041647676E+01  0.38043925770E+01  0.40000000000E-01 0.  1.
</event>
<event>
 5   0  0.7212170E+07  0.9118800E+02  0.7818608E-02  0.1180000E+00
       11   -1    0    0    0    0  0.00000000000E+00  0.00000000000E+00  0.39999999673E+01  0.40000000000E+01  0.51109989000E-03 0.  1.
     -623   -1    0    0    0    0  0.00000000000E+00  0.00000000000E+00  0.12525980253E-10  0.17130000000E+03  0.17130000000E+03 0.  1.
       11    1    1    2    0    0 -0.16289356354E-01 -0.11658280908E-01  0.11112083323E+01  0.11113889857E+01  0.51109989000E-03 0.  1.
     -623    1    1    2    0    0 -0.32971391595E-02  0.34816203402E-02  0.53563696770E-03  0.17130000007E+03  0.17130000000E+03 0.  1.
      622    1    1    2    0    0  0.19586495514E-01  0.81766605673E-02  0.28882559984E+01  0.28886109466E+01  0.40000000000E-01 0.  1.
</event>
<event>
 5   0  0.7212170E+07  0.9118800E+02  0.7818608E-02  0.1180000E+00
       11   -1    0    0    0    0  0.00000000000E+00  0.00000000000E+00  0.39999999673E+01  0.40000000000E+01  0.51109989000E-03 0.  1.
     -623   -1    0    0    0    0  0.00000000000E+00  0.00000000000E+00  0.12525980253E-10  0.17130000000E+03  0.17130000000E+03 0. -1.
       11    1    1    2    0    0  0.29307899097E-03 -0.90194935089E-04  0.83988710006E-03  0.10298853624E-02  0.51109989000E-03 0. -1.
     -623    1    1    2    0    0 -0.28729284968E-03  0.14447067276E-02  0.39025832428E-03  0.17130000001E+03  0.17130000000E+03 0. -1.
      622    1    1    2    0    0 -0.57861412633E-05 -0.13545117926E-02  0.39987698223E+01  0.39989701082E+01  0.40000000000E-01 0.  1.
</event>
<event>
 5   0  0.7212170E+07  0.9118800E+02  0.7818608E-02  0.1180000E+00
       11   -1    0    0    0    0  0.00000000000E+00  0.00000000000E+00  0.39999999673E+01  0.40000000000E+01  0.51109989000E-03 0. -1.
     -623   -1    0    0    0    0  0.00000000000E+00  0.00000000000E+00  0.12525980253E-10  0.17130000000E+03  0.17130000000E+03 0. -1.
       11    1    1    2    0    0 -0.16765920630E-01 -0.21911788944E-01  0.66362870588E+00  0.66420218539E+00  0.51109989000E-03 0. -1.
     -623    1    1    2    0    0 -0.23170482610E-02  0.10557787438E-02  0.93309178346E-03  0.17130000002E+03  0.17130000000E+03 0. -1.
      622    1    1    2    0    0  0.19082968891E-01  0.20856010200E-01  0.33354381698E+01  0.33357977932E+01  0.40000000000E-01 0. -1.
</event>
<event>
 5   0  0.7212170E+07  0.9118800E+02  0.7818608E-02  0.1180000E+00
       11   -1    0    0    0    0  0.00000000000E+00  0.00000000000E+00  0.39999999673E+01  0.40000000000E+01  0.51109989000E-03 0.  1.
     -623   -1    0    0    0    0  0.00000000000E+00  0.00000000000E+00  0.12525980253E-10  0.17130000000E+03  0.17130000000E+03 0. -1.
       11    1    1    2    0    0 -0.13871387499E-01 -0.18961234676E-02  0.13738369289E+00  0.13809616566E+00  0.51109989000E-03 0.  1.
     -623    1    1    2    0    0  0.74401952156E-02 -0.40002891501E-02  0.92966503187E-03  0.17130000021E+03  0.17130000000E+03 0. -1.
      622    1    1    2    0    0  0.64311922827E-02  0.58964126178E-02  0.38616866096E+01  0.38619036237E+01  0.40000000000E-01 0.  1.
</event>
<event>
 5   0  0.7212170E+07  0.9118800E+02  0.7818608E-02  0.1180000E+00
       11   -1    0    0    0    0  0.00000000000E+00  0.00000000000E+00  0.39999999673E+01  0.40000000000E+01  0.51109989000E-03 0.  1.
     -623   -1    0    0    0    0  0.00000000000E+00  0.00000000000E+00  0.12525980253E-10  0.17130000000E+03  0.17130000000E+03 0.  1.
       11    1    1    2    0    0 -0.19966256638E-02 -0.57175335730E-02  0.56158532302E-01  0.56486446848E-01  0.51109989000E-03 0.  1.
     -623    1    1    2    0    0  0.82615832913E-03  0.71783906184E-02  0.53134944223E-03  0.17130000015E+03  0.17130000000E+03 0.  1.
      622    1    1    2    0    0  0.11704673344E-02 -0.14608570476E-02  0.39433100868E+01  0.39435134011E+01  0.40000000000E-01 0.  1.
</event>
<event>
 5   0  0.7212170E+07  0.9118800E+02  0.7818608E-02  0.1180000E+00
       11   -1    0    0    0    0  0.00000000000E+00  0.00000000000E+00  0.39999999673E+01  0.40000000000E+01  0.51109989000E-03 0.  1.
     -623   -1    0    0    0    0  0.00000000000E+00  0.00000000000E+00  0.12525980253E-10  0.17130000000E+03  0.17130000000E+03 0.  1.
       11    1    1    2    0    0 -0.71886573563E-02  0.19918574050E-02  0.46703171468E+00  0.46709156279E+00  0.51109989000E-03 0.  1.
     -623    1    1    2    0    0  0.31488813300E-03 -0.10912071448E-02  0.29307125516E-03  0.17130000000E+03  0.17130000000E+03 0.  1.
      622    1    1    2    0    0  0.68737692233E-02 -0.90065026013E-03  0.35326751815E+01  0.35329084333E+01  0.40000000000E-01 0.  1.
</event>
<event>
 5   0  0.7212170E+07  0.9118800E+02  0.7818608E-02  0.1180000E+00
       11   -1    0    0    0    0  0.00000000000E+00  0.00000000000E+00  0.39999999673E+01  0.40000000000E+01  0.51109989000E-03 0. -1.
     -623   -1    0    0    0    0  0.00000000000E+00  0.00000000000E+00  0.12525980253E-10  0.17130000000E+03  0.17130000000E+03 0.  1.
       11    1    1    2    0    0  0.32605429191E-02 -0.43065052375E-02  0.60244282467E+00  0.60246725666E+00  0.51109989000E-03 0. -1.
     -623    1    1    2    0    0 -0.17304584911E-03  0.79418107960E-04  0.26390555716E-03  0.17130000000E+03  0.17130000000E+03 0.  1.
      622    1    1    2    0    0 -0.30874970700E-02  0.42270871295E-02  0.33972932391E+01  0.33975327450E+01  0.40000000000E-01 0. -1.
</event>
<event>
 5   0  0.7212170E+07  0.9118800E+02  0.7818608E-02  0.1180000E+00
       11   -1    0    0    0    0  0.00000000000E+00  0.00000000000E+00  0.39999999673E+01  0.40000000000E+01  0.51109989000E-03 0. -1.
     -623   -1    0    0    0    0  0.00000000000E+00  0.00000000000E+00  0.12525980253E-10  0.17130000000E+03  0.17130000000E+03 0. -1.
       11    1    1    2    0    0  0.22945479188E-02 -0.29265701533E-02  0.11387039758E-01  0.11989814868E-01  0.51109989000E-03 0. -1.
     -623    1    1    2    0    0 -0.88927603390E-03  0.19096602553E-02  0.80374090877E-03  0.17130000001E+03  0.17130000000E+03 0. -1.
      622    1    1    2    0    0 -0.14052718848E-02  0.10169098978E-02  0.39878091870E+01  0.39880101706E+01  0.40000000000E-01 0. -1.
</event>
<event>
 5   0  0.7212170E+07  0.9118800E+02  0.7818608E-02  0.1180000E+00
       11   -1    0    0    0    0  0.00000000000E+00  0.00000000000E+00  0.39999999673E+01  0.40000000000E+01  0.51109989000E-03 0. -1.
     -623   -1    0    0    0    0  0.00000000000E+00  0.00000000000E+00  0.12525980253E-10  0.17130000000E+03  0.17130000000E+03 0. -1.
       11    1    1    2    0    0 -0.72769046971E-03 -0.11221618936E-01  0.46448269878E+00  0.46461908372E+00  0.51109989000E-03 0. -1.
     -623    1    1    2    0    0  0.19162962368E-01  0.56055158881E-02  0.41633757170E-03  0.17130000116E+03  0.17130000000E+03 0. -1.
      622    1    1    2    0    0 -0.18435271901E-01  0.56161030466E-02  0.35351009317E+01  0.35353797529E+01  0.40000000000E-01 0. -1.
</event>
<event>
 5   0  0.7212170E+07  0.9118800E+02  0.7818608E-02  0.1180000E+00
       11   -1    0    0    0    0  0.00000000000E+00  0.00000000000E+00  0.39999999673E+01  0.40000000000E+01  0.51109989000E-03 0.  1.
     -623   -1    0    0    0    0  0.00000000000E+00  0.00000000000E+00  0.12525980253E-10  0.17130000000E+03  0.17130000000E+03 0.  1.
       11    1    1    2    0    0 -0.40190570545E-02 -0.19847716564E-02  0.33856140926E-02  0.56405446560E-02  0.51109989000E-03 0.  1.
     -623    1    1    2    0    0  0.13235676905E-01 -0.36226525186E-02  0.24703228159E-02  0.17130000057E+03  0.17130000000E+03 0.  1.
      622    1    1    2    0    0 -0.92166198511E-02  0.56074241750E-02  0.39941440305E+01  0.39943588880E+01  0.40000000000E-01 0.  1.
</event>
<event>
 5   0  0.7212170E+07  0.9118800E+02  0.7818608E-02  0.1180000E+00
       11   -1    0    0    0    0  0.00000000000E+00  0.00000000000E+00  0.39999999673E+01  0.40000000000E+01  0.51109989000E-03 0. -1.
     -623   -1    0    0    0    0  0.00000000000E+00  0.00000000000E+00  0.12525980253E-10  0.17130000000E+03  0.17130000000E+03 0.  1.
       11    1    1    2    0    0 -0.29524035933E-01 -0.29026547002E-02  0.73490060313E+00  0.73549932142E+00  0.51109989000E-03 0. -1.
     -623    1    1    2    0    0  0.12086623272E-01  0.52310462747E-02  0.89166938795E-03  0.17130000051E+03  0.17130000000E+03 0.  1.
      622    1    1    2    0    0  0.17437412661E-01 -0.23283915748E-02  0.32642076950E+01  0.32645001702E+01  0.40000000000E-01 0.  0.
</event>
<event>
 5   0  0.7212170E+07  0.9118800E+02  0.7818608E-02  0.1180000E+00
       11   -1    0    0    0    0  0.00000000000E+00  0.00000000000E+00  0.39999999673E+01  0.40000000000E+01  0.51109989000E-03 0.  1.
     -623   -1    0    0    0    0  0.00000000000E+00  0.00000000000E+00  0.12525980253E-10  0.17130000000E+03  0.17130000000E+03 0.  1.
       11    1    1    2    0    0  0.23604515464E-02 -0.17346645073E-02  0.20802380133E-01  0.21013829607E-01  0.51109989000E-03 0.  1.
     -623    1    1    2    0    0 -0.37364864380E-02 -0.19542830240E-03  0.41322560342E-03  0.17130000004E+03  0.17130000000E+03 0.  1.
      622    1    1    2    0    0  0.13760348920E-02  0.19300928097E-02  0.39787843620E+01  0.39789861294E+01  0.40000000000E-01 0.  1.
</event>
<event>
 5   0  0.7212170E+07  0.9118800E+02  0.7818608E-02  0.1180000E+00
       11   -1    0    0    0    0  0.00000000000E+00  0.00000000000E+00  0.39999999673E+01  0.40000000000E+01  0.51109989000E-03 0. -1.
     -623   -1    0    0    0    0  0.00000000000E+00  0.00000000000E+00  0.12525980253E-10  0.17130000000E+03  0.17130000000E+03 0.  1.
       11    1    1    2    0    0 -0.19870917537E-01  0.13333744463E-01  0.49377274807E+00  0.49435253622E+00  0.51109989000E-03 0. -1.
     -623    1    1    2    0    0 -0.16214294980E-02 -0.17278517958E-02  0.89308523453E-03  0.17130000002E+03  0.17130000000E+03 0.  1.
      622    1    1    2    0    0  0.21492347035E-01 -0.11605892667E-01  0.35053341338E+01  0.35056474448E+01  0.40000000000E-01 0. -1.
</event>
<event>
 5   0  0.7212170E+07  0.9118800E+02  0.7818608E-02  0.1180000E+00
       11   -1    0    0    0    0  0.00000000000E+00  0.00000000000E+00  0.39999999673E+01  0.40000000000E+01  0.51109989000E-03 0. -1.
     -623   -1    0    0    0    0  0.00000000000E+00  0.00000000000E+00  0.12525980253E-10  0.17130000000E+03  0.17130000000E+03 0.  1.
       11    1    1    2    0    0 -0.26293882423E-01  0.59120255963E-01  0.17698899472E+01  0.17710723473E+01  0.51109989000E-03 0. -1.
     -623    1    1    2    0    0 -0.14483655492E-02  0.20040286655E-02  0.25524998731E-02  0.17130000004E+03  0.17130000000E+03 0.  1.
      622    1    1    2    0    0  0.27742247972E-01 -0.61124284629E-01  0.22275575203E+01  0.22289276159E+01  0.40000000000E-01 0. -1.
</event>
<event>
 5   0  0.7212170E+07  0.9118800E+02  0.7818608E-02  0.1180000E+00
       11   -1    0    0    0    0  0.00000000000E+00  0.00000000000E+00  0.39999999673E+01  0.40000000000E+01  0.51109989000E-03 0. -1.
     -623   -1    0    0    0    0  0.00000000000E+00  0.00000000000E+00  0.12525980253E-10  0.17130000000E+03  0.17130000000E+03 0. -1.
       11    1    1    2    0    0  0.18035656609E-03  0.79207628335E-03  0.16235294313E-02  0.18859968827E-02  0.51109989000E-03 0.  1.
     -623    1    1    2    0    0 -0.47164806044E-03  0.63249305734E-03  0.46280102410E-03  0.17130000000E+03  0.17130000000E+03 0. -1.
      622    1    1    2    0    0  0.29129149440E-03 -0.14245693408E-02  0.39979136373E+01  0.39981140011E+01  0.40000000000E-01 0. -1.
</event>
<event>
 5   0  0.7212170E+07  0.9118800E+02  0.7818608E-02  0.1180000E+00
       11   -1    0    0    0    0  0.00000000000E+00  0.00000000000E+00  0.39999999673E+01  0.40000000000E+01  0.51109989000E-03 0. -1.
     -623   -1    0    0    0    0  0.00000000000E+00  0.00000000000E+00  0.12525980253E-10  0.17130000000E+03  0.17130000000E+03 0.  1.
       11    1    1    2    0    0 -0.34454634855E-01 -0.80379559976E-02  0.38776911218E+00  0.38938011785E+00  0.51109989000E-03 0. -1.
     -623    1    1    2    0    0 -0.24253127868E-02  0.36199017631E-02  0.20236870142E-02  0.17130000007E+03  0.17130000000E+03 0.  1.
      622    1    1    2    0    0  0.36879947641E-01  0.44180542346E-02  0.36102071681E+01  0.36106198147E+01  0.40000000000E-01 0. -1.
</event>
<event>
 5   0  0.7212170E+07  0.9118800E+02  0.7818608E-02  0.1180000E+00
       11   -1    0    0    0    0  0.00000000000E+00  0.00000000000E+00  0.39999999673E+01  0.40000000000E+01  0.51109989000E-03 0. -1.
     -623   -1    0    0    0    0  0.00000000000E+00  0.00000000000E+00  0.12525980253E-10  0.17130000000E+03  0.17130000000E+03 0.  1.
       11    1    1    2    0    0 -0.82818884247E-03  0.98320011413E-05  0.36171086879E-03  0.10382924815E-02  0.51109989000E-03 0. -1.
     -623    1    1    2    0    0  0.26570063395E-02 -0.24945535031E-02  0.87783709623E-03  0.17130000004E+03  0.17130000000E+03 0.  1.
      622    1    1    2    0    0 -0.18288174971E-02  0.24847215021E-02  0.39987604196E+01  0.39989616667E+01  0.40000000000E-01 0. -1.
</event>
<event>
 5   0  0.7212170E+07  0.9118800E+02  0.7818608E-02  0.1180000E+00
       11   -1    0    0    0    0  0.00000000000E+00  0.00000000000E+00  0.39999999673E+01  0.40000000000E+01  0.51109989000E-03 0.  1.
     -623   -1    0    0    0    0  0.00000000000E+00  0.00000000000E+00  0.12525980253E-10  0.17130000000E+03  0.17130000000E+03 0.  1.
       11    1    1    2    0    0  0.84533087316E-02  0.80888784218E-02  0.61224200714E-01  0.62334198950E-01  0.51109989000E-03 0.  1.
     -623    1    1    2    0    0  0.31784788408E-03 -0.23385687896E-02  0.13271266019E-02  0.17130000002E+03  0.17130000000E+03 0.  1.
      622    1    1    2    0    0 -0.87711566157E-02 -0.57503096321E-02  0.39374486402E+01  0.39376657799E+01  0.40000000000E-01 0.  1.
</event>
<event>
 5   0  0.7212170E+07  0.9118800E+02  0.7818608E-02  0.1180000E+00
       11   -1    0    0    0    0  0.00000000000E+00  0.00000000000E+00  0.39999999673E+01  0.40000000000E+01  0.51109989000E-03 0.  1.
     -623   -1    0    0    0    0  0.00000000000E+00  0.00000000000E+00  0.12525980253E-10  0.17130000000E+03  0.17130000000E+03 0. -1.
       11    1    1    2    0    0 -0.77665456872E-02  0.17349259801E-02  0.16278024730E+00  0.16297545623E+00  0.51109989000E-03 0.  1.
     -623    1    1    2    0    0  0.10859102258E-01  0.87447796893E-02  0.41980305435E-03  0.17130000057E+03  0.17130000000E+03 0. -1.
      622    1    1    2    0    0 -0.30925565718E-02 -0.10479705670E-01  0.38367999175E+01  0.38370239763E+01  0.40000000000E-01 0.  1.
</event>
<event>
 5   0  0.7212170E+07  0.9118800E+02  0.7818608E-02  0.1180000E+00
       11   -1    0    0    0    0  0.00000000000E+00  0.00000000000E+00  0.39999999673E+01  0.40000000000E+01  0.51109989000E-03 0.  1.
     -623   -1    0    0    0    0  0.00000000000E+00  0.00000000000E+00  0.12525980253E-10  0.17130000000E+03  0.17130000000E+03 0. -1.
       11    1    1    2    0    0 -0.74943694028E-02 -0.18866941647E-03  0.12784015221E-01  0.14828804307E-01  0.51109989000E-03 0.  1.
     -623    1    1    2    0    0  0.23256875435E-01 -0.17050947435E-01  0.23164143586E-02  0.17130000244E+03  0.17130000000E+03 0. -1.
      622    1    1    2    0    0 -0.15762506032E-01  0.17239616851E-01  0.39848995377E+01  0.39851687526E+01  0.40000000000E-01 0.  1.
</event>
<event>
 5   0  0.7212170E+07  0.9118800E+02  0.7818608E-02  0.1180000E+00
       11   -1    0    0    0    0  0.00000000000E+00  0.00000000000E+00  0.39999999673E+01  0.40000000000E+01  0.51109989000E-03 0. -1.
     -623   -1    0    0    0    0  0.00000000000E+00  0.00000000000E+00  0.12525980253E-10  0.17130000000E+03  0.17130000000E+03 0.  1.
       11    1    1    2    0    0 -0.79844933400E-03  0.96660873084E-03  0.77156743745E-02  0.78335629141E-02  0.51109989000E-03 0. -1.
     -623    1    1    2    0    0  0.72561459574E-03  0.17129438609E-04  0.31837708494E-03  0.17130000000E+03  0.17130000000E+03 0.  1.
      622    1    1    2    0    0  0.72834738141E-04 -0.98373816946E-03  0.39919659166E+01  0.39921664360E+01  0.40000000000E-01 0. -1.
</event>
<event>
 5   0  0.7212170E+07  0.9118800E+02  0.7818608E-02  0.1180000E+00
       11   -1    0    0    0    0  0.00000000000E+00  0.00000000000E+00  0.39999999673E+01  0.40000000000E+01  0.51109989000E-03 0. -1.
     -623   -1    0    0    0    0  0.00000000000E+00  0.00000000000E+00  0.12525980253E-10  0.17130000000E+03  0.17130000000E+03 0. -1.
       11    1    1    2    0    0  0.17452408317E-03 -0.26611374332E-03  0.39947399682E-04  0.60340208177E-03  0.51109989000E-03 0.  1.
     -623    1    1    2    0    0  0.69401580942E-03  0.12358240832E-03  0.76355722551E-03  0.17130000000E+03  0.17130000000E+03 0. -1.
      622    1    1    2    0    0 -0.86853989263E-03  0.14253133499E-03  0.39991964630E+01  0.39993965950E+01  0.40000000000E-01 0. -1.
</event>
<event>
 5   0  0.7212170E+07  0.9118800E+02  0.7818608E-02  0.1180000E+00
       11   -1    0    0    0    0  0.00000000000E+00  0.00000000000E+00  0.39999999673E+01  0.40000000000E+01  0.51109989000E-03 0.  1.
     -623   -1    0    0    0    0  0.00000000000E+00  0.00000000000E+00  0.12525980253E-10  0.17130000000E+03  0.17130000000E+03 0.  1.
       11    1    1    2    0    0 -0.28465767045E-02 -0.87469294860E-02  0.13698120388E-01  0.16507922329E-01  0.51109989000E-03 0.  1.
     -623    1    1    2    0    0 -0.20555481186E-03  0.21905332644E-01  0.30349339846E-02  0.17130000143E+03  0.17130000000E+03 0.  1.
      622    1    1    2    0    0  0.30521315164E-02 -0.13158403159E-01  0.39832669130E+01  0.39834906501E+01  0.40000000000E-01 0.  1.
</event>
<event>
 5   0  0.7212170E+07  0.9118800E+02  0.7818608E-02  0.1180000E+00
       11   -1    0    0    0    0  0.00000000000E+00  0.00000000000E+00  0.39999999673E+01  0.40000000000E+01  0.51109989000E-03 0. -1.
     -623   -1    0    0    0    0  0.00000000000E+00  0.00000000000E+00  0.12525980253E-10  0.17130000000E+03  0.17130000000E+03 0. -1.
       11    1    1    2    0    0  0.69789720535E-02 -0.10704534930E-01  0.31120620302E-01  0.33645911343E-01  0.51109989000E-03 0. -1.
     -623    1    1    2    0    0  0.14872365077E-02 -0.13488620214E-02  0.27543456816E-02  0.17130000003E+03  0.17130000000E+03 0. -1.
      622    1    1    2    0    0 -0.84662085611E-02  0.12053396952E-01  0.39661250014E+01  0.39663540548E+01  0.40000000000E-01 0. -1.
</event>
<event>
 5   0  0.7212170E+07  0.9118800E+02  0.7818608E-02  0.1180000E+00
       11   -1    0    0    0    0  0.00000000000E+00  0.00000000000E+00  0.39999999673E+01  0.40000000000E+01  0.51109989000E-03 0. -1.
     -623   -1    0    0    0    0  0.00000000000E+00  0.00000000000E+00  0.12525980253E-10  0.17130000000E+03  0.17130000000E+03 0.  1.
       11    1    1    2    0    0 -0.13701616008E-02  0.48398059735E-02  0.16405732877E+00  0.16413521685E+00  0.51109989000E-03 0. -1.
     -623    1    1    2    0    0  0.72255161157E-04 -0.31148952224E-02  0.28705505633E-03  0.17130000003E+03  0.17130000000E+03 0.  1.
      622    1    1    2    0    0  0.12979064396E-02 -0.17249107505E-02  0.38356555843E+01  0.38358647554E+01  0.40000000000E-01 0. -1.
</event>
<event>
 5   0  0.7212170E+07  0.9118800E+02  0.7818608E-02  0.1180000E+00
       11   -1    0    0    0    0  0.00000000000E+00  0.00000000000E+00  0.39999999673E+01  0.40000000000E+01  0.51109989000E-03 0. -1.
     -623   -1    0    0    0    0  0.00000000000E+00  0.00000000000E+00  0.12525980253E-10  0.17130000000E+03  0.17130000000E+03 0. -1.
       11    1    1    2    0    0  0.94922909033E-02  0.40565723373E-02  0.20357150419E+00  0.20383370160E+00  0.51109989000E-03 0. -1.
     -623    1    1    2    0    0 -0.63567372606E-02  0.79175126192E-02  0.49339198626E-03  0.17130000030E+03  0.17130000000E+03 0. -1.
      622    1    1    2    0    0 -0.31355536417E-02 -0.11974084958E-01  0.37959350718E+01  0.37961659974E+01  0.40000000000E-01 0. -1.
</event>
<event>
 5   0  0.7212170E+07  0.9118800E+02  0.7818608E-02  0.1180000E+00
       11   -1    0    0    0    0  0.00000000000E+00  0.00000000000E+00  0.39999999673E+01  0.40000000000E+01  0.51109989000E-03 0. -1.
     -623   -1    0    0    0    0  0.00000000000E+00  0.00000000000E+00  0.12525980253E-10  0.17130000000E+03  0.17130000000E+03 0. -1.
       11    1    1    2    0    0  0.17111972320E-01  0.12375072242E-01  0.23433202105E+01  0.23434154203E+01  0.51109989000E-03 0. -1.
     -623    1    1    2    0    0 -0.61015900954E-02 -0.38258561920E-02  0.63698973978E-03  0.17130000015E+03  0.17130000000E+03 0. -1.
      622    1    1    2    0    0 -0.11010382224E-01 -0.85492160494E-02  0.16560427676E+01  0.16565844276E+01  0.40000000000E-01 0.  0.
</event>
<event>
 5   0  0.7212170E+07  0.9118800E+02  0.7818608E-02  0.1180000E+00
       11   -1    0    0    0    0  0.00000000000E+00  0.00000000000E+00  0.39999999673E+01  0.40000000000E+01  0.51109989000E-03 0. -1.
     -623   -1    0    0    0    0  0.00000000000E+00  0.00000000000E+00  0.12525980253E-10  0.17130000000E+03  0.17130000000E+03 0. -1.
       11    1    1    2    0    0  0.19432478699E-01  0.37764972311E-01  0.26324259750E+01  0.26327686168E+01  0.51109989000E-03 0. -1.
     -623    1    1    2    0    0  0.64209801884E-02 -0.28358661803E-02  0.16190892531E-02  0.17130000015E+03  0.17130000000E+03 0. -1.
      622    1    1    2    0    0 -0.25853458887E-01 -0.34929106131E-01  0.13659549031E+01  0.13672312317E+01  0.40000000000E-01 0. -1.
</event>
<event>
 5   0  0.7212170E+07  0.9118800E+02  0.7818608E-02  0.1180000E+00
       11   -1    0    0    0    0  0.00000000000E+00  0.00000000000E+00  0.39999999673E+01  0.40000000000E+01  0.51109989000E-03 0.  1.
     -623   -1    0    0    0    0  0.00000000000E+00  0.00000000000E+00  0.12525980253E-10  0.17130000000E+03  0.17130000000E+03 0.  1.
       11    1    1    2    0    0  0.22142885621E-01  0.31592849619E-01  0.28667323647E+01  0.28669919999E+01  0.51109989000E-03 0.  1.
     -623    1    1    2    0    0  0.78042096862E-02 -0.19959483514E-01  0.14231286536E-02  0.17130000135E+03  0.17130000000E+03 0.  1.
      622    1    1    2    0    0 -0.29947095308E-01 -0.11633366104E-01  0.11318444741E+01  0.11330066537E+01  0.40000000000E-01 0.  1.
</event>
<event>
 5   0  0.7212170E+07  0.9118800E+02  0.7818608E-02  0.1180000E+00
       11   -1    0    0    0    0  0.00000000000E+00  0.00000000000E+00  0.39999999673E+01  0.40000000000E+01  0.51109989000E-03 0.  1.
     -623   -1    0    0    0    0  0.00000000000E+00  0.00000000000E+00  0.12525980253E-10  0.17130000000E+03  0.17130000000E+03 0. -1.
       11    1    1    2    0    0  0.43302100776E-03 -0.17464886388E-02  0.56529830059E-02  0.59544243820E-02  0.51109989000E-03 0.  1.
     -623    1    1    2    0    0 -0.37748257368E-02 -0.17170683752E-02  0.50466281597E-03  0.17130000005E+03  0.17130000000E+03 0. -1.
      622    1    1    2    0    0  0.33418047293E-02  0.34635570141E-02  0.39938423217E+01  0.39940455249E+01  0.40000000000E-01 0.  1.
</event>
<event>
 5   0  0.7212170E+07  0.9118800E+02  0.7818608E-02  0.1180000E+00
       11   -1    0    0    0    0  0.00000000000E+00  0.00000000000E+00  0.39999999673E+01  0.40000000000E+01  0.51109989000E-03 0. -1.
     -623   -1    0    0    0    0  0.00000000000E+00  0.00000000000E+00  0.12525980253E-10  0.17130000000E+03  0.17130000000E+03 0. -1.
       11    1    1    2    0    0  0.15430035411E-01 -0.42693232336E-02  0.43519720930E+00  0.43549188893E+00  0.51109989000E-03 0. -1.
     -623    1    1    2    0    0 -0.15887421191E-01  0.12384731655E-02  0.52114898278E-03  0.17130000074E+03  0.17130000000E+03 0. -1.
      622    1    1    2    0    0  0.45738578026E-03  0.30308500681E-02  0.35642816091E+01  0.35645073691E+01  0.40000000000E-01 0. -1.
</event>
<event>
 5   0  0.7212170E+07  0.9118800E+02  0.7818608E-02  0.1180000E+00
       11   -1    0    0    0    0  0.00000000000E+00  0.00000000000E+00  0.39999999673E+01  0.40000000000E+01  0.51109989000E-03 0.  1.
     -623   -1    0    0    0    0  0.00000000000E+00  0.00000000000E+00  0.12525980253E-10  0.17130000000E+03  0.17130000000E+03 0.  1.
       11    1    1    2    0    0  0.35397540378E-02 -0.14972569353E-02  0.12390418348E+01  0.12390479011E+01  0.51109989000E-03 0.  1.
     -623    1    1    2    0    0  0.13035738232E-01  0.60389229355E-02  0.34990427888E-03  0.17130000060E+03  0.17130000000E+03 0.  1.
      622    1    1    2    0    0 -0.16575492269E-01 -0.45416659999E-02  0.27606082281E+01  0.27609514959E+01  0.40000000000E-01 0.  0.
</event>
<event>
 5   0  0.7212170E+07  0.9118800E+02  0.7818608E-02  0.1180000E+00
       11   -1    0    0    0    0  0.00000000000E+00  0.00000000000E+00  0.39999999673E+01  0.40000000000E+01  0.51109989000E-03 0.  1.
     -623   -1    0    0    0    0  0.00000000000E+00  0.00000000000E+00  0.12525980253E-10  0.17130000000E+03  0.17130000000E+03 0. -1.
       11    1    1    2    0    0  0.20901627843E-02 -0.25683066514E-02  0.12739603635E-01  0.13172839610E-01  0.51109989000E-03 0.  1.
     -623    1    1    2    0    0 -0.29180782308E-02  0.10320425436E-02  0.63428031340E-03  0.17130000003E+03  0.17130000000E+03 0. -1.
      622    1    1    2    0    0  0.82791544682E-03  0.15362641077E-02  0.39866260839E+01  0.39868271317E+01  0.40000000000E-01 0.  1.
</event>
<event>
 5   0  0.7212170E+07  0.9118800E+02  0.7818608E-02  0.1180000E+00
       11   -1    0    0    0    0  0.00000000000E+00  0.00000000000E+00  0.39999999673E+01  0.40000000000E+01  0.51109989000E-03 0. -1.
     -623   -1    0    0    0    0  0.00000000000E+00  0.00000000000E+00  0.12525980253E-10  0.17130000000E+03  0.17130000000E+03 0.  1.
       11    1    1    2    0    0 -0.10018027362E-01  0.74548918802E-03  0.12697340903E+00  0.12737120730E+00  0.51109989000E-03 0. -1.
     -623    1    1    2    0    0  0.96845984492E-02  0.29134381054E-02  0.60639175228E-03  0.17130000030E+03  0.17130000000E+03 0.  1.
      622    1    1    2    0    0  0.33342891024E-03 -0.36589272941E-02  0.38724201675E+01  0.38726284940E+01  0.40000000000E-01 0. -1.
</event>
<event>
 5   0  0.7212170E+07  0.9118800E+02  0.7818608E-02  0.1180000E+00
       11   -1    0    0    0    0  0.00000000000E+00  0.00000000000E+00  0.39999999673E+01  0.40000000000E+01  0.51109989000E-03 0. -1.
     -623   -1    0    0    0    0  0.00000000000E+00  0.00000000000E+00  0.12525980253E-10  0.17130000000E+03  0.17130000000E+03 0.  1.
       11    1    1    2    0    0 -0.56598736935E-02 -0.50538942041E-02  0.42774558783E+00  0.42781318954E+00  0.51109989000E-03 0. -1.
     -623    1    1    2    0    0  0.66298012486E-02  0.86029883628E-02  0.29376801943E-03  0.17130000034E+03  0.17130000000E+03 0.  1.
      622    1    1    2    0    0 -0.96992755702E-03 -0.35490941612E-02  0.35719606127E+01  0.35721864670E+01  0.40000000000E-01 0. -1.
</event>
<event>
 5   0  0.7212170E+07  0.9118800E+02  0.7818608E-02  0.1180000E+00
       11   -1    0    0    0    0  0.00000000000E+00  0.00000000000E+00  0.39999999673E+01  0.40000000000E+01  0.51109989000E-03 0. -1.
     -623   -1    0    0    0    0  0.00000000000E+00  0.00000000000E+00  0.12525980253E-10  0.17130000000E+03  0.17130000000E+03 0.  1.
       11    1    1    2    0    0 -0.11304472172E-05 -0.15489061676E-02  0.11223735128E+00  0.11224920203E+00  0.51109989000E-03 0. -1.
     -623    1    1    2    0    0 -0.14182248913E-02 -0.40050896862E-02  0.22187740784E-03  0.17130000005E+03  0.17130000000E+03 0.  1.
      622    1    1    2    0    0  0.14193553390E-02  0.55539958552E-02  0.38875407401E+01  0.38877507466E+01  0.40000000000E-01 0. -1.
</event>
<event>
 5   0  0.7212170E+07  0.9118800E+02  0.7818608E-02  0.1180000E+00
       11   -1    0    0    0    0  0.00000000000E+00  0.00000000000E+00  0.39999999673E+01  0.40000000000E+01  0.51109989000E-03 0.  1.
     -623   -1    0    0    0    0  0.00000000000E+00  0.00000000000E+00  0.12525980253E-10  0.17130000000E+03  0.17130000000E+03 0. -1.
       11    1    1    2    0    0 -0.16132809097E-02 -0.11262317626E-02  0.64575858593E-02  0.67699860786E-02  0.51109989000E-03 0.  1.
     -623    1    1    2    0    0  0.14275226953E-02 -0.21524078349E-03  0.51294818684E-03  0.17130000001E+03  0.17130000000E+03 0. -1.
      622    1    1    2    0    0  0.18575821447E-03  0.13414725461E-02  0.39930294331E+01  0.39932300068E+01  0.40000000000E-01 0.  1.
</event>
<event>
 5   0  0.7212170E+07  0.9118800E+02  0.7818608E-02  0.1180000E+00
       11   -1    0    0    0    0  0.00000000000E+00  0.00000000000E+00  0.39999999673E+01  0.40000000000E+01  0.51109989000E-03 0.  1.
     -623   -1    0    0    0    0  0.00000000000E+00  0.00000000000E+00  0.12525980253E-10  0.17130000000E+03  0.17130000000E+03 0. -1.
       11    1    1    2    0    0  0.41350271528E-04 -0.22779099012E-02  0.87834808982E-02  0.90885281069E-02  0.51109989000E-03 0.  1.
     -623    1    1    2    0    0 -0.54934064195E-03  0.28147084393E-02  0.50556825213E-03  0.17130000002E+03  0.17130000000E+03 0. -1.
      622    1    1    2    0    0  0.50799037042E-03 -0.53679853804E-03  0.39907109182E+01  0.39909114472E+01  0.40000000000E-01 0.  1.
</event>
<event>
 5   0  0.7212170E+07  0.9118800E+02  0.7818608E-02  0.1180000E+00
       11   -1    0    0    0    0  0.00000000000E+00  0.00000000000E+00  0.39999999673E+01  0.40000000000E+01  0.51109989000E-03 0.  1.
     -623   -1    0    0    0    0  0.00000000000E+00  0.00000000000E+00  0.12525980253E-10  0.17130000000E+03  0.17130000000E+03 0. -1.
       11    1    1    2    0    0 -0.11861616264E-02 -0.21012612877E-02  0.32242311768E-02  0.40594541730E-02  0.51109989000E-03 0.  1.
     -623    1    1    2    0    0  0.73172073386E-03  0.43739456758E-02  0.10361312588E-02  0.17130000006E+03  0.17130000000E+03 0. -1.
      622    1    1    2    0    0  0.45444089251E-03 -0.22726843883E-02  0.39957396052E+01  0.39959404855E+01  0.40000000000E-01 0.  1.
</event>
<event>
 5   0  0.7212170E+07  0.9118800E+02  0.7818608E-02  0.1180000E+00
       11   -1    0    0    0    0  0.00000000000E+00  0.00000000000E+00  0.39999999673E+01  0.40000000000E+01  0.51109989000E-03 0.  1.
     -623   -1    0    0    0    0  0.00000000000E+00  0.00000000000E+00  0.12525980253E-10  0.17130000000E+03  0.17130000000E+03 0.  1.
       11    1    1    2    0    0 -0.11742535045E-01  0.89955044723E-02  0.25497105210E+00  0.25540028360E+00  0.51109989000E-03 0.  1.
     -623    1    1    2    0    0 -0.32286458380E-03 -0.26535800822E-03  0.67246413937E-03  0.17130000000E+03  0.17130000000E+03 0.  1.
      622    1    1    2    0    0  0.12065399629E-01 -0.87301464640E-02  0.37443564514E+01  0.37445997148E+01  0.40000000000E-01 0.  1.
</event>
<event>
 5   0  0.7212170E+07  0.9118800E+02  0.7818608E-02  0.1180000E+00
       11   -1    0    0    0    0  0.00000000000E+00  0.00000000000E+00  0.39999999673E+01  0.40000000000E+01  0.51109989000E-03 0. -1.
     -623   -1    0    0    0    0  0.00000000000E+00  0.00000000000E+00  0.12525980253E-10  0.17130000000E+03  0.17130000000E+03 0.  1.
       11    1    1    2    0    0  0.40500081046E-02  0.38490791598E-03  0.15714443083E-01  0.16240556156E-01  0.51109989000E-03 0. -1.
     -623    1    1    2    0    0 -0.21539280237E-01 -0.18023614777E-02  0.76691079492E-03  0.17130000137E+03  0.17130000000E+03 0.  1.
      622    1    1    2    0    0  0.17489272132E-01  0.14174535616E-02  0.39835186133E+01  0.39837580783E+01  0.40000000000E-01 0. -1.
</event>
<event>
 5   0  0.7212170E+07  0.9118800E+02  0.7818608E-02  0.1180000E+00
       11   -1    0    0    0    0  0.00000000000E+00  0.00000000000E+00  0.39999999673E+01  0.40000000000E+01  0.51109989000E-03 0.  1.
     -623   -1    0    0    0    0  0.00000000000E+00  0.00000000000E+00  0.12525980253E-10  0.17130000000E+03  0.17130000000E+03 0. -1.
       11    1    1    2    0    0 -0.51050016885E-02 -0.24002638742E-02  0.57471291992E+00  0.57474083190E+00  0.51109989000E-03 0.  1.
     -623    1    1    2    0    0  0.64528935570E-02 -0.18801043154E-02  0.26451823197E-03  0.17130000013E+03  0.17130000000E+03 0. -1.
      622    1    1    2    0    0 -0.13478918693E-02  0.42803681898E-02  0.34250225297E+01  0.34252590365E+01  0.40000000000E-01 0.  1.
</event>
<event>
 5   0  0.7212170E+07  0.9118800E+02  0.7818608E-02  0.1180000E+00
       11   -1    0    0    0    0  0.00000000000E+00  0.00000000000E+00  0.39999999673E+01  0.40000000000E+01  0.51109989000E-03 0. -1.
     -623   -1    0    0    0    0  0.00000000000E+00  0.00000000000E+00  0.12525980253E-10  0.17130000000E+03  0.17130000000E+03 0.  1.
       11    1    1    2    0    0  0.42427107954E-02  0.53955248718E-02  0.26846435316E+01  0.26846523546E+01  0.51109989000E-03 0. -1.
     -623    1    1    2    0    0  0.51100349560E-04 -0.13046693781E-01  0.64690864002E-03  0.17130000050E+03  0.17130000000E+03 0.  1.
      622    1    1    2    0    0 -0.42938111450E-02  0.76511689125E-02  0.13147095281E+01  0.13153471483E+01  0.40000000000E-01 0.  0.
</event>
<event>
 5   0  0.7212170E+07  0.9118800E+02  0.7818608E-02  0.1180000E+00
       11   -1    0    0    0    0  0.00000000000E+00  0.00000000000E+00  0.39999999673E+01  0.40000000000E+01  0.51109989000E-03 0.  1.
     -623   -1    0    0    0    0  0.00000000000E+00  0.00000000000E+00  0.12525980253E-10  0.17130000000E+03  0.17130000000E+03 0.  1.
       11    1    1    2    0    0 -0.40752374819E-01  0.20838268690E-01  0.19337168523E+01  0.19342585441E+01  0.51109989000E-03 0.  1.
     -623    1    1    2    0    0  0.13172827884E-01  0.15465741998E-01  0.14334478718E-02  0.17130000121E+03  0.17130000000E+03 0.  1.
      622    1    1    2    0    0  0.27579546934E-01 -0.36304010690E-01  0.20648496675E+01  0.20657402456E+01  0.40000000000E-01 0. -1.
</event>
<event>
 5   0  0.7212170E+07  0.9118800E+02  0.7818608E-02  0.1180000E+00
       11   -1    0    0    0    0  0.00000000000E+00  0.00000000000E+00  0.39999999673E+01  0.40000000000E+01  0.51109989000E-03 0. -1.
     -623   -1    0    0    0    0  0.00000000000E+00  0.00000000000E+00  0.12525980253E-10  0.17130000000E+03  0.17130000000E+03 0.  1.
       11    1    1    2    0    0  0.13607573185E-01  0.81645702278E-02  0.15858928986E+00  0.15938208914E+00  0.51109989000E-03 0. -1.
     -623    1    1    2    0    0  0.25574726808E-02 -0.27634824237E-02  0.10389357605E-02  0.17130000004E+03  0.17130000000E+03 0.  1.
      622    1    1    2    0    0 -0.16165045866E-01 -0.54010878039E-02  0.38403717421E+01  0.38406178667E+01  0.40000000000E-01 0. -1.
</event>
<event>
 5   0  0.7212170E+07  0.9118800E+02  0.7818608E-02  0.1180000E+00
       11   -1    0    0    0    0  0.00000000000E+00  0.00000000000E+00  0.39999999673E+01  0.40000000000E+01  0.51109989000E-03 0. -1.
     -623   -1    0    0    0    0  0.00000000000E+00  0.00000000000E+00  0.12525980253E-10  0.17130000000E+03  0.17130000000E+03 0. -1.
       11    1    1    2    0    0  0.67230442972E-03  0.10014943739E-02  0.12837249512E-01  0.12903921201E-01  0.51109989000E-03 0. -1.
     -623    1    1    2    0    0  0.15312460077E-02 -0.31306524097E-02  0.26850452214E-03  0.17130000004E+03  0.17130000000E+03 0. -1.
      622    1    1    2    0    0 -0.22035504370E-02  0.21291580348E-02  0.39868942121E+01  0.39870960419E+01  0.40000000000E-01 0. -1.
</event>
<event>
 5   0  0.7212170E+07  0.9118800E+02  0.7818608E-02  0.1180000E+00
       11   -1    0    0    0    0  0.00000000000E+00  0.00000000000E+00  0.39999999673E+01  0.40000000000E+01  0.51109989000E-03 0.  1.
     -623   -1    0    0    0    0  0.00000000000E+00  0.00000000000E+00  0.12525980253E-10  0.17130000000E+03  0.17130000000E+03 0.  1.
       11    1    1    2    0    0 -0.15529652449E-02  0.47446049043E-02  0.28803637864E+00  0.28808009237E+00  0.51109989000E-03 0.  1.
     -623    1    1    2    0    0 -0.25214023208E-02 -0.47466381726E-02  0.26152999726E-03  0.17130000008E+03  0.17130000000E+03 0.  1.
      622    1    1    2    0    0  0.40743675667E-02  0.20332701985E-05  0.37117020603E+01  0.37119198247E+01  0.40000000000E-01 0.  1.
</event>
<event>
 5   0  0.7212170E+07  0.9118800E+02  0.7818608E-02  0.1180000E+00
       11   -1    0    0    0    0  0.00000000000E+00  0.00000000000E+00  0.39999999673E+01  0.40000000000E+01  0.51109989000E-03 0. -1.
     -623   -1    0    0    0    0  0.00000000000E+00  0.00000000000E+00  0.12525980253E-10  0.17130000000E+03  0.17130000000E+03 0. -1.
       11    1    1    2    0    0 -0.52885587791E-02 -0.19389784996E-01  0.39296850794E+00  0.39348245459E+00  0.51109989000E-03 0. -1.
     -623    1    1    2    0    0 -0.47711783100E-02  0.94195403876E-02  0.76388176663E-03  0.17130000033E+03  0.17130000000E+03 0. -1.
      622    1    1    2    0    0  0.10059737089E-01  0.99702446081E-02  0.36062675776E+01  0.36065172182E+01  0.40000000000E-01 0. -1.
</event>
<event>
 5   0  0.7212170E+07  0.9118800E+02  0.7818608E-02  0.1180000E+00
       11   -1    0    0    0    0  0.00000000000E+00  0.00000000000E+00  0.39999999673E+01  0.40000000000E+01  0.51109989000E-03 0.  1.
     -623   -1    0    0    0    0  0.00000000000E+00  0.00000000000E+00  0.12525980253E-10  0.17130000000E+03  0.17130000000E+03 0.  1.
       11    1    1    2    0    0  0.13757619588E-01 -0.24888675261E-02  0.15661285276E+00  0.15723648887E+00  0.51109989000E-03 0.  1.
     -623    1    1    2    0    0  0.40540554457E-04  0.14375608465E-02  0.85671847160E-03  0.17130000001E+03  0.17130000000E+03 0.  1.
      622    1    1    2    0    0 -0.13798160142E-01  0.10513066797E-02  0.38425303960E+01  0.38427635028E+01  0.40000000000E-01 0.  1.
</event>
<event>
 5   0  0.7212170E+07  0.9118800E+02  0.7818608E-02  0.1180000E+00
       11   -1    0    0    0    0  0.00000000000E+00  0.00000000000E+00  0.39999999673E+01  0.40000000000E+01  0.51109989000E-03 0. -1.
     -623   -1    0    0    0    0  0.00000000000E+00  0.00000000000E+00  0.12525980253E-10  0.17130000000E+03  0.17130000000E+03 0.  1.
       11    1    1    2    0    0  0.42777602168E-02 -0.86199339009E-03  0.97070667471E-01  0.97170046678E-01  0.51109989000E-03 0. -1.
     -623    1    1    2    0    0  0.59635323081E-03  0.15704872454E-02  0.30744796023E-03  0.17130000001E+03  0.17130000000E+03 0.  1.
      622    1    1    2    0    0 -0.48741134477E-02 -0.70849385565E-03  0.39026218529E+01  0.39028299457E+01  0.40000000000E-01 0. -1.
</event>
<event>
 5   0  0.7212170E+07  0.9118800E+02  0.7818608E-02  0.1180000E+00
       11   -1    0    0    0    0  0.00000000000E+00  0.00000000000E+00  0.39999999673E+01  0.40000000000E+01  0.51109989000E-03 0. -1.
     -623   -1    0    0    0    0  0.00000000000E+00  0.00000000000E+00  0.12525980253E-10  0.17130000000E+03  0.17130000000E+03 0. -1.
       11    1    1    2    0    0  0.20159119313E-02  0.20968251887E-02  0.25801570276E-01  0.25970037131E-01  0.51109989000E-03 0. -1.
     -623    1    1    2    0    0 -0.47742196497E-01 -0.20163383124E-01  0.68175170753E-03  0.17130000784E+03  0.17130000000E+03 0. -1.
      622    1    1    2    0    0  0.45726284574E-01  0.18066557939E-01  0.39735166461E+01  0.39740221225E+01  0.40000000000E-01 0. -1.
</event>
<event>
 5   0  0.7212170E+07  0.9118800E+02  0.7818608E-02  0.1180000E+00
       11   -1    0    0    0    0  0.00000000000E+00  0.00000000000E+00  0.39999999673E+01  0.40000000000E+01  0.51109989000E-03 0.  1.
     -623   -1    0    0    0    0  0.00000000000E+00  0.00000000000E+00  0.12525980253E-10  0.17130000000E+03  0.17130000000E+03 0.  1.
       11    1    1    2    0    0  0.62567563704E-02  0.91993054929E-02  0.42337370042E+00  0.42352015968E+00  0.51109989000E-03 0.  1.
     -623    1    1    2    0    0  0.39566044925E-02 -0.23047140724E-01  0.41310878908E-03  0.17130000160E+03  0.17130000000E+03 0.  1.
      622    1    1    2    0    0 -0.10213360865E-01  0.13847835241E-01  0.35762131599E+01  0.35764782454E+01  0.40000000000E-01 0.  1.
</event>
<event>
 5   0  0.7212170E+07  0.9118800E+02  0.7818608E-02  0.1180000E+00
       11   -1    0    0    0    0  0.00000000000E+00  0.00000000000E+00  0.39999999673E+01  0.40000000000E+01  0.51109989000E-03 0. -1.
     -623   -1    0    0    0    0  0.00000000000E+00  0.00000000000E+00  0.12525980253E-10  0.17130000000E+03  0.17130000000E+03 0. -1.
       11    1    1    2    0    0 -0.14607036388E-02 -0.55273334838E-02  0.39367140070E-01  0.39783388631E-01  0.51109989000E-03 0. -1.
     -623    1    1    2    0    0 -0.41915919564E-02  0.10269010844E-02  0.62487691391E-03  0.17130000006E+03  0.17130000000E+03 0. -1.
      622    1    1    2    0    0  0.56522955958E-02  0.45004323992E-02  0.39600079510E+01  0.39602165565E+01  0.40000000000E-01 0. -1.
</event>
<event>
 5   0  0.7212170E+07  0.9118800E+02  0.7818608E-02  0.1180000E+00
       11   -1    0    0    0    0  0.00000000000E+00  0.00000000000E+00  0.39999999673E+01  0.40000000000E+01  0.51109989000E-03 0.  1.
     -623   -1    0    0    0    0  0.00000000000E+00  0.00000000000E+00  0.12525980253E-10  0.17130000000E+03  0.17130000000E+03 0.  1.
       11    1    1    2    0    0 -0.80937068290E-03 -0.40468847713E-02  0.11311688546E+00  0.11319330085E+00  0.51109989000E-03 0.  1.
     -623    1    1    2    0    0  0.46520024070E-02  0.35969564247E-02  0.28423948079E-03  0.17130000010E+03  0.17130000000E+03 0.  1.
      622    1    1    2    0    0 -0.38426317248E-02  0.44992834599E-03  0.38865988430E+01  0.38868065986E+01  0.40000000000E-01 0.  1.
</event>
<event>
 5   0  0.7212170E+07  0.9118800E+02  0.7818608E-02  0.1180000E+00
       11   -1    0    0    0    0  0.00000000000E+00  0.00000000000E+00  0.39999999673E+01  0.40000000000E+01  0.51109989000E-03 0. -1.
     -623   -1    0    0    0    0  0.00000000000E+00  0.00000000000E+00  0.12525980253E-10  0.17130000000E+03  0.17130000000E+03 0. -1.
       11    1    1    2    0    0  0.50539967584E-02 -0.66734368512E-03  0.24129751164E+00  0.24135189782E+00  0.51109989000E-03 0. -1.
     -623    1    1    2    0    0 -0.57950040825E-02 -0.70455376471E-02  0.27543225080E-03  0.17130000024E+03  0.17130000000E+03 0. -1.
      622    1    1    2    0    0  0.74100732414E-03  0.77128813323E-02  0.37584270235E+01  0.37586478591E+01  0.40000000000E-01 0. -1.
</event>
<event>
 5   0  0.7212170E+07  0.9118800E+02  0.7818608E-02  0.1180000E+00
       11   -1    0    0    0    0  0.00000000000E+00  0.00000000000E+00  0.39999999673E+01  0.40000000000E+01  0.51109989000E-03 0. -1.
     -623   -1    0    0    0    0  0.00000000000E+00  0.00000000000E+00  0.12525980253E-10  0.17130000000E+03  0.17130000000E+03 0. -1.
       11    1    1    2    0    0  0.13346139170E-02  0.12038544055E-02  0.23514467671E+00  0.23515210113E+00  0.51109989000E-03 0. -1.
     -623    1    1    2    0    0  0.25722179290E-02 -0.68381471329E-03  0.22197370606E-03  0.17130000002E+03  0.17130000000E+03 0. -1.
      622    1    1    2    0    0 -0.39068318462E-02 -0.52003969214E-03  0.37646333171E+01  0.37648478782E+01  0.40000000000E-01 0. -1.
</event>
<event>
 5   0  0.7212170E+07  0.9118800E+02  0.7818608E-02  0.1180000E+00
       11   -1    0    0    0    0  0.00000000000E+00  0.00000000000E+00  0.39999999673E+01  0.40000000000E+01  0.51109989000E-03 0.  1.
     -623   -1    0    0    0    0  0.00000000000E+00  0.00000000000E+00  0.12525980253E-10  0.17130000000E+03  0.17130000000E+03 0. -1.
       11    1    1    2    0    0  0.36831409800E-03 -0.54145351398E-03  0.11405822989E-01  0.11436032893E-01  0.51109989000E-03 0.  1.
     -623    1    1    2    0    0 -0.74683116615E-03  0.39973161611E-04  0.23080702553E-03  0.17130000000E+03  0.17130000000E+03 0. -1.
      622    1    1    2    0    0  0.37851706832E-03  0.50148035236E-03  0.39883633383E+01  0.39885639662E+01  0.40000000000E-01 0.  1.
</event>
<event>
 5   0  0.7212170E+07  0.9118800E+02  0.7818608E-02  0.1180000E+00
       11   -1    0    0    0    0  0.00000000000E+00  0.00000000000E+00  0.39999999673E+01  0.40000000000E+01  0.51109989000E-03 0. -1.
     -623   -1    0    0    0    0  0.00000000000E+00  0.00000000000E+00  0.12525980253E-10  0.17130000000E+03  0.17130000000E+03 0. -1.
       11    1    1    2    0    0 -0.90942023639E-02  0.13024749282E-01  0.12665732189E+01  0.12666729367E+01  0.51109989000E-03 0. -1.
     -623    1    1    2    0    0 -0.14426892143E-01 -0.42664371649E-01  0.66025402996E-03  0.17130000592E+03  0.17130000000E+03 0. -1.
      622    1    1    2    0    0  0.23521094510E-01  0.29639622376E-01  0.27327664953E+01  0.27333211423E+01  0.40000000000E-01 0.  0.
</event>
<event>
 5   0  0.7212170E+07  0.9118800E+02  0.7818608E-02  0.1180000E+00
       11   -1    0    0    0    0  0.00000000000E+00  0.00000000000E+00  0.39999999673E+01  0.40000000000E+01  0.51109989000E-03 0.  1.
     -623   -1    0    0    0    0  0.00000000000E+00  0.00000000000E+00  0.12525980253E-10  0.17130000000E+03  0.17130000000E+03 0. -1.
       11    1    1    2    0    0 -0.21422605957E-02 -0.72962539009E-03  0.11477338422E-01  0.11709489913E-01  0.51109989000E-03 0.  1.
     -623    1    1    2    0    0 -0.20837444580E-03 -0.13032589484E-02  0.43392759140E-03  0.17130000001E+03  0.17130000000E+03 0. -1.
      622    1    1    2    0    0  0.23506350415E-02  0.20328843386E-02  0.39880887016E+01  0.39882905047E+01  0.40000000000E-01 0.  1.
</event>
<event>
 5   0  0.7212170E+07  0.9118800E+02  0.7818608E-02  0.1180000E+00
       11   -1    0    0    0    0  0.00000000000E+00  0.00000000000E+00  0.39999999673E+01  0.40000000000E+01  0.51109989000E-03 0.  1.
     -623   -1    0    0    0    0  0.00000000000E+00  0.00000000000E+00  0.12525980253E-10  0.17130000000E+03  0.17130000000E+03 0. -1.
       11    1    1    2    0    0  0.38354938436E-03 -0.49164270654E-02  0.69023274924E-01  0.69201098760E-01  0.51109989000E-03 0.  1.
     -623    1    1    2    0    0  0.21802892457E-03  0.67570264635E-02  0.38192826119E-03  0.17130000013E+03  0.17130000000E+03 0. -1.
      622    1    1    2    0    0 -0.60157830898E-03 -0.18405993994E-02  0.39305947649E+01  0.39307987682E+01  0.40000000000E-01 0.  1.
</event>
<event>
 5   0  0.7212170E+07  0.9118800E+02  0.7818608E-02  0.1180000E+00
       11   -1    0    0    0    0  0.00000000000E+00  0.00000000000E+00  0.39999999673E+01  0.40000000000E+01  0.51109989000E-03 0.  1.
     -623   -1    0    0    0    0  0.00000000000E+00  0.00000000000E+00  0.12525980253E-10  0.17130000000E+03  0.17130000000E+03 0.  1.
       11    1    1    2    0    0 -0.49437690375E-02  0.47976278614E-02  0.39436149275E+00  0.39442199010E+00  0.51109989000E-03 0.  1.
     -623    1    1    2    0    0 -0.68361074516E-02 -0.90861715969E-02  0.30452265939E-03  0.17130000038E+03  0.17130000000E+03 0.  1.
      622    1    1    2    0    0  0.11779876490E-01  0.42885437362E-02  0.36053339523E+01  0.36055776326E+01  0.40000000000E-01 0.  1.
</event>
<event>
 5   0  0.7212170E+07  0.9118800E+02  0.7818608E-02  0.1180000E+00
       11   -1    0    0    0    0  0.00000000000E+00  0.00000000000E+00  0.39999999673E+01  0.40000000000E+01  0.51109989000E-03 0. -1.
     -623   -1    0    0    0    0  0.00000000000E+00  0.00000000000E+00  0.12525980253E-10  0.17130000000E+03  0.17130000000E+03 0.  1.
       11    1    1    2    0    0  0.25673543970E-02 -0.53292301744E-02  0.28739428977E+01  0.28739490309E+01  0.51109989000E-03 0. -1.
     -623    1    1    2    0    0 -0.74412087125E-03 -0.77181972493E-03  0.73479279181E-03  0.17130000000E+03  0.17130000000E+03 0.  1.
      622    1    1    2    0    0 -0.18232335258E-02  0.61010498993E-02  0.11253222768E+01  0.11260509640E+01  0.40000000000E-01 0.  1.
</event>
<event>
 5   0  0.7212170E+07  0.9118800E+02  0.7818608E-02  0.1180000E+00
       11   -1    0    0    0    0  0.00000000000E+00  0.00000000000E+00  0.39999999673E+01  0.40000000000E+01  0.51109989000E-03 0. -1.
     -623   -1    0    0    0    0  0.00000000000E+00  0.00000000000E+00  0.12525980253E-10  0.17130000000E+03  0.17130000000E+03 0. -1.
       11    1    1    2    0    0 -0.53151865033E-02  0.22197473349E-02  0.80555966435E-01  0.80763255489E-01  0.51109989000E-03 0. -1.
     -623    1    1    2    0    0  0.39405933240E-02  0.37786431063E-02  0.41630219487E-03  0.17130000009E+03  0.17130000000E+03 0. -1.
      622    1    1    2    0    0  0.13745931802E-02 -0.59983904404E-02  0.39190276979E+01  0.39192366561E+01  0.40000000000E-01 0. -1.
</event>
<event>
 5   0  0.7212170E+07  0.9118800E+02  0.7818608E-02  0.1180000E+00
       11   -1    0    0    0    0  0.00000000000E+00  0.00000000000E+00  0.39999999673E+01  0.40000000000E+01  0.51109989000E-03 0.  1.
     -623   -1    0    0    0    0  0.00000000000E+00  0.00000000000E+00  0.12525980253E-10  0.17130000000E+03  0.17130000000E+03 0. -1.
       11    1    1    2    0    0  0.23389733428E-01  0.45366251343E-01  0.11666408455E+01  0.11677569525E+01  0.51109989000E-03 0.  1.
     -623    1    1    2    0    0 -0.50285791528E-01 -0.13461315269E-01  0.17139278917E-02  0.17130000792E+03  0.17130000000E+03 0. -1.
      622    1    1    2    0    0  0.26896058101E-01 -0.31904936074E-01  0.28316451940E+01  0.28322351293E+01  0.40000000000E-01 0.  1.
</event>
<event>
 5   0  0.7212170E+07  0.9118800E+02  0.7818608E-02  0.1180000E+00
       11   -1    0    0    0    0  0.00000000000E+00  0.00000000000E+00  0.39999999673E+01  0.40000000000E+01  0.51109989000E-03 0.  1.
     -623   -1    0    0    0    0  0.00000000000E+00  0.00000000000E+00  0.12525980253E-10  0.17130000000E+03  0.17130000000E+03 0.  1.
       11    1    1    2    0    0 -0.28223294375E-03 -0.54988424267E-02  0.14129168097E+00  0.14139984886E+00  0.51109989000E-03 0.  1.
     -623    1    1    2    0    0 -0.11085080887E-02 -0.36502883007E-03  0.32018068640E-03  0.17130000000E+03  0.17130000000E+03 0.  1.
      622    1    1    2    0    0  0.13907410325E-02  0.58638712568E-02  0.38583881058E+01  0.38586001469E+01  0.40000000000E-01 0.  1.
</event>
<event>
 5   0  0.7212170E+07  0.9118800E+02  0.7818608E-02  0.1180000E+00
       11   -1    0    0    0    0  0.00000000000E+00  0.00000000000E+00  0.39999999673E+01  0.40000000000E+01  0.51109989000E-03 0. -1.
     -623   -1    0    0    0    0  0.00000000000E+00  0.00000000000E+00  0.12525980253E-10  0.17130000000E+03  0.17130000000E+03 0. -1.
       11    1    1    2    0    0 -0.61963811386E-02  0.16486614599E-01  0.41043379274E-01  0.44665689354E-01  0.51109989000E-03 0. -1.
     -623    1    1    2    0    0 -0.63976976318E-03 -0.25584322195E-01  0.38428674077E-02  0.17130000195E+03  0.17130000000E+03 0. -1.
      622    1    1    2    0    0  0.68361509018E-02  0.90977075956E-02  0.39551137207E+01  0.39553323558E+01  0.40000000000E-01 0. -1.
</event>
<event>
 5   0  0.7212170E+07  0.9118800E+02  0.7818608E-02  0.1180000E+00
       11   -1    0    0    0    0  0.00000000000E+00  0.00000000000E+00  0.39999999673E+01  0.40000000000E+01  0.51109989000E-03 0.  1.
     -623   -1    0    0    0    0  0.00000000000E+00  0.00000000000E+00  0.12525980253E-10  0.17130000000E+03  0.17130000000E+03 0.  1.
       11    1    1    2    0    0 -0.21180237688E-02 -0.23792454772E-03  0.99506550902E-01  0.99530686365E-01  0.51109989000E-03 0.  1.
     -623    1    1    2    0    0  0.12977222510E-02 -0.72361681513E-03  0.22942312546E-03  0.17130000001E+03  0.17130000000E+03 0.  1.
      622    1    1    2    0    0  0.82030151751E-03  0.96154136303E-03  0.39002639943E+01  0.39004693081E+01  0.40000000000E-01 0.  1.
</event>
<event>
 5   0  0.7212170E+07  0.9118800E+02  0.7818608E-02  0.1180000E+00
       11   -1    0    0    0    0  0.00000000000E+00  0.00000000000E+00  0.39999999673E+01  0.40000000000E+01  0.51109989000E-03 0.  1.
     -623   -1    0    0    0    0  0.00000000000E+00  0.00000000000E+00  0.12525980253E-10  0.17130000000E+03  0.17130000000E+03 0.  1.
       11    1    1    2    0    0 -0.30637668037E-01  0.59486780637E-02  0.97556981286E+00  0.97606904185E+00  0.51109989000E-03 0.  1.
     -623    1    1    2    0    0 -0.59811323753E-02  0.24004849402E-01  0.11356827556E-02  0.17130000179E+03  0.17130000000E+03 0.  1.
      622    1    1    2    0    0  0.36618800413E-01 -0.29953527466E-01  0.30232944719E+01  0.30239291681E+01  0.40000000000E-01 0.  0.
</event>
<event>
 5   0  0.7212170E+07  0.9118800E+02  0.7818608E-02  0.1180000E+00
       11   -1    0    0    0    0  0.00000000000E+00  0.00000000000E+00  0.39999999673E+01  0.40000000000E+01  0.51109989000E-03 0. -1.
     -623   -1    0    0    0    0  0.00000000000E+00  0.00000000000E+00  0.12525980253E-10  0.17130000000E+03  0.17130000000E+03 0.  1.
       11    1    1    2    0    0 -0.37346337053E-03  0.31301328263E-02  0.37054134897E+00  0.37055511024E+00  0.51109989000E-03 0. -1.
     -623    1    1    2    0    0 -0.84067379036E-04 -0.36986834983E-03  0.23523381011E-03  0.17130000000E+03  0.17130000000E+03 0.  1.
      622    1    1    2    0    0  0.45753074958E-03 -0.27602644764E-02  0.36292233856E+01  0.36294448902E+01  0.40000000000E-01 0. -1.
</event>
<event>
 5   0  0.7212170E+07  0.9118800E+02  0.7818608E-02  0.1180000E+00
       11   -1    0    0    0    0  0.00000000000E+00  0.00000000000E+00  0.39999999673E+01  0.40000000000E+01  0.51109989000E-03 0.  1.
     -623   -1    0    0    0    0  0.00000000000E+00  0.00000000000E+00  0.12525980253E-10  0.17130000000E+03  0.17130000000E+03 0. -1.
       11    1    1    2    0    0 -0.16951183208E-02  0.15665137282E-01  0.17476396794E+01  0.17477107828E+01  0.51109989000E-03 0.  1.
     -623    1    1    2    0    0 -0.17713030339E-02  0.47911050518E-02  0.52195062231E-03  0.17130000008E+03  0.17130000000E+03 0. -1.
      622    1    1    2    0    0  0.34664213546E-02 -0.20456242334E-01  0.22518383372E+01  0.22522891401E+01  0.40000000000E-01 0.  0.
</event>
<event>
 5   0  0.7212170E+07  0.9118800E+02  0.7818608E-02  0.1180000E+00
       11   -1    0    0    0    0  0.00000000000E+00  0.00000000000E+00  0.39999999673E+01  0.40000000000E+01  0.51109989000E-03 0. -1.
     -623   -1    0    0    0    0  0.00000000000E+00  0.00000000000E+00  0.12525980253E-10  0.17130000000E+03  0.17130000000E+03 0. -1.
       11    1    1    2    0    0 -0.95097422964E-02  0.40899205003E-02  0.19739109182E+00  0.19766301374E+00  0.51109989000E-03 0. -1.
     -623    1    1    2    0    0 -0.85670777870E-03 -0.10411070753E-02  0.49765245938E-03  0.17130000001E+03  0.17130000000E+03 0. -1.
      622    1    1    2    0    0  0.10366450075E-01 -0.30488134248E-02  0.38021112239E+01  0.38023369810E+01  0.40000000000E-01 0. -1.
</event>
<event>
 5   0  0.7212170E+07  0.9118800E+02  0.7818608E-02  0.1180000E+00
       11   -1    0    0    0    0  0.00000000000E+00  0.00000000000E+00  0.39999999673E+01  0.40000000000E+01  0.51109989000E-03 0. -1.
     -623   -1    0    0    0    0  0.00000000000E+00  0.00000000000E+00  0.12525980253E-10  0.17130000000E+03  0.17130000000E+03 0.  1.
       11    1    1    2    0    0 -0.11456108898E-02  0.35690230951E-03  0.86373678261E-02  0.87352818861E-02  0.51109989000E-03 0. -1.
     -623    1    1    2    0    0  0.16592277189E-02 -0.54868424714E-03  0.29837100491E-03  0.17130000001E+03  0.17130000000E+03 0.  1.
      622    1    1    2    0    0 -0.51361682871E-03  0.19178193748E-03  0.39910642275E+01  0.39912647079E+01  0.40000000000E-01 0. -1.
</event>
<event>
 5   0  0.7212170E+07  0.9118800E+02  0.7818608E-02  0.1180000E+00
       11   -1    0    0    0    0  0.00000000000E+00  0.00000000000E+00  0.39999999673E+01  0.40000000000E+01  0.51109989000E-03 0.  1.
     -623   -1    0    0    0    0  0.00000000000E+00  0.00000000000E+00  0.12525980253E-10  0.17130000000E+03  0.17130000000E+03 0. -1.
       11    1    1    2    0    0 -0.37586990917E-05  0.39853016449E-03  0.93937952347E-03  0.11412700848E-02  0.51109989000E-03 0.  1.
     -623    1    1    2    0    0  0.14485635845E-03 -0.65070285175E-03  0.40193221521E-03  0.17130000000E+03  0.17130000000E+03 0. -1.
      622    1    1    2    0    0 -0.14109765937E-03  0.25217268732E-03  0.39986586560E+01  0.39988587285E+01  0.40000000000E-01 0.  1.
</event>
<event>
 5   0  0.7212170E+07  0.9118800E+02  0.7818608E-02  0.1180000E+00
       11   -1    0    0    0    0  0.00000000000E+00  0.00000000000E+00  0.39999999673E+01  0.40000000000E+01  0.51109989000E-03 0. -1.
     -623   -1    0    0    0    0  0.00000000000E+00  0.00000000000E+00  0.12525980253E-10  0.17130000000E+03  0.17130000000E+03 0. -1.
       11    1    1    2    0    0 -0.22481084537E-02 -0.51530752427E-02  0.13138045953E+01  0.13138167240E+01  0.51109989000E-03 0. -1.
     -623    1    1    2    0    0  0.43672758480E-02 -0.18316784117E-02  0.31991668663E-03  0.17130000007E+03  0.17130000000E+03 0. -1.
      622    1    1    2    0    0 -0.21191673936E-02  0.69847536542E-02  0.26858754547E+01  0.26861832097E+01  0.40000000000E-01 0. -1.
</event>
<event>
 5   0  0.7212170E+07  0.9118800E+02  0.7818608E-02  0.1180000E+00
       11   -1    0    0    0    0  0.00000000000E+00  0.00000000000E+00  0.39999999673E+01  0.40000000000E+01  0.51109989000E-03 0.  1.
     -623   -1    0    0    0    0  0.00000000000E+00  0.00000000000E+00  0.12525980253E-10  0.17130000000E+03  0.17130000000E+03 0. -1.
       11    1    1    2    0    0  0.34414552335E-03  0.94285238923E-03  0.68007616461E-02  0.68934018331E-02  0.51109989000E-03 0.  1.
     -623    1    1    2    0    0 -0.38765159271E-03 -0.68826392886E-03  0.29296826340E-03  0.17130000000E+03  0.17130000000E+03 0. -1.
      622    1    1    2    0    0  0.43506069451E-04 -0.25458846019E-03  0.39929062385E+01  0.39931065971E+01  0.40000000000E-01 0.  1.
</event>
<event>
 5   0  0.7212170E+07  0.9118800E+02  0.7818608E-02  0.1180000E+00
       11   -1    0    0    0    0  0.00000000000E+00  0.00000000000E+00  0.39999999673E+01  0.40000000000E+01  0.51109989000E-03 0.  1.
     -623   -1    0    0    0    0  0.00000000000E+00  0.00000000000E+00  0.12525980253E-10  0.17130000000E+03  0.17130000000E+03 0.  1.
       11    1    1    2    0    0  0.32826890861E-01  0.12619786979E-01  0.94353557256E-01  0.10069617062E+00  0.51109989000E-03 0.  1.
     -623    1    1    2    0    0 -0.23296653720E-01  0.91852260051E-02  0.66223274881E-02  0.17130000196E+03  0.17130000000E+03 0.  1.
      622    1    1    2    0    0 -0.95302371400E-02 -0.21805012984E-01  0.38990240827E+01  0.38993018710E+01  0.40000000000E-01 0.  1.
</event>
<event>
 5   0  0.7212170E+07  0.9118800E+02  0.7818608E-02  0.1180000E+00
       11   -1    0    0    0    0  0.00000000000E+00  0.00000000000E+00  0.39999999673E+01  0.40000000000E+01  0.51109989000E-03 0.  1.
     -623   -1    0    0    0    0  0.00000000000E+00  0.00000000000E+00  0.12525980253E-10  0.17130000000E+03  0.17130000000E+03 0. -1.
       11    1    1    2    0    0  0.70116433370E-03 -0.20934404925E-02  0.34307325749E-01  0.34382087599E-01  0.51109989000E-03 0.  1.
     -623    1    1    2    0    0 -0.87105373998E-03  0.21682905608E-02  0.27648885751E-03  0.17130000002E+03  0.17130000000E+03 0. -1.
      622    1    1    2    0    0  0.16988940651E-03 -0.74850068977E-04  0.39654161538E+01  0.39656178973E+01  0.40000000000E-01 0.  1.
</event>
<event>
 5   0  0.7212170E+07  0.9118800E+02  0.7818608E-02  0.1180000E+00
       11   -1    0    0    0    0  0.00000000000E+00  0.00000000000E+00  0.39999999673E+01  0.40000000000E+01  0.51109989000E-03 0. -1.
     -623   -1    0    0    0    0  0.00000000000E+00  0.00000000000E+00  0.12525980253E-10  0.17130000000E+03  0.17130000000E+03 0. -1.
       11    1    1    2    0    0  0.27265340555E-03  0.20952078449E-02  0.19410938586E+00  0.19412155763E+00  0.51109989000E-03 0. -1.
     -623    1    1    2    0    0 -0.16431406104E-02 -0.86228812686E-03  0.22280275961E-03  0.17130000001E+03  0.17130000000E+03 0. -1.
      622    1    1    2    0    0  0.13704872058E-02 -0.12329197175E-02  0.38056677811E+01  0.38058784345E+01  0.40000000000E-01 0. -1.
</event>
<event>
 5   0  0.7212170E+07  0.9118800E+02  0.7818608E-02  0.1180000E+00
       11   -1    0    0    0    0  0.00000000000E+00  0.00000000000E+00  0.39999999673E+01  0.40000000000E+01  0.51109989000E-03 0. -1.
     -623   -1    0    0    0    0  0.00000000000E+00  0.00000000000E+00  0.12525980253E-10  0.17130000000E+03  0.17130000000E+03 0. -1.
       11    1    1    2    0    0  0.87973779496E-04 -0.16249954385E-02  0.32534728293E-01  0.32579412484E-01  0.51109989000E-03 0. -1.
     -623    1    1    2    0    0 -0.76307793296E-03  0.45241851879E-03  0.24653222526E-03  0.17130000000E+03  0.17130000000E+03 0. -1.
      622    1    1    2    0    0  0.67510415337E-03  0.11725769197E-02  0.39672187063E+01  0.39674205845E+01  0.40000000000E-01 0. -1.
</event>
<event>
 5   0  0.7212170E+07  0.9118800E+02  0.7818608E-02  0.1180000E+00
       11   -1    0    0    0    0  0.00000000000E+00  0.00000000000E+00  0.39999999673E+01  0.40000000000E+01  0.51109989000E-03 0.  1.
     -623   -1    0    0    0    0  0.00000000000E+00  0.00000000000E+00  0.12525980253E-10  0.17130000000E+03  0.17130000000E+03 0. -1.
       11    1    1    2    0    0  0.12650453113E-02 -0.64765143108E-02  0.57836450420E+00  0.57840237423E+00  0.51109989000E-03 0.  1.
     -623    1    1    2    0    0 -0.16030791572E-02  0.12832278744E-02  0.27562496389E-03  0.17130000001E+03  0.17130000000E+03 0. -1.
      622    1    1    2    0    0  0.33803384582E-03  0.51932864365E-02  0.34213598379E+01  0.34215976130E+01  0.40000000000E-01 0.  1.
</event>
<event>
 5   0  0.7212170E+07  0.9118800E+02  0.7818608E-02  0.1180000E+00
       11   -1    0    0    0    0  0.00000000000E+00  0.00000000000E+00  0.39999999673E+01  0.40000000000E+01  0.51109989000E-03 0. -1.
     -623   -1    0    0    0    0  0.00000000000E+00  0.00000000000E+00  0.12525980253E-10  0.17130000000E+03  0.17130000000E+03 0. -1.
       11    1    1    2    0    0  0.67306595494E-03 -0.18717432133E-02  0.28067646836E-01  0.28142680442E-01  0.51109989000E-03 0. -1.
     -623    1    1    2    0    0  0.47795351956E-03  0.23050575561E-03  0.27693012106E-03  0.17130000000E+03  0.17130000000E+03 0. -1.
      622    1    1    2    0    0 -0.11510194745E-02  0.16412374577E-02  0.39716553906E+01  0.39718573187E+01  0.40000000000E-01 0. -1.
</event>
<event>
 5   0  0.7212170E+07  0.9118800E+02  0.7818608E-02  0.1180000E+00
       11   -1    0    0    0    0  0.00000000000E+00  0.00000000000E+00  0.39999999673E+01  0.40000000000E+01  0.51109989000E-03 0.  1.
     -623   -1    0    0    0    0  0.00000000000E+00  0.00000000000E+00  0.12525980253E-10  0.17130000000E+03  0.17130000000E+03 0.  1.
       11    1    1    2    0    0 -0.30425338874E-01  0.77517396233E-02  0.13953673124E+01  0.13957205983E+01  0.51109989000E-03 0.  1.
     -623    1    1    2    0    0 -0.26656456038E-02 -0.16315239429E-02  0.87794843729E-03  0.17130000003E+03  0.17130000000E+03 0.  1.
      622    1    1    2    0    0  0.33090984478E-01 -0.61202156804E-02  0.26037547065E+01  0.26042793709E+01  0.40000000000E-01 0.  1.
</event>
<event>
 5   0  0.7212170E+07  0.9118800E+02  0.7818608E-02  0.1180000E+00
       11   -1    0    0    0    0  0.00000000000E+00  0.00000000000E+00  0.39999999673E+01  0.40000000000E+01  0.51109989000E-03 0. -1.
     -623   -1    0    0    0    0  0.00000000000E+00  0.00000000000E+00  0.12525980253E-10  0.17130000000E+03  0.17130000000E+03 0.  1.
       11    1    1    2    0    0  0.78139560198E-03 -0.66246125153E-03  0.18099029351E-02  0.21415895332E-02  0.51109989000E-03 0. -1.
     -623    1    1    2    0    0 -0.55930041399E-03  0.13064303327E-03  0.53180943549E-03  0.17130000000E+03  0.17130000000E+03 0.  1.
      622    1    1    2    0    0 -0.22209518798E-03  0.53181821826E-03  0.39976582551E+01  0.39978584088E+01  0.40000000000E-01 0. -1.
</event>
<event>
 5   0  0.7212170E+07  0.9118800E+02  0.7818608E-02  0.1180000E+00
       11   -1    0    0    0    0  0.00000000000E+00  0.00000000000E+00  0.39999999673E+01  0.40000000000E+01  0.51109989000E-03 0. -1.
     -623   -1    0    0    0    0  0.00000000000E+00  0.00000000000E+00  0.12525980253E-10  0.17130000000E+03  0.17130000000E+03 0.  1.
       11    1    1    2    0    0  0.72298877157E-03 -0.30704356132E-02  0.44336541803E-01  0.44451551714E-01  0.51109989000E-03 0. -1.
     -623    1    1    2    0    0  0.21782001364E-03  0.25938774488E-02  0.31739066625E-03  0.17130000002E+03  0.17130000000E+03 0.  1.
      622    1    1    2    0    0 -0.94080878518E-03  0.47655816468E-03  0.39553460345E+01  0.39555484278E+01  0.40000000000E-01 0. -1.
</event>
<event>
 5   0  0.7212170E+07  0.9118800E+02  0.7818608E-02  0.1180000E+00
       11   -1    0    0    0    0  0.00000000000E+00  0.00000000000E+00  0.39999999673E+01  0.40000000000E+01  0.51109989000E-03 0.  1.
     -623   -1    0    0    0    0  0.00000000000E+00  0.00000000000E+00  0.12525980253E-10  0.17130000000E+03  0.17130000000E+03 0. -1.
       11    1    1    2    0    0  0.29305607295E-02  0.40458036775E-03  0.13598447554E+00  0.13601761166E+00  0.51109989000E-03 0.  1.
     -623    1    1    2    0    0  0.21266836223E-03 -0.15387562107E-03  0.24143634401E-03  0.17130000000E+03  0.17130000000E+03 0. -1.
      622    1    1    2    0    0 -0.31432290917E-02 -0.25070474670E-03  0.38637740549E+01  0.38639823874E+01  0.40000000000E-01 0.  1.
</event>
<event>
 5   0  0.7212170E+07  0.9118800E+02  0.7818608E-02  0.1180000E+00
       11   -1    0    0    0    0  0.00000000000E+00  0.00000000000E+00  0.39999999673E+01  0.40000000000E+01  0.51109989000E-03 0.  1.
     -623   -1    0    0    0    0  0.00000000000E+00  0.00000000000E+00  0.12525980253E-10  0.17130000000E+03  0.17130000000E+03 0.  1.
       11    1    1    2    0    0 -0.24864138762E-02 -0.44802366612E-03  0.29633561503E-02  0.39275541932E-02  0.51109989000E-03 0.  1.
     -623    1    1    2    0    0 -0.16461982221E-02 -0.58565735352E-02  0.11715896736E-02  0.17130000011E+03  0.17130000000E+03 0.  1.
      622    1    1    2    0    0  0.41326120983E-02  0.63045972011E-02  0.39958650214E+01  0.39960723336E+01  0.40000000000E-01 0.  1.
</event>
<event>
 5   0  0.7212170E+07  0.9118800E+02  0.7818608E-02  0.1180000E+00
       11   -1    0    0    0    0  0.00000000000E+00  0.00000000000E+00  0.39999999673E+01  0.40000000000E+01  0.51109989000E-03 0.  1.
     -623   -1    0    0    0    0  0.00000000000E+00  0.00000000000E+00  0.12525980253E-10  0.17130000000E+03  0.17130000000E+03 0. -1.
       11    1    1    2    0    0 -0.25569243123E-03 -0.16900854895E-02  0.10316884228E-01  0.10470009114E-01  0.51109989000E-03 0.  1.
     -623    1    1    2    0    0 -0.12015447595E-02  0.51011757133E-03  0.35406815853E-03  0.17130000001E+03  0.17130000000E+03 0. -1.
      622    1    1    2    0    0  0.14572371907E-02  0.11799679182E-02  0.39893290149E+01  0.39895299854E+01  0.40000000000E-01 0.  1.
</event>
<event>
 5   0  0.7212170E+07  0.9118800E+02  0.7818608E-02  0.1180000E+00
       11   -1    0    0    0    0  0.00000000000E+00  0.00000000000E+00  0.39999999673E+01  0.40000000000E+01  0.51109989000E-03 0.  1.
     -623   -1    0    0    0    0  0.00000000000E+00  0.00000000000E+00  0.12525980253E-10  0.17130000000E+03  0.17130000000E+03 0. -1.
       11    1    1    2    0    0  0.60830426318E-02  0.40735548806E-01  0.11647717146E+01  0.11654998056E+01  0.51109989000E-03 0.  1.
     -623    1    1    2    0    0  0.31152872479E-03 -0.35419400039E-02  0.12616224308E-02  0.17130000004E+03  0.17130000000E+03 0. -1.
      622    1    1    2    0    0 -0.63945713566E-02 -0.37193608802E-01  0.28339666302E+01  0.28345001528E+01  0.40000000000E-01 0.  1.
</event>
<event>
 5   0  0.7212170E+07  0.9118800E+02  0.7818608E-02  0.1180000E+00
       11   -1    0    0    0    0  0.00000000000E+00  0.00000000000E+00  0.39999999673E+01  0.40000000000E+01  0.51109989000E-03 0. -1.
     -623   -1    0    0    0    0  0.00000000000E+00  0.00000000000E+00  0.12525980253E-10  0.17130000000E+03  0.17130000000E+03 0.  1.
       11    1    1    2    0    0 -0.66612618095E-02 -0.14676727272E-02  0.47843454815E+00  0.47848344230E+00  0.51109989000E-03 0. -1.
     -623    1    1    2    0    0 -0.13228932299E-02 -0.50768380616E-02  0.29125760315E-03  0.17130000008E+03  0.17130000000E+03 0.  1.
      622    1    1    2    0    0  0.79841550396E-02  0.65445107896E-02  0.35212741623E+01  0.35215164778E+01  0.40000000000E-01 0. -1.
</event>
<event>
 5   0  0.7212170E+07  0.9118800E+02  0.7818608E-02  0.1180000E+00
       11   -1    0    0    0    0  0.00000000000E+00  0.00000000000E+00  0.39999999673E+01  0.40000000000E+01  0.51109989000E-03 0.  1.
     -623   -1    0    0    0    0  0.00000000000E+00  0.00000000000E+00  0.12525980253E-10  0.17130000000E+03  0.17130000000E+03 0. -1.
       11    1    1    2    0    0  0.28817584595E-01 -0.75199345664E-02  0.13329617025E+01  0.13332944776E+01  0.51109989000E-03 0.  1.
     -623    1    1    2    0    0 -0.66388333876E-02  0.29132790459E-02  0.72913085279E-03  0.17130000015E+03  0.17130000000E+03 0. -1.
      622    1    1    2    0    0 -0.22178751206E-01  0.46066555201E-02  0.26663091346E+01  0.26667053680E+01  0.40000000000E-01 0.  0.
</event>
<event>
 5   0  0.7212170E+07  0.9118800E+02  0.7818608E-02  0.1180000E+00
       11   -1    0    0    0    0  0.00000000000E+00  0.00000000000E+00  0.39999999673E+01  0.40000000000E+01  0.51109989000E-03 0.  1.
     -623   -1    0    0    0    0  0.00000000000E+00  0.00000000000E+00  0.12525980253E-10  0.17130000000E+03  0.17130000000E+03 0. -1.
       11    1    1    2    0    0 -0.13812355605E-01  0.55898544194E-02  0.29668424098E+00  0.29705862672E+00  0.51109989000E-03 0.  1.
     -623    1    1    2    0    0  0.84848341537E-03  0.25857705620E-02  0.62214701636E-03  0.17130000002E+03  0.17130000000E+03 0. -1.
      622    1    1    2    0    0  0.12963872189E-01 -0.81756249815E-02  0.37026935794E+01  0.37029413506E+01  0.40000000000E-01 0.  1.
</event>
<event>
 5   0  0.7212170E+07  0.9118800E+02  0.7818608E-02  0.1180000E+00
       11   -1    0    0    0    0  0.00000000000E+00  0.00000000000E+00  0.39999999673E+01  0.40000000000E+01  0.51109989000E-03 0.  1.
     -623   -1    0    0    0    0  0.00000000000E+00  0.00000000000E+00  0.12525980253E-10  0.17130000000E+03  0.17130000000E+03 0. -1.
       11    1    1    2    0    0  0.65717360786E-03  0.11693982099E-02  0.21505257915E-02  0.25856050745E-02  0.51109989000E-03 0.  1.
     -623    1    1    2    0    0  0.62710175331E-03 -0.10444100578E-02  0.63539479537E-03  0.17130000001E+03  0.17130000000E+03 0. -1.
      622    1    1    2    0    0 -0.12842753612E-02 -0.12498815199E-03  0.39972140470E+01  0.39974143897E+01  0.40000000000E-01 0.  1.
</event>
<event>
 5   0  0.7212170E+07  0.9118800E+02  0.7818608E-02  0.1180000E+00
       11   -1    0    0    0    0  0.00000000000E+00  0.00000000000E+00  0.39999999673E+01  0.40000000000E+01  0.51109989000E-03 0. -1.
     -623   -1    0    0    0    0  0.00000000000E+00  0.00000000000E+00  0.12525980253E-10  0.17130000000E+03  0.17130000000E+03 0. -1.
       11    1    1    2    0    0  0.16746056847E-02 -0.37414468983E-02  0.22026624750E-01  0.22410625829E-01  0.51109989000E-03 0. -1.
     -623    1    1    2    0    0  0.44936961637E-02  0.26080578974E-02  0.59012470390E-03  0.17130000008E+03  0.17130000000E+03 0. -1.
      622    1    1    2    0    0 -0.61683018491E-02  0.11333890005E-02  0.39773832185E+01  0.39775892950E+01  0.40000000000E-01 0. -1.
</event>
<event>
 5   0  0.7212170E+07  0.9118800E+02  0.7818608E-02  0.1180000E+00
       11   -1    0    0    0    0  0.00000000000E+00  0.00000000000E+00  0.39999999673E+01  0.40000000000E+01  0.51109989000E-03 0. -1.
     -623   -1    0    0    0    0  0.00000000000E+00  0.00000000000E+00  0.12525980253E-10  0.17130000000E+03  0.17130000000E+03 0.  1.
       11    1    1    2    0    0  0.36660279262E-02 -0.17458297759E-01  0.75507603506E+00  0.75528690698E+00  0.51109989000E-03 0. -1.
     -623    1    1    2    0    0  0.18273317914E-02 -0.90284188359E-03  0.51402234309E-03  0.17130000001E+03  0.17130000000E+03 0.  1.
      622    1    1    2    0    0 -0.54933597181E-02  0.18361139643E-01  0.32444099109E+01  0.32447130811E+01  0.40000000000E-01 0.  0.
</event>
<event>
 5   0  0.7212170E+07  0.9118800E+02  0.7818608E-02  0.1180000E+00
       11   -1    0    0    0    0  0.00000000000E+00  0.00000000000E+00  0.39999999673E+01  0.40000000000E+01  0.51109989000E-03 0.  1.
     -623   -1    0    0    0    0  0.00000000000E+00  0.00000000000E+00  0.12525980253E-10  0.17130000000E+03  0.17130000000E+03 0.  1.
       11    1    1    2    0    0 -0.13557568646E-03  0.17490619310E-03  0.91905511073E-03  0.10746433535E-02  0.51109989000E-03 0. -1.
     -623    1    1    2    0    0 -0.49999938626E-04 -0.14703362626E-03  0.35561919624E-03  0.17130000000E+03  0.17130000000E+03 0.  1.
      622    1    1    2    0    0  0.18557562511E-03 -0.27872566789E-04  0.39987252943E+01  0.39989253575E+01  0.40000000000E-01 0.  1.
</event>
<event>
 5   0  0.7212170E+07  0.9118800E+02  0.7818608E-02  0.1180000E+00
       11   -1    0    0    0    0  0.00000000000E+00  0.00000000000E+00  0.39999999673E+01  0.40000000000E+01  0.51109989000E-03 0. -1.
     -623   -1    0    0    0    0  0.00000000000E+00  0.00000000000E+00  0.12525980253E-10  0.17130000000E+03  0.17130000000E+03 0. -1.
       11    1    1    2    0    0  0.43940091149E-02  0.17082130921E-02  0.71795203182E-01  0.71951634666E-01  0.51109989000E-03 0. -1.
     -623    1    1    2    0    0 -0.51993278780E-02  0.79649337339E-03  0.36102990271E-03  0.17130000008E+03  0.17130000000E+03 0. -1.
      622    1    1    2    0    0  0.80531876275E-03 -0.25047064654E-02  0.39278437340E+01  0.39280482839E+01  0.40000000000E-01 0. -1.
</event>
<event>
 5   0  0.7212170E+07  0.9118800E+02  0.7818608E-02  0.1180000E+00
       11   -1    0    0    0    0  0.00000000000E+00  0.00000000000E+00  0.39999999673E+01  0.40000000000E+01  0.51109989000E-03 0.  1.
     -623   -1    0    0    0    0  0.00000000000E+00  0.00000000000E+00  0.12525980253E-10  0.17130000000E+03  0.17130000000E+03 0.  1.
       11    1    1    2    0    0 -0.48763238394E-04  0.30539346064E-04  0.74613696309E-03  0.90623063859E-03  0.51109989000E-03 0. -1.
     -623    1    1    2    0    0 -0.22981306166E-02 -0.60459888057E-03  0.36085810812E-03  0.17130000002E+03  0.17130000000E+03 0.  1.
      622    1    1    2    0    0  0.23468938553E-02  0.57405953460E-03  0.39988929729E+01  0.39990937531E+01  0.40000000000E-01 0.  1.
</event>
<event>
 5   0  0.7212170E+07  0.9118800E+02  0.7818608E-02  0.1180000E+00
       11   -1    0    0    0    0  0.00000000000E+00  0.00000000000E+00  0.39999999673E+01  0.40000000000E+01  0.51109989000E-03 0. -1.
     -623   -1    0    0    0    0  0.00000000000E+00  0.00000000000E+00  0.12525980253E-10  0.17130000000E+03  0.17130000000E+03 0.  1.
       11    1    1    2    0    0  0.73301802831E-02  0.32410533783E-02  0.32797486118E-01  0.33766437312E-01  0.51109989000E-03 0. -1.
     -623    1    1    2    0    0 -0.10312577874E-01 -0.44182663439E-02  0.11722938780E-02  0.17130000037E+03  0.17130000000E+03 0.  1.
      622    1    1    2    0    0  0.29823975921E-02  0.11772129660E-02  0.39660301877E+01  0.39662331916E+01  0.40000000000E-01 0. -1.
</event>
<event>
 5   0  0.7212170E+07  0.9118800E+02  0.7818608E-02  0.1180000E+00
       11   -1    0    0    0    0  0.00000000000E+00  0.00000000000E+00  0.39999999673E+01  0.40000000000E+01  0.51109989000E-03 0.  1.
     -623   -1    0    0    0    0  0.00000000000E+00  0.00000000000E+00  0.12525980253E-10  0.17130000000E+03  0.17130000000E+03 0. -1.
       11    1    1    2    0    0 -0.25434441037E-02 -0.24998091585E-02  0.24776375114E+00  0.24778994281E+00  0.51109989000E-03 0.  1.
     -623    1    1    2    0    0 -0.29781696399E-02 -0.18512655521E-03  0.24442253620E-03  0.17130000003E+03  0.17130000000E+03 0. -1.
      622    1    1    2    0    0  0.55216137432E-02  0.26849357137E-02  0.37519917932E+01  0.37522100305E+01  0.40000000000E-01 0.  1.
</event>
<event>
 5   0  0.7212170E+07  0.9118800E+02  0.7818608E-02  0.1180000E+00
       11   -1    0    0    0    0  0.00000000000E+00  0.00000000000E+00  0.39999999673E+01  0.40000000000E+01  0.51109989000E-03 0.  1.
     -623   -1    0    0    0    0  0.00000000000E+00  0.00000000000E+00  0.12525980253E-10  0.17130000000E+03  0.17130000000E+03 0. -1.
       11    1    1    2    0    0 -0.25173336276E-03  0.25039502014E-03  0.11181137691E-02  0.12796362179E-02  0.51109989000E-03 0. -1.
     -623    1    1    2    0    0 -0.23875739714E-03  0.26378983741E-03  0.36162271140E-03  0.17130000000E+03  0.17130000000E+03 0. -1.
      622    1    1    2    0    0  0.49049075997E-03 -0.51418485763E-03  0.39985202320E+01  0.39987203642E+01  0.40000000000E-01 0.  1.
</event>
<event>
 5   0  0.7212170E+07  0.9118800E+02  0.7818608E-02  0.1180000E+00
       11   -1    0    0    0    0  0.00000000000E+00  0.00000000000E+00  0.39999999673E+01  0.40000000000E+01  0.51109989000E-03 0. -1.
     -623   -1    0    0    0    0  0.00000000000E+00  0.00000000000E+00  0.12525980253E-10  0.17130000000E+03  0.17130000000E+03 0.  1.
       11    1    1    2    0    0  0.73652817996E-02  0.30619661033E-01  0.13170972556E+01  0.13174738149E+01  0.51109989000E-03 0. -1.
     -623    1    1    2    0    0  0.51792769628E-02 -0.87209140030E-02  0.79380425285E-03  0.17130000030E+03  0.17130000000E+03 0.  1.
      622    1    1    2    0    0 -0.12544558763E-01 -0.21898747029E-01  0.26821089078E+01  0.26825258833E+01  0.40000000000E-01 0. -1.
</event>
<event>
 5   0  0.7212170E+07  0.9118800E+02  0.7818608E-02  0.1180000E+00
       11   -1    0    0    0    0  0.00000000000E+00  0.00000000000E+00  0.39999999673E+01  0.40000000000E+01  0.51109989000E-03 0. -1.
     -623   -1    0    0    0    0  0.00000000000E+00  0.00000000000E+00  0.12525980253E-10  0.17130000000E+03  0.17130000000E+03 0. -1.
       11    1    1    2    0    0  0.14839285848E-02 -0.37160659718E-02 -0.81727480930E-03  0.41158658340E-02  0.51109989000E-03 0. -1.
     -623    1    1    2    0    0 -0.40215561042E-02 -0.76693138185E-02  0.51506420754E-02  0.17130000030E+03  0.17130000000E+03 0. -1.
      622    1    1    2    0    0  0.25376275193E-02  0.11385379790E-01  0.39956666001E+01  0.39958838378E+01  0.40000000000E-01 0. -1.
</event>
<event>
 5   0  0.7212170E+07  0.9118800E+02  0.7818608E-02  0.1180000E+00
       11   -1    0    0    0    0  0.00000000000E+00  0.00000000000E+00  0.39999999673E+01  0.40000000000E+01  0.51109989000E-03 0. -1.
     -623   -1    0    0    0    0  0.00000000000E+00  0.00000000000E+00  0.12525980253E-10  0.17130000000E+03  0.17130000000E+03 0. -1.
       11    1    1    2    0    0  0.17753846581E-01 -0.23341050327E-01  0.10015708133E+01  0.10020001792E+01  0.51109989000E-03 0. -1.
     -623    1    1    2    0    0  0.10831234049E-01  0.22221531630E-01  0.83447528090E-03  0.17130000179E+03  0.17130000000E+03 0. -1.
      622    1    1    2    0    0 -0.28585080630E-01  0.11195186959E-02  0.29975946789E+01  0.29979980352E+01  0.40000000000E-01 0. -1.
</event>
<event>
 5   0  0.7212170E+07  0.9118800E+02  0.7818608E-02  0.1180000E+00
       11   -1    0    0    0    0  0.00000000000E+00  0.00000000000E+00  0.39999999673E+01  0.40000000000E+01  0.51109989000E-03 0.  1.
     -623   -1    0    0    0    0  0.00000000000E+00  0.00000000000E+00  0.12525980253E-10  0.17130000000E+03  0.17130000000E+03 0.  1.
       11    1    1    2    0    0  0.68644387296E-02 -0.42646108233E-02  0.98296642951E-01  0.98629603381E-01  0.51109989000E-03 0.  1.
     -623    1    1    2    0    0  0.37846131062E-02  0.93158828249E-02  0.55609004887E-03  0.17130000030E+03  0.17130000000E+03 0.  1.
      622    1    1    2    0    0 -0.10649051836E-01 -0.50512720019E-02  0.39011472345E+01  0.39013701007E+01  0.40000000000E-01 0.  1.
</event>
<event>
 5   0  0.7212170E+07  0.9118800E+02  0.7818608E-02  0.1180000E+00
       11   -1    0    0    0    0  0.00000000000E+00  0.00000000000E+00  0.39999999673E+01  0.40000000000E+01  0.51109989000E-03 0.  1.
     -623   -1    0    0    0    0  0.00000000000E+00  0.00000000000E+00  0.12525980253E-10  0.17130000000E+03  0.17130000000E+03 0.  1.
       11    1    1    2    0    0  0.56545744765E-03 -0.15955235516E-02  0.13381705725E+00  0.13382873933E+00  0.51109989000E-03 0.  1.
     -623    1    1    2    0    0  0.26051674781E-02  0.22373032195E-02  0.21996605374E-03  0.17130000003E+03  0.17130000000E+03 0.  1.
      622    1    1    2    0    0 -0.31706249256E-02 -0.64177966783E-03  0.38659629439E+01  0.38661712259E+01  0.40000000000E-01 0.  1.
</event>
<event>
 5   0  0.7212170E+07  0.9118800E+02  0.7818608E-02  0.1180000E+00
       11   -1    0    0    0    0  0.00000000000E+00  0.00000000000E+00  0.39999999673E+01  0.40000000000E+01  0.51109989000E-03 0. -1.
     -623   -1    0    0    0    0  0.00000000000E+00  0.00000000000E+00  0.12525980253E-10  0.17130000000E+03  0.17130000000E+03 0. -1.
       11    1    1    2    0    0  0.16895579197E-02 -0.13225569131E-02  0.34995455276E-02  0.41366417236E-02  0.51109989000E-03 0. -1.
     -623    1    1    2    0    0 -0.17422388882E-02 -0.15820021208E-02  0.83834988514E-03  0.17130000002E+03  0.17130000000E+03 0. -1.
      622    1    1    2    0    0  0.52680968659E-04  0.29045590339E-02  0.39956620721E+01  0.39958633403E+01  0.40000000000E-01 0. -1.
</event>
<event>
 5   0  0.7212170E+07  0.9118800E+02  0.7818608E-02  0.1180000E+00
       11   -1    0    0    0    0  0.00000000000E+00  0.00000000000E+00  0.39999999673E+01  0.40000000000E+01  0.51109989000E-03 0. -1.
     -623   -1    0    0    0    0  0.00000000000E+00  0.00000000000E+00  0.12525980253E-10  0.17130000000E+03  0.17130000000E+03 0. -1.
       11    1    1    2    0    0  0.23763182619E-03  0.71326692692E-03  0.95964230549E-03  0.13218755788E-02  0.51109989000E-03 0. -1.
     -623    1    1    2    0    0 -0.99324763354E-03 -0.28064079678E-03  0.56237058799E-03  0.17130000000E+03  0.17130000000E+03 0. -1.
      622    1    1    2    0    0  0.75561580733E-03 -0.43262613014E-03  0.39984779544E+01  0.39986781203E+01  0.40000000000E-01 0. -1.
</event>
<event>
 5   0  0.7212170E+07  0.9118800E+02  0.7818608E-02  0.1180000E+00
       11   -1    0    0    0    0  0.00000000000E+00  0.00000000000E+00  0.39999999673E+01  0.40000000000E+01  0.51109989000E-03 0. -1.
     -623   -1    0    0    0    0  0.00000000000E+00  0.00000000000E+00  0.12525980253E-10  0.17130000000E+03  0.17130000000E+03 0.  1.
       11    1    1    2    0    0  0.52394974147E-02  0.36873146881E-02  0.33627105028E-01  0.34235829747E-01  0.51109989000E-03 0. -1.
     -623    1    1    2    0    0  0.20697495276E-02  0.64584785562E-03  0.81954302106E-03  0.17130000002E+03  0.17130000000E+03 0.  1.
      622    1    1    2    0    0 -0.73092469424E-02 -0.43331625437E-02  0.39655533196E+01  0.39657641549E+01  0.40000000000E-01 0. -1.
</event>
<event>
 5   0  0.7212170E+07  0.9118800E+02  0.7818608E-02  0.1180000E+00
       11   -1    0    0    0    0  0.00000000000E+00  0.00000000000E+00  0.39999999673E+01  0.40000000000E+01  0.51109989000E-03 0.  1.
     -623   -1    0    0    0    0  0.00000000000E+00  0.00000000000E+00  0.12525980253E-10  0.17130000000E+03  0.17130000000E+03 0.  1.
       11    1    1    2    0    0 -0.14082296904E-04  0.98881895123E-02  0.13436821527E+01  0.13437186332E+01  0.51109989000E-03 0.  1.
     -623    1    1    2    0    0  0.20102839316E-02 -0.16938946338E-03  0.35618190673E-03  0.17130000001E+03  0.17130000000E+03 0.  1.
      622    1    1    2    0    0 -0.19962016344E-02 -0.97188000490E-02  0.26559616322E+01  0.26562813540E+01  0.40000000000E-01 0.  1.
</event>
<event>
 5   0  0.7212170E+07  0.9118800E+02  0.7818608E-02  0.1180000E+00
       11   -1    0    0    0    0  0.00000000000E+00  0.00000000000E+00  0.39999999673E+01  0.40000000000E+01  0.51109989000E-03 0. -1.
     -623   -1    0    0    0    0  0.00000000000E+00  0.00000000000E+00  0.12525980253E-10  0.17130000000E+03  0.17130000000E+03 0.  1.
       11    1    1    2    0    0 -0.25384890958E-02  0.32747768962E-02  0.75130326606E+00  0.75131486536E+00  0.51109989000E-03 0. -1.
     -623    1    1    2    0    0 -0.23597190863E-03 -0.67256586898E-03  0.26005823596E-03  0.17130000000E+03  0.17130000000E+03 0.  1.
      622    1    1    2    0    0  0.27744610046E-02 -0.26022110269E-02  0.32484366454E+01  0.32486851353E+01  0.40000000000E-01 0. -1.
</event>
<event>
 5   0  0.7212170E+07  0.9118800E+02  0.7818608E-02  0.1180000E+00
       11   -1    0    0    0    0  0.00000000000E+00  0.00000000000E+00  0.39999999673E+01  0.40000000000E+01  0.51109989000E-03 0. -1.
     -623   -1    0    0    0    0  0.00000000000E+00  0.00000000000E+00  0.12525980253E-10  0.17130000000E+03  0.17130000000E+03 0.  1.
       11    1    1    2    0    0  0.28266962092E-02 -0.36521732977E-02  0.18978027870E+00  0.18983715123E+00  0.51109989000E-03 0. -1.
     -623    1    1    2    0    0 -0.41784112491E-02 -0.20579648426E-03  0.26905483542E-03  0.17130000005E+03  0.17130000000E+03 0.  1.
      622    1    1    2    0    0  0.13517150393E-02  0.38579697819E-02  0.38099506331E+01  0.38101627968E+01  0.40000000000E-01 0. -1.
</event>
<event>
 5   0  0.7212170E+07  0.9118800E+02  0.7818608E-02  0.1180000E+00
       11   -1    0    0    0    0  0.00000000000E+00  0.00000000000E+00  0.39999999673E+01  0.40000000000E+01  0.51109989000E-03 0.  1.
     -623   -1    0    0    0    0  0.00000000000E+00  0.00000000000E+00  0.12525980253E-10  0.17130000000E+03  0.17130000000E+03 0. -1.
       11    1    1    2    0    0 -0.80450907945E-03 -0.13533028598E-01  0.25209083563E+00  0.25245562131E+00  0.51109989000E-03 0.  1.
     -623    1    1    2    0    0  0.36279924584E-02  0.44412640564E-02  0.59042218176E-03  0.17130000010E+03  0.17130000000E+03 0. -1.
      622    1    1    2    0    0 -0.28234833789E-02  0.90917645417E-02  0.37473187095E+01  0.37475442816E+01  0.40000000000E-01 0.  1.
</event>
<event>
 5   0  0.7212170E+07  0.9118800E+02  0.7818608E-02  0.1180000E+00
       11   -1    0    0    0    0  0.00000000000E+00  0.00000000000E+00  0.39999999673E+01  0.40000000000E+01  0.51109989000E-03 0.  1.
     -623   -1    0    0    0    0  0.00000000000E+00  0.00000000000E+00  0.12525980253E-10  0.17130000000E+03  0.17130000000E+03 0. -1.
       11    1    1    2    0    0  0.10128267638E-02  0.11999565397E-02  0.12161993344E+00  0.12163114382E+00  0.51109989000E-03 0.  1.
     -623    1    1    2    0    0 -0.58686368736E-03 -0.20212839835E-02  0.21757894208E-03  0.17130000001E+03  0.17130000000E+03 0. -1.
      622    1    1    2    0    0 -0.42596307621E-03  0.82132744442E-03  0.38781624564E+01  0.38783688445E+01  0.40000000000E-01 0.  1.
</event>
<event>
 5   0  0.7212170E+07  0.9118800E+02  0.7818608E-02  0.1180000E+00
       11   -1    0    0    0    0  0.00000000000E+00  0.00000000000E+00  0.39999999673E+01  0.40000000000E+01  0.51109989000E-03 0. -1.
     -623   -1    0    0    0    0  0.00000000000E+00  0.00000000000E+00  0.12525980253E-10  0.17130000000E+03  0.17130000000E+03 0. -1.
       11    1    1    2    0    0 -0.30016061410E-04 -0.36254292634E-03  0.32677464137E-03  0.70734934875E-03  0.51109989000E-03 0.  1.
     -623    1    1    2    0    0  0.62084120741E-02 -0.22275841436E-02  0.58632188707E-03  0.17130000013E+03  0.17130000000E+03 0. -1.
      622    1    1    2    0    0 -0.61783960118E-02  0.25901270696E-02  0.39990868703E+01  0.39992925221E+01  0.40000000000E-01 0. -1.
</event>
<event>
 5   0  0.7212170E+07  0.9118800E+02  0.7818608E-02  0.1180000E+00
       11   -1    0    0    0    0  0.00000000000E+00  0.00000000000E+00  0.39999999673E+01  0.40000000000E+01  0.51109989000E-03 0.  1.
     -623   -1    0    0    0    0  0.00000000000E+00  0.00000000000E+00  0.12525980253E-10  0.17130000000E+03  0.17130000000E+03 0. -1.
       11    1    1    2    0    0  0.84178938412E-03 -0.10511893860E-01  0.46058618881E+00  0.46070718148E+00  0.51109989000E-03 0.  1.
     -623    1    1    2    0    0  0.50571256407E-03  0.16357000776E-03  0.36238826068E-03  0.17130000000E+03  0.17130000000E+03 0. -1.
      622    1    1    2    0    0 -0.13475019483E-02  0.10348323852E-01  0.35390513912E+01  0.35392928182E+01  0.40000000000E-01 0.  1.
</event>
<event>
 5   0  0.7212170E+07  0.9118800E+02  0.7818608E-02  0.1180000E+00
       11   -1    0    0    0    0  0.00000000000E+00  0.00000000000E+00  0.39999999673E+01  0.40000000000E+01  0.51109989000E-03 0.  1.
     -623   -1    0    0    0    0  0.00000000000E+00  0.00000000000E+00  0.12525980253E-10  0.17130000000E+03  0.17130000000E+03 0.  1.
       11    1    1    2    0    0 -0.68307121379E-02  0.32280342122E-02  0.10286872677E+00  0.10314705523E+00  0.51109989000E-03 0.  1.
     -623    1    1    2    0    0 -0.86409496924E-02  0.30313707225E-02  0.51958340383E-03  0.17130000025E+03  0.17130000000E+03 0.  1.
      622    1    1    2    0    0  0.15471661831E-01 -0.62594049348E-02  0.38966116573E+01  0.38968526993E+01  0.40000000000E-01 0.  1.
</event>
<event>
 5   0  0.7212170E+07  0.9118800E+02  0.7818608E-02  0.1180000E+00
       11   -1    0    0    0    0  0.00000000000E+00  0.00000000000E+00  0.39999999673E+01  0.40000000000E+01  0.51109989000E-03 0.  1.
     -623   -1    0    0    0    0  0.00000000000E+00  0.00000000000E+00  0.12525980253E-10  0.17130000000E+03  0.17130000000E+03 0. -1.
       11    1    1    2    0    0  0.72959382093E-02 -0.17472468470E-01  0.62074030849E+00  0.62102923415E+00  0.51109989000E-03 0.  1.
     -623    1    1    2    0    0  0.47462343911E-02  0.18905762350E-01  0.54853368242E-03  0.17130000111E+03  0.17130000000E+03 0. -1.
      622    1    1    2    0    0 -0.12042172600E-01 -0.14332938798E-02  0.33787111252E+01  0.33789696559E+01  0.40000000000E-01 0.  1.
</event>
<event>
 5   0  0.7212170E+07  0.9118800E+02  0.7818608E-02  0.1180000E+00
       11   -1    0    0    0    0  0.00000000000E+00  0.00000000000E+00  0.39999999673E+01  0.40000000000E+01  0.51109989000E-03 0.  1.
     -623   -1    0    0    0    0  0.00000000000E+00  0.00000000000E+00  0.12525980253E-10  0.17130000000E+03  0.17130000000E+03 0.  1.
       11    1    1    2    0    0 -0.54511743767E-01 -0.27621271146E-01  0.26785719978E+01  0.26792690559E+01  0.51109989000E-03 0.  1.
     -623    1    1    2    0    0  0.61710411646E-02 -0.90832684539E-02  0.26993415786E-02  0.17130000037E+03  0.17130000000E+03 0.  1.
      622    1    1    2    0    0  0.48340702603E-01  0.36704539600E-01  0.13187286279E+01  0.13207305709E+01  0.40000000000E-01 0.  1.
</event>
<event>
 5   0  0.7212170E+07  0.9118800E+02  0.7818608E-02  0.1180000E+00
       11   -1    0    0    0    0  0.00000000000E+00  0.00000000000E+00  0.39999999673E+01  0.40000000000E+01  0.51109989000E-03 0. -1.
     -623   -1    0    0    0    0  0.00000000000E+00  0.00000000000E+00  0.12525980253E-10  0.17130000000E+03  0.17130000000E+03 0.  1.
       11    1    1    2    0    0  0.10134197282E-01  0.70599263202E-02  0.43170209200E+00  0.43187903627E+00  0.51109989000E-03 0. -1.
     -623    1    1    2    0    0 -0.19159458113E-01 -0.84442577707E-02  0.41409012107E-03  0.17130000128E+03  0.17130000000E+03 0.  1.
      622    1    1    2    0    0  0.90252608321E-02  0.13843314509E-02  0.35678837854E+01  0.35681196838E+01  0.40000000000E-01 0. -1.
</event>
<event>
 5   0  0.7212170E+07  0.9118800E+02  0.7818608E-02  0.1180000E+00
       11   -1    0    0    0    0  0.00000000000E+00  0.00000000000E+00  0.39999999673E+01  0.40000000000E+01  0.51109989000E-03 0. -1.
     -623   -1    0    0    0    0  0.00000000000E+00  0.00000000000E+00  0.12525980253E-10  0.17130000000E+03  0.17130000000E+03 0.  1.
       11    1    1    2    0    0  0.20232120290E-02 -0.77130539317E-02  0.86418153697E+00  0.86421847622E+00  0.51109989000E-03 0. -1.
     -623    1    1    2    0    0 -0.96277517133E-03  0.92714365366E-03  0.29956465315E-03  0.17130000001E+03  0.17130000000E+03 0.  1.
      622    1    1    2    0    0 -0.10604368573E-02  0.67859102777E-02  0.31355188671E+01  0.31357815197E+01  0.40000000000E-01 0. -1.
</event>
<event>
 5   0  0.7212170E+07  0.9118800E+02  0.7818608E-02  0.1180000E+00
       11   -1    0    0    0    0  0.00000000000E+00  0.00000000000E+00  0.39999999673E+01  0.40000000000E+01  0.51109989000E-03 0. -1.
     -623   -1    0    0    0    0  0.00000000000E+00  0.00000000000E+00  0.12525980253E-10  0.17130000000E+03  0.17130000000E+03 0. -1.
       11    1    1    2    0    0 -0.26684182722E-01  0.17499129181E-01  0.14539849126E+01  0.14543351238E+01  0.51109989000E-03 0. -1.
     -623    1    1    2    0    0  0.15267915544E-01  0.11488662070E-01  0.85619881981E-03  0.17130000107E+03  0.17130000000E+03 0. -1.
      622    1    1    2    0    0  0.11416267177E-01 -0.28987791252E-01  0.25451588564E+01  0.25456638088E+01  0.40000000000E-01 0. -1.
</event>
<event>
 5   0  0.7212170E+07  0.9118800E+02  0.7818608E-02  0.1180000E+00
       11   -1    0    0    0    0  0.00000000000E+00  0.00000000000E+00  0.39999999673E+01  0.40000000000E+01  0.51109989000E-03 0. -1.
     -623   -1    0    0    0    0  0.00000000000E+00  0.00000000000E+00  0.12525980253E-10  0.17130000000E+03  0.17130000000E+03 0.  1.
       11    1    1    2    0    0  0.25247557796E-02  0.12834499849E-01  0.67305806494E+00  0.67318535247E+00  0.51109989000E-03 0. -1.
     -623    1    1    2    0    0 -0.28592487291E-02  0.13125241147E-03  0.39304297288E-03  0.17130000002E+03  0.17130000000E+03 0.  1.
      622    1    1    2    0    0  0.33449295054E-03 -0.12965752261E-01  0.33265488608E+01  0.33268146245E+01  0.40000000000E-01 0. -1.
</event>
<event>
 5   0  0.7212170E+07  0.9118800E+02  0.7818608E-02  0.1180000E+00
       11   -1    0    0    0    0  0.00000000000E+00  0.00000000000E+00  0.39999999673E+01  0.40000000000E+01  0.51109989000E-03 0.  1.
     -623   -1    0    0    0    0  0.00000000000E+00  0.00000000000E+00  0.12525980253E-10  0.17130000000E+03  0.17130000000E+03 0. -1.
       11    1    1    2    0    0  0.33001393521E-02 -0.34096432220E-02  0.12054488793E+01  0.12054583272E+01  0.51109989000E-03 0.  1.
     -623    1    1    2    0    0 -0.18848919330E-02 -0.13322648462E-01  0.34668725483E-03  0.17130000053E+03  0.17130000000E+03 0. -1.
      622    1    1    2    0    0 -0.14152474190E-02  0.16732291685E-01  0.27942044010E+01  0.27945411443E+01  0.40000000000E-01 0.  0.
</event>
<event>
 5   0  0.7212170E+07  0.9118800E+02  0.7818608E-02  0.1180000E+00
       11   -1    0    0    0    0  0.00000000000E+00  0.00000000000E+00  0.39999999673E+01  0.40000000000E+01  0.51109989000E-03 0.  1.
     -623   -1    0    0    0    0  0.00000000000E+00  0.00000000000E+00  0.12525980253E-10  0.17130000000E+03  0.17130000000E+03 0.  1.
       11    1    1    2    0    0 -0.31524617220E-02  0.18104333861E-01  0.29691314282E+01  0.29691883409E+01  0.51109989000E-03 0.  1.
     -623    1    1    2    0    0  0.50774372166E-04 -0.21573117917E-02  0.96140020909E-03  0.17130000002E+03  0.17130000000E+03 0.  1.
      622    1    1    2    0    0  0.31016873499E-02 -0.15947022069E-01  0.10299071393E+01  0.10308116431E+01  0.40000000000E-01 0.  0.
</event>
<event>
 5   0  0.7212170E+07  0.9118800E+02  0.7818608E-02  0.1180000E+00
       11   -1    0    0    0    0  0.00000000000E+00  0.00000000000E+00  0.39999999673E+01  0.40000000000E+01  0.51109989000E-03 0.  1.
     -623   -1    0    0    0    0  0.00000000000E+00  0.00000000000E+00  0.12525980253E-10  0.17130000000E+03  0.17130000000E+03 0.  1.
       11    1    1    2    0    0 -0.23229705403E-03  0.74608722620E-03  0.62261622743E-02  0.62957865144E-02  0.51109989000E-03 0.  1.
     -623    1    1    2    0    0  0.49609191432E-03 -0.91914645144E-03  0.26992776877E-03  0.17130000000E+03  0.17130000000E+03 0.  1.
      622    1    1    2    0    0 -0.26379486046E-03  0.17305922556E-03  0.39935038787E+01  0.39937042115E+01  0.40000000000E-01 0.  1.
</event>
<event>
 5   0  0.7212170E+07  0.9118800E+02  0.7818608E-02  0.1180000E+00
       11   -1    0    0    0    0  0.00000000000E+00  0.00000000000E+00  0.39999999673E+01  0.40000000000E+01  0.51109989000E-03 0. -1.
     -623   -1    0    0    0    0  0.00000000000E+00  0.00000000000E+00  0.12525980253E-10  0.17130000000E+03  0.17130000000E+03 0. -1.
       11    1    1    2    0    0 -0.75752286940E-03  0.11779498391E-03  0.63850443559E-02  0.64511805958E-02  0.51109989000E-03 0.  1.
     -623    1    1    2    0    0 -0.10326445784E-02 -0.52476858235E-02  0.27021162221E-03  0.17130000008E+03  0.17130000000E+03 0. -1.
      622    1    1    2    0    0  0.17901674482E-02  0.51298908420E-02  0.39933447132E+01  0.39935487375E+01  0.40000000000E-01 0. -1.
</event>
<event>
 5   0  0.7212170E+07  0.9118800E+02  0.7818608E-02  0.1180000E+00
       11   -1    0    0    0    0  0.00000000000E+00  0.00000000000E+00  0.39999999673E+01  0.40000000000E+01  0.51109989000E-03 0. -1.
     -623   -1    0    0    0    0  0.00000000000E+00  0.00000000000E+00  0.12525980253E-10  0.17130000000E+03  0.17130000000E+03 0. -1.
       11    1    1    2    0    0  0.19311735432E-02  0.23522700899E-02  0.30567776941E-02  0.43436987463E-02  0.51109989000E-03 0. -1.
     -623    1    1    2    0    0 -0.25213765591E-01  0.81620132168E-02  0.15708405302E-02  0.17130000206E+03  0.17130000000E+03 0. -1.
      622    1    1    2    0    0  0.23282592050E-01 -0.10514283307E-01  0.39953723493E+01  0.39956542442E+01  0.40000000000E-01 0. -1.
</event>
<event>
 5   0  0.7212170E+07  0.9118800E+02  0.7818608E-02  0.1180000E+00
       11   -1    0    0    0    0  0.00000000000E+00  0.00000000000E+00  0.39999999673E+01  0.40000000000E+01  0.51109989000E-03 0. -1.
     -623   -1    0    0    0    0  0.00000000000E+00  0.00000000000E+00  0.12525980253E-10  0.17130000000E+03  0.17130000000E+03 0.  1.
       11    1    1    2    0    0 -0.62967401719E-02  0.36565069730E-03  0.51220984238E-01  0.51610397079E-01  0.51109989000E-03 0. -1.
     -623    1    1    2    0    0  0.14136516697E-01 -0.39407007955E-01  0.79793555586E-03  0.17130000512E+03  0.17130000000E+03 0.  1.
      622    1    1    2    0    0 -0.78397765242E-02  0.39041357255E-01  0.39479810473E+01  0.39483844848E+01  0.40000000000E-01 0. -1.
</event>
<event>
 5   0  0.7212170E+07  0.9118800E+02  0.7818608E-02  0.1180000E+00
       11   -1    0    0    0    0  0.00000000000E+00  0.00000000000E+00  0.39999999673E+01  0.40000000000E+01  0.51109989000E-03 0.  1.
     -623   -1    0    0    0    0  0.00000000000E+00  0.00000000000E+00  0.12525980253E-10  0.17130000000E+03  0.17130000000E+03 0. -1.
       11    1    1    2    0    0  0.57287056107E-03  0.10897128664E-01  0.51344271047E-01  0.52493532804E-01  0.51109989000E-03 0.  1.
     -623    1    1    2    0    0 -0.26255371102E-02 -0.92091649102E-02  0.13530615403E-02  0.17130000027E+03  0.17130000000E+03 0. -1.
      622    1    1    2    0    0  0.20526665492E-02 -0.16879637535E-02  0.39473026349E+01  0.39475061943E+01  0.40000000000E-01 0.  1.
</event>
<event>
 5   0  0.7212170E+07  0.9118800E+02  0.7818608E-02  0.1180000E+00
       11   -1    0    0    0    0  0.00000000000E+00  0.00000000000E+00  0.39999999673E+01  0.40000000000E+01  0.51109989000E-03 0. -1.
     -623   -1    0    0    0    0  0.00000000000E+00  0.00000000000E+00  0.12525980253E-10  0.17130000000E+03  0.17130000000E+03 0.  1.
       11    1    1    2    0    0 -0.29636108591E-01  0.11074255083E-02  0.32950823670E+00  0.33084054255E+00  0.51109989000E-03 0. -1.
     -623    1    1    2    0    0 -0.56154694678E-02 -0.15305730742E-02  0.17197995683E-02  0.17130000011E+03  0.17130000000E+03 0.  1.
      622    1    1    2    0    0  0.35251578059E-01  0.42314756593E-03  0.36687719311E+01  0.36691593499E+01  0.40000000000E-01 0. -1.
</event>
<event>
 5   0  0.7212170E+07  0.9118800E+02  0.7818608E-02  0.1180000E+00
       11   -1    0    0    0    0  0.00000000000E+00  0.00000000000E+00  0.39999999673E+01  0.40000000000E+01  0.51109989000E-03 0. -1.
     -623   -1    0    0    0    0  0.00000000000E+00  0.00000000000E+00  0.12525980253E-10  0.17130000000E+03  0.17130000000E+03 0. -1.
       11    1    1    2    0    0  0.31480482212E-02  0.35223153855E-03  0.61756940331E+00  0.61757773876E+00  0.51109989000E-03 0. -1.
     -623    1    1    2    0    0 -0.32508117603E-02 -0.41320331195E-02  0.24702247163E-03  0.17130000008E+03  0.17130000000E+03 0. -1.
      622    1    1    2    0    0  0.10276354084E-03  0.37798015831E-02  0.33821835436E+01  0.33824221825E+01  0.40000000000E-01 0. -1.
</event>
<event>
 5   0  0.7212170E+07  0.9118800E+02  0.7818608E-02  0.1180000E+00
       11   -1    0    0    0    0  0.00000000000E+00  0.00000000000E+00  0.39999999673E+01  0.40000000000E+01  0.51109989000E-03 0. -1.
     -623   -1    0    0    0    0  0.00000000000E+00  0.00000000000E+00  0.12525980253E-10  0.17130000000E+03  0.17130000000E+03 0. -1.
       11    1    1    2    0    0  0.31165506116E-02 -0.15410382491E-02  0.42644533185E-01  0.42789077114E-01  0.51109989000E-03 0. -1.
     -623    1    1    2    0    0 -0.31269034818E-02 -0.28623628878E-02  0.34918194293E-03  0.17130000005E+03  0.17130000000E+03 0. -1.
      622    1    1    2    0    0  0.10352870555E-04  0.44034011372E-02  0.39570062527E+01  0.39572108705E+01  0.40000000000E-01 0. -1.
</event>
<event>
 5   0  0.7212170E+07  0.9118800E+02  0.7818608E-02  0.1180000E+00
       11   -1    0    0    0    0  0.00000000000E+00  0.00000000000E+00  0.39999999673E+01  0.40000000000E+01  0.51109989000E-03 0. -1.
     -623   -1    0    0    0    0  0.00000000000E+00  0.00000000000E+00  0.12525980253E-10  0.17130000000E+03  0.17130000000E+03 0. -1.
       11    1    1    2    0    0 -0.29577440276E-02 -0.40090581367E-02  0.97689850932E+00  0.97691134681E+00  0.51109989000E-03 0. -1.
     -623    1    1    2    0    0  0.66656153355E-02  0.20214286235E-01  0.32448146785E-03  0.17130000132E+03  0.17130000000E+03 0. -1.
      622    1    1    2    0    0 -0.37078713074E-02 -0.16205228097E-01  0.30227769762E+01  0.30230873302E+01  0.40000000000E-01 0. -1.
</event>
<event>
 5   0  0.7212170E+07  0.9118800E+02  0.7818608E-02  0.1180000E+00
       11   -1    0    0    0    0  0.00000000000E+00  0.00000000000E+00  0.39999999673E+01  0.40000000000E+01  0.51109989000E-03 0. -1.
     -623   -1    0    0    0    0  0.00000000000E+00  0.00000000000E+00  0.12525980253E-10  0.17130000000E+03  0.17130000000E+03 0. -1.
       11    1    1    2    0    0 -0.21264539055E-02  0.69122100354E-02  0.10200163599E+00  0.10225896255E+00  0.51109989000E-03 0. -1.
     -623    1    1    2    0    0  0.14101482247E-02 -0.88096787168E-03  0.46728746759E-03  0.17130000001E+03  0.17130000000E+03 0. -1.
      622    1    1    2    0    0  0.71630568088E-03 -0.60312421638E-02  0.38975310438E+01  0.38977410286E+01  0.40000000000E-01 0. -1.
</event>
<event>
 5   0  0.7212170E+07  0.9118800E+02  0.7818608E-02  0.1180000E+00
       11   -1    0    0    0    0  0.00000000000E+00  0.00000000000E+00  0.39999999673E+01  0.40000000000E+01  0.51109989000E-03 0.  1.
     -623   -1    0    0    0    0  0.00000000000E+00  0.00000000000E+00  0.12525980253E-10  0.17130000000E+03  0.17130000000E+03 0.  1.
       11    1    1    2    0    0 -0.48960237101E-03  0.11534480371E-02  0.52114425602E-02  0.53842835653E-02  0.51109989000E-03 0.  1.
     -623    1    1    2    0    0 -0.42331567424E-03 -0.19995992379E-02  0.37328950836E-03  0.17130000001E+03  0.17130000000E+03 0.  1.
      622    1    1    2    0    0  0.91291804529E-03  0.84615120088E-03  0.39944152356E+01  0.39946157041E+01  0.40000000000E-01 0.  1.
</event>
<event>
 5   0  0.7212170E+07  0.9118800E+02  0.7818608E-02  0.1180000E+00
       11   -1    0    0    0    0  0.00000000000E+00  0.00000000000E+00  0.39999999673E+01  0.40000000000E+01  0.51109989000E-03 0. -1.
     -623   -1    0    0    0    0  0.00000000000E+00  0.00000000000E+00  0.12525980253E-10  0.17130000000E+03  0.17130000000E+03 0. -1.
       11    1    1    2    0    0 -0.32001409256E-03 -0.10376244882E-02  0.17851645376E-02  0.21510716218E-02  0.51109989000E-03 0. -1.
     -623    1    1    2    0    0  0.37284786065E-04  0.17565800721E-02  0.56607165792E-03  0.17130000001E+03  0.17130000000E+03 0. -1.
      622    1    1    2    0    0  0.28272930650E-03 -0.71895558411E-03  0.39976487315E+01  0.39978489188E+01  0.40000000000E-01 0. -1.
</event>
<event>
 5   0  0.7212170E+07  0.9118800E+02  0.7818608E-02  0.1180000E+00
       11   -1    0    0    0    0  0.00000000000E+00  0.00000000000E+00  0.39999999673E+01  0.40000000000E+01  0.51109989000E-03 0.  1.
     -623   -1    0    0    0    0  0.00000000000E+00  0.00000000000E+00  0.12525980253E-10  0.17130000000E+03  0.17130000000E+03 0. -1.
       11    1    1    2    0    0 -0.41196676969E-02 -0.71734653123E-03  0.28197123018E+00  0.28200269878E+00  0.51109989000E-03 0.  1.
     -623    1    1    2    0    0  0.35689980605E-03 -0.41462647721E-03  0.24868932312E-03  0.17130000000E+03  0.17130000000E+03 0. -1.
      622    1    1    2    0    0  0.37627678908E-02  0.11319730085E-02  0.37177800485E+01  0.37179973008E+01  0.40000000000E-01 0.  1.
</event>
<event>
 5   0  0.7212170E+07  0.9118800E+02  0.7818608E-02  0.1180000E+00
       11   -1    0    0    0    0  0.00000000000E+00  0.00000000000E+00  0.39999999673E+01  0.40000000000E+01  0.51109989000E-03 0. -1.
     -623   -1    0    0    0    0  0.00000000000E+00  0.00000000000E+00  0.12525980253E-10  0.17130000000E+03  0.17130000000E+03 0. -1.
       11    1    1    2    0    0 -0.20929055636E-01  0.66031396012E-02  0.21394039149E+00  0.21506366303E+00  0.51109989000E-03 0. -1.
     -623    1    1    2    0    0  0.82667302927E-02 -0.24677281024E-03  0.13613336370E-02  0.17130000021E+03  0.17130000000E+03 0. -1.
      622    1    1    2    0    0  0.12662325343E-01 -0.63563667910E-02  0.37846982423E+01  0.37849361320E+01  0.40000000000E-01 0. -1.
</event>
<event>
 5   0  0.7212170E+07  0.9118800E+02  0.7818608E-02  0.1180000E+00
       11   -1    0    0    0    0  0.00000000000E+00  0.00000000000E+00  0.39999999673E+01  0.40000000000E+01  0.51109989000E-03 0.  1.
     -623   -1    0    0    0    0  0.00000000000E+00  0.00000000000E+00  0.12525980253E-10  0.17130000000E+03  0.17130000000E+03 0.  1.
       11    1    1    2    0    0  0.34585781015E-01 -0.32489354314E-01  0.19193484005E+01  0.19199349671E+01  0.51109989000E-03 0.  1.
     -623    1    1    2    0    0  0.71442067044E-02  0.13548178481E-01  0.14768493984E-02  0.17130000069E+03  0.17130000000E+03 0.  1.
      622    1    1    2    0    0 -0.41729987719E-01  0.18941175833E-01  0.20791747174E+01  0.20800643416E+01  0.40000000000E-01 0.  1.
</event>
<event>
 5   0  0.7212170E+07  0.9118800E+02  0.7818608E-02  0.1180000E+00
       11   -1    0    0    0    0  0.00000000000E+00  0.00000000000E+00  0.39999999673E+01  0.40000000000E+01  0.51109989000E-03 0. -1.
     -623   -1    0    0    0    0  0.00000000000E+00  0.00000000000E+00  0.12525980253E-10  0.17130000000E+03  0.17130000000E+03 0.  1.
       11    1    1    2    0    0 -0.68898998628E-03 -0.19560781414E-02  0.95778413003E-02  0.98131144887E-02  0.51109989000E-03 0. -1.
     -623    1    1    2    0    0 -0.20587014660E-02  0.69110553968E-04  0.43714268368E-03  0.17130000001E+03  0.17130000000E+03 0.  1.
      622    1    1    2    0    0  0.27476914523E-02  0.18869675874E-02  0.39899849834E+01  0.39901868726E+01  0.40000000000E-01 0. -1.
</event>
<event>
 5   0  0.7212170E+07  0.9118800E+02  0.7818608E-02  0.1180000E+00
       11   -1    0    0    0    0  0.00000000000E+00  0.00000000000E+00  0.39999999673E+01  0.40000000000E+01  0.51109989000E-03 0. -1.
     -623   -1    0    0    0    0  0.00000000000E+00  0.00000000000E+00  0.12525980253E-10  0.17130000000E+03  0.17130000000E+03 0. -1.
       11    1    1    2    0    0 -0.77506869807E-02 -0.11309107540E-01  0.26433878147E+00  0.26469458188E+00  0.51109989000E-03 0. -1.
     -623    1    1    2    0    0 -0.72262177225E-03  0.50452608213E-03  0.59518833800E-03  0.17130000000E+03  0.17130000000E+03 0. -1.
      622    1    1    2    0    0  0.84733087530E-02  0.10804581458E-01  0.37350659977E+01  0.37353054150E+01  0.40000000000E-01 0. -1.
</event>
<event>
 5   0  0.7212170E+07  0.9118800E+02  0.7818608E-02  0.1180000E+00
       11   -1    0    0    0    0  0.00000000000E+00  0.00000000000E+00  0.39999999673E+01  0.40000000000E+01  0.51109989000E-03 0. -1.
     -623   -1    0    0    0    0  0.00000000000E+00  0.00000000000E+00  0.12525980253E-10  0.17130000000E+03  0.17130000000E+03 0. -1.
       11    1    1    2    0    0  0.79950570341E-04  0.29176223393E-03  0.54766893129E-03  0.80788715221E-03  0.51109989000E-03 0.  1.
     -623    1    1    2    0    0 -0.15568877794E-02  0.21194969038E-02  0.46125148708E-03  0.17130000002E+03  0.17130000000E+03 0. -1.
      622    1    1    2    0    0  0.14769372095E-02 -0.24112591383E-02  0.39989910479E+01  0.39991920930E+01  0.40000000000E-01 0. -1.
</event>
<event>
 5   0  0.7212170E+07  0.9118800E+02  0.7818608E-02  0.1180000E+00
       11   -1    0    0    0    0  0.00000000000E+00  0.00000000000E+00  0.39999999673E+01  0.40000000000E+01  0.51109989000E-03 0. -1.
     -623   -1    0    0    0    0  0.00000000000E+00  0.00000000000E+00  0.12525980253E-10  0.17130000000E+03  0.17130000000E+03 0. -1.
       11    1    1    2    0    0 -0.35352536455E-02 -0.49113173957E-02  0.16790481413E+00  0.16801460320E+00  0.51109989000E-03 0. -1.
     -623    1    1    2    0    0  0.38295406126E-03  0.71988894238E-02  0.32066267931E-03  0.17130000015E+03  0.17130000000E+03 0. -1.
      622    1    1    2    0    0  0.31522995843E-02 -0.22875720274E-02  0.38317744902E+01  0.38319852444E+01  0.40000000000E-01 0. -1.
</event>
<event>
 5   0  0.7212170E+07  0.9118800E+02  0.7818608E-02  0.1180000E+00
       11   -1    0    0    0    0  0.00000000000E+00  0.00000000000E+00  0.39999999673E+01  0.40000000000E+01  0.51109989000E-03 0. -1.
     -623   -1    0    0    0    0  0.00000000000E+00  0.00000000000E+00  0.12525980253E-10  0.17130000000E+03  0.17130000000E+03 0. -1.
       11    1    1    2    0    0  0.21077845484E-01  0.14916764582E-02  0.15620035472E+00  0.15762395981E+00  0.51109989000E-03 0. -1.
     -623    1    1    2    0    0  0.17076664570E-02  0.76545666928E-02  0.17104211195E-02  0.17130000019E+03  0.17130000000E+03 0. -1.
      622    1    1    2    0    0 -0.22785511941E-01 -0.91462431517E-02  0.38420891919E+01  0.38423758525E+01  0.40000000000E-01 0. -1.
</event>
<event>
 5   0  0.7212170E+07  0.9118800E+02  0.7818608E-02  0.1180000E+00
       11   -1    0    0    0    0  0.00000000000E+00  0.00000000000E+00  0.39999999673E+01  0.40000000000E+01  0.51109989000E-03 0.  1.
     -623   -1    0    0    0    0  0.00000000000E+00  0.00000000000E+00  0.12525980253E-10  0.17130000000E+03  0.17130000000E+03 0. -1.
       11    1    1    2    0    0  0.23610118014E-05  0.91797047119E-03  0.34006021215E-01  0.34022248270E-01  0.51109989000E-03 0. -1.
     -623    1    1    2    0    0 -0.11568124932E-03  0.13404259862E-02  0.21856533873E-03  0.17130000001E+03  0.17130000000E+03 0. -1.
      622    1    1    2    0    0  0.11332023751E-03 -0.22583964574E-02  0.39657753806E+01  0.39659777461E+01  0.40000000000E-01 0.  1.
</event>
<event>
 5   0  0.7212170E+07  0.9118800E+02  0.7818608E-02  0.1180000E+00
       11   -1    0    0    0    0  0.00000000000E+00  0.00000000000E+00  0.39999999673E+01  0.40000000000E+01  0.51109989000E-03 0.  1.
     -623   -1    0    0    0    0  0.00000000000E+00  0.00000000000E+00  0.12525980253E-10  0.17130000000E+03  0.17130000000E+03 0. -1.
       11    1    1    2    0    0  0.40804236897E-02 -0.23519819120E-02  0.23069301405E+00  0.23074165127E+00  0.51109989000E-03 0.  1.
     -623    1    1    2    0    0  0.46038033824E-03 -0.41530446975E-03  0.26460641411E-03  0.17130000000E+03  0.17130000000E+03 0. -1.
      622    1    1    2    0    0 -0.45408040279E-02  0.27672863817E-02  0.37690423470E+01  0.37692583476E+01  0.40000000000E-01 0.  1.
</event>
<event>
 5   0  0.7212170E+07  0.9118800E+02  0.7818608E-02  0.1180000E+00
       11   -1    0    0    0    0  0.00000000000E+00  0.00000000000E+00  0.39999999673E+01  0.40000000000E+01  0.51109989000E-03 0.  1.
     -623   -1    0    0    0    0  0.00000000000E+00  0.00000000000E+00  0.12525980253E-10  0.17130000000E+03  0.17130000000E+03 0. -1.
       11    1    1    2    0    0  0.28053824749E-01  0.12074275295E-02  0.43486788554E+00  0.43577381066E+00  0.51109989000E-03 0.  1.
     -623    1    1    2    0    0 -0.16544324239E-01  0.76606165014E-03  0.11502874529E-02  0.17130000080E+03  0.17130000000E+03 0. -1.
      622    1    1    2    0    0 -0.11509500511E-01 -0.19734891796E-02  0.35639817943E+01  0.35642253848E+01  0.40000000000E-01 0.  0.
</event>
<event>
 5   0  0.7212170E+07  0.9118800E+02  0.7818608E-02  0.1180000E+00
       11   -1    0    0    0    0  0.00000000000E+00  0.00000000000E+00  0.39999999673E+01  0.40000000000E+01  0.51109989000E-03 0.  1.
     -623   -1    0    0    0    0  0.00000000000E+00  0.00000000000E+00  0.12525980253E-10  0.17130000000E+03  0.17130000000E+03 0.  1.
       11    1    1    2    0    0 -0.38439074153E-02 -0.49429767130E-02  0.17148390204E-01  0.18262999553E-01  0.51109989000E-03 0.  1.
     -623    1    1    2    0    0 -0.24882948315E-02  0.98584268617E-02  0.13238755622E-02  0.17130000031E+03  0.17130000000E+03 0.  1.
      622    1    1    2    0    0  0.63322022468E-02 -0.49154501488E-02  0.39815277017E+01  0.39817366937E+01  0.40000000000E-01 0.  1.
</event>
<event>
 5   0  0.7212170E+07  0.9118800E+02  0.7818608E-02  0.1180000E+00
       11   -1    0    0    0    0  0.00000000000E+00  0.00000000000E+00  0.39999999673E+01  0.40000000000E+01  0.51109989000E-03 0.  1.
     -623   -1    0    0    0    0  0.00000000000E+00  0.00000000000E+00  0.12525980253E-10  0.17130000000E+03  0.17130000000E+03 0. -1.
       11    1    1    2    0    0  0.24960042323E-01 -0.40688812926E-01  0.23327487724E+01  0.23332371674E+01  0.51109989000E-03 0.  1.
     -623    1    1    2    0    0  0.15684939425E-01  0.22909572682E-01  0.15613379499E-02  0.17130000226E+03  0.17130000000E+03 0. -1.
      622    1    1    2    0    0 -0.40644981747E-01  0.17779240244E-01  0.16656898570E+01  0.16667605753E+01  0.40000000000E-01 0.  1.
</event>
<event>
 5   0  0.7212170E+07  0.9118800E+02  0.7818608E-02  0.1180000E+00
       11   -1    0    0    0    0  0.00000000000E+00  0.00000000000E+00  0.39999999673E+01  0.40000000000E+01  0.51109989000E-03 0. -1.
     -623   -1    0    0    0    0  0.00000000000E+00  0.00000000000E+00  0.12525980253E-10  0.17130000000E+03  0.17130000000E+03 0. -1.
       11    1    1    2    0    0  0.14764034549E-01 -0.51281328187E-01  0.77699168580E+00  0.77882224696E+00  0.51109989000E-03 0. -1.
     -623    1    1    2    0    0 -0.25605512793E-01  0.19627740016E-01  0.22557358838E-02  0.17130000305E+03  0.17130000000E+03 0. -1.
      622    1    1    2    0    0  0.10841478244E-01  0.31653588170E-01  0.32207525458E+01  0.32211747001E+01  0.40000000000E-01 0. -1.
</event>
<event>
 5   0  0.7212170E+07  0.9118800E+02  0.7818608E-02  0.1180000E+00
       11   -1    0    0    0    0  0.00000000000E+00  0.00000000000E+00  0.39999999673E+01  0.40000000000E+01  0.51109989000E-03 0.  1.
     -623   -1    0    0    0    0  0.00000000000E+00  0.00000000000E+00  0.12525980253E-10  0.17130000000E+03  0.17130000000E+03 0.  1.
       11    1    1    2    0    0 -0.79840576894E-02  0.79779983561E-03  0.12102107895E+01  0.12102374965E+01  0.51109989000E-03 0.  1.
     -623    1    1    2    0    0  0.21301280127E-02  0.18233144843E-02  0.32084902872E-03  0.17130000002E+03  0.17130000000E+03 0.  1.
      622    1    1    2    0    0  0.58539296759E-02 -0.26211143206E-02  0.27894683303E+01  0.27897624817E+01  0.40000000000E-01 0.  1.
</event>
<event>
 5   0  0.7212170E+07  0.9118800E+02  0.7818608E-02  0.1180000E+00
       11   -1    0    0    0    0  0.00000000000E+00  0.00000000000E+00  0.39999999673E+01  0.40000000000E+01  0.51109989000E-03 0.  1.
     -623   -1    0    0    0    0  0.00000000000E+00  0.00000000000E+00  0.12525980253E-10  0.17130000000E+03  0.17130000000E+03 0. -1.
       11    1    1    2    0    0  0.17572643831E-02 -0.70339403279E-03  0.28501318056E-01  0.28568673320E-01  0.51109989000E-03 0.  1.
     -623    1    1    2    0    0  0.81829966779E-03 -0.11822286539E-02  0.27005555513E-03  0.17130000001E+03  0.17130000000E+03 0. -1.
      622    1    1    2    0    0 -0.25755640508E-02  0.18856226866E-02  0.39712285935E+01  0.39714313201E+01  0.40000000000E-01 0.  1.
</event>
<event>
 5   0  0.7212170E+07  0.9118800E+02  0.7818608E-02  0.1180000E+00
       11   -1    0    0    0    0  0.00000000000E+00  0.00000000000E+00  0.39999999673E+01  0.40000000000E+01  0.51109989000E-03 0.  1.
     -623   -1    0    0    0    0  0.00000000000E+00  0.00000000000E+00  0.12525980253E-10  0.17130000000E+03  0.17130000000E+03 0.  1.
       11    1    1    2    0    0  0.58906885505E-03 -0.52228904348E-02  0.27726556474E-01  0.28224966671E-01  0.51109989000E-03 0.  1.
     -623    1    1    2    0    0  0.29619121002E-02  0.22148017724E-03  0.70456775300E-03  0.17130000003E+03  0.17130000000E+03 0.  1.
      622    1    1    2    0    0 -0.35509809554E-02  0.50014102575E-02  0.39715688434E+01  0.39717750064E+01  0.40000000000E-01 0.  1.
</event>
<event>
 5   0  0.7212170E+07  0.9118800E+02  0.7818608E-02  0.1180000E+00
       11   -1    0    0    0    0  0.00000000000E+00  0.00000000000E+00  0.39999999673E+01  0.40000000000E+01  0.51109989000E-03 0. -1.
     -623   -1    0    0    0    0  0.00000000000E+00  0.00000000000E+00  0.12525980253E-10  0.17130000000E+03  0.17130000000E+03 0. -1.
       11    1    1    2    0    0 -0.18658414713E-02  0.51235592293E-02  0.42389887458E-01  0.42742204030E-01  0.51109989000E-03 0. -1.
     -623    1    1    2    0    0  0.58846331785E-02 -0.75039581194E-02  0.55747236656E-03  0.17130000027E+03  0.17130000000E+03 0. -1.
      622    1    1    2    0    0 -0.40187917072E-02  0.23803988900E-02  0.39570526075E+01  0.39572575296E+01  0.40000000000E-01 0. -1.
</event>
<event>
 5   0  0.7212170E+07  0.9118800E+02  0.7818608E-02  0.1180000E+00
       11   -1    0    0    0    0  0.00000000000E+00  0.00000000000E+00  0.39999999673E+01  0.40000000000E+01  0.51109989000E-03 0. -1.
     -623   -1    0    0    0    0  0.00000000000E+00  0.00000000000E+00  0.12525980253E-10  0.17130000000E+03  0.17130000000E+03 0. -1.
       11    1    1    2    0    0 -0.23538599544E-01 -0.30698345684E-01  0.16090098256E+01  0.16094748629E+01  0.51109989000E-03 0. -1.
     -623    1    1    2    0    0 -0.13697123278E-01  0.13084567034E-01  0.11556995826E-02  0.17130000105E+03  0.17130000000E+03 0. -1.
      622    1    1    2    0    0  0.37235722821E-01  0.17613778651E-01  0.23898344419E+01  0.23905240856E+01  0.40000000000E-01 0.  1.
</event>
<event>
 5   0  0.7212170E+07  0.9118800E+02  0.7818608E-02  0.1180000E+00
       11   -1    0    0    0    0  0.00000000000E+00  0.00000000000E+00  0.39999999673E+01  0.40000000000E+01  0.51109989000E-03 0.  1.
     -623   -1    0    0    0    0  0.00000000000E+00  0.00000000000E+00  0.12525980253E-10  0.17130000000E+03  0.17130000000E+03 0.  1.
       11    1    1    2    0    0  0.21572395516E-02  0.19452772039E-02  0.59227001843E+00  0.59227736217E+00  0.51109989000E-03 0.  1.
     -623    1    1    2    0    0  0.88144130582E-02  0.18548186858E-02  0.26209976529E-03  0.17130000024E+03  0.17130000000E+03 0.  1.
      622    1    1    2    0    0 -0.10971652613E-01 -0.38000958902E-02  0.34074678504E+01  0.34077224021E+01  0.40000000000E-01 0.  1.
</event>
<event>
 5   0  0.7212170E+07  0.9118800E+02  0.7818608E-02  0.1180000E+00
       11   -1    0    0    0    0  0.00000000000E+00  0.00000000000E+00  0.39999999673E+01  0.40000000000E+01  0.51109989000E-03 0.  1.
     -623   -1    0    0    0    0  0.00000000000E+00  0.00000000000E+00  0.12525980253E-10  0.17130000000E+03  0.17130000000E+03 0. -1.
       11    1    1    2    0    0 -0.24201324981E-02 -0.16235136800E-02  0.26262617981E-01  0.26428756390E-01  0.51109989000E-03 0.  1.
     -623    1    1    2    0    0  0.25919740193E-02  0.24776577658E-03  0.36770316728E-03  0.17130000002E+03  0.17130000000E+03 0. -1.
      622    1    1    2    0    0 -0.17184152174E-03  0.13757479033E-02  0.39733696471E+01  0.39735712243E+01  0.40000000000E-01 0.  1.
</event>
<event>
 5   0  0.7212170E+07  0.9118800E+02  0.7818608E-02  0.1180000E+00
       11   -1    0    0    0    0  0.00000000000E+00  0.00000000000E+00  0.39999999673E+01  0.40000000000E+01  0.51109989000E-03 0. -1.
     -623   -1    0    0    0    0  0.00000000000E+00  0.00000000000E+00  0.12525980253E-10  0.17130000000E+03  0.17130000000E+03 0.  1.
       11    1    1    2    0    0 -0.25517502835E-02 -0.25137437087E-02  0.13401574748E+00  0.13406458194E+00  0.51109989000E-03 0. -1.
     -623    1    1    2    0    0  0.11995951143E-02 -0.46555742285E-03  0.25713262492E-03  0.17130000001E+03  0.17130000000E+03 0.  1.
      622    1    1    2    0    0  0.13521551692E-02  0.29793011316E-02  0.38657270873E+01  0.38659354131E+01  0.40000000000E-01 0. -1.
</event>
<event>
 5   0  0.7212170E+07  0.9118800E+02  0.7818608E-02  0.1180000E+00
       11   -1    0    0    0    0  0.00000000000E+00  0.00000000000E+00  0.39999999673E+01  0.40000000000E+01  0.51109989000E-03 0.  1.
     -623   -1    0    0    0    0  0.00000000000E+00  0.00000000000E+00  0.12525980253E-10  0.17130000000E+03  0.17130000000E+03 0.  1.
       11    1    1    2    0    0 -0.11073506809E-01 -0.27897227853E-02  0.89226603785E-01  0.89955840012E-01  0.51109989000E-03 0.  1.
     -623    1    1    2    0    0  0.26558654238E-02 -0.50467954098E-02  0.95082254644E-03  0.17130000010E+03  0.17130000000E+03 0.  1.
      622    1    1    2    0    0  0.84176413851E-02  0.78365181953E-02  0.39098225412E+01  0.39100440626E+01  0.40000000000E-01 0.  1.
</event>
<event>
 5   0  0.7212170E+07  0.9118800E+02  0.7818608E-02  0.1180000E+00
       11   -1    0    0    0    0  0.00000000000E+00  0.00000000000E+00  0.39999999673E+01  0.40000000000E+01  0.51109989000E-03 0. -1.
     -623   -1    0    0    0    0  0.00000000000E+00  0.00000000000E+00  0.12525980253E-10  0.17130000000E+03  0.17130000000E+03 0. -1.
       11    1    1    2    0    0  0.58458848209E-03  0.98230495794E-02  0.22097440610E+01  0.22097660307E+01  0.51109989000E-03 0. -1.
     -623    1    1    2    0    0  0.83968077473E-03  0.49023648455E-03  0.49914635819E-03  0.17130000000E+03  0.17130000000E+03 0. -1.
      622    1    1    2    0    0 -0.14242692567E-02 -0.10313286064E-01  0.17897567595E+01  0.17902339653E+01  0.40000000000E-01 0. -1.
</event>
<event>
 5   0  0.7212170E+07  0.9118800E+02  0.7818608E-02  0.1180000E+00
       11   -1    0    0    0    0  0.00000000000E+00  0.00000000000E+00  0.39999999673E+01  0.40000000000E+01  0.51109989000E-03 0.  1.
     -623   -1    0    0    0    0  0.00000000000E+00  0.00000000000E+00  0.12525980253E-10  0.17130000000E+03  0.17130000000E+03 0. -1.
       11    1    1    2    0    0  0.71434480862E-03  0.51740965189E-02  0.35537042143E+00  0.35540917154E+00  0.51109989000E-03 0.  1.
     -623    1    1    2    0    0 -0.25401661854E-02 -0.33378737377E-03  0.26191853885E-03  0.17130000002E+03  0.17130000000E+03 0. -1.
      622    1    1    2    0    0  0.18258213765E-02 -0.48403091451E-02  0.36443676269E+01  0.36445908086E+01  0.40000000000E-01 0.  1.
</event>
<event>
 5   0  0.7212170E+07  0.9118800E+02  0.7818608E-02  0.1180000E+00
       11   -1    0    0    0    0  0.00000000000E+00  0.00000000000E+00  0.39999999673E+01  0.40000000000E+01  0.51109989000E-03 0. -1.
     -623   -1    0    0    0    0  0.00000000000E+00  0.00000000000E+00  0.12525980253E-10  0.17130000000E+03  0.17130000000E+03 0.  1.
       11    1    1    2    0    0  0.33257226052E-02 -0.20303576845E-02  0.81644046334E-01  0.81738572951E-01  0.51109989000E-03 0. -1.
     -623    1    1    2    0    0 -0.10556174829E-01  0.50619810044E-02  0.30691630668E-03  0.17130000040E+03  0.17130000000E+03 0.  1.
      622    1    1    2    0    0  0.72304522250E-02 -0.30316233207E-02  0.39180490054E+01  0.39182610274E+01  0.40000000000E-01 0. -1.
</event>
<event>
 5   0  0.7212170E+07  0.9118800E+02  0.7818608E-02  0.1180000E+00
       11   -1    0    0    0    0  0.00000000000E+00  0.00000000000E+00  0.39999999673E+01  0.40000000000E+01  0.51109989000E-03 0. -1.
     -623   -1    0    0    0    0  0.00000000000E+00  0.00000000000E+00  0.12525980253E-10  0.17130000000E+03  0.17130000000E+03 0.  1.
       11    1    1    2    0    0  0.37220692909E-02  0.58164164660E-02  0.33761556394E+00  0.33768656287E+00  0.51109989000E-03 0. -1.
     -623    1    1    2    0    0  0.92778891873E-03 -0.23175410483E-03  0.29662719591E-03  0.17130000000E+03  0.17130000000E+03 0.  1.
      622    1    1    2    0    0 -0.46498582095E-02 -0.55846623612E-02  0.36620877757E+01  0.36623134337E+01  0.40000000000E-01 0. -1.
</event>
<event>
 5   0  0.7212170E+07  0.9118800E+02  0.7818608E-02  0.1180000E+00
       11   -1    0    0    0    0  0.00000000000E+00  0.00000000000E+00  0.39999999673E+01  0.40000000000E+01  0.51109989000E-03 0. -1.
     -623   -1    0    0    0    0  0.00000000000E+00  0.00000000000E+00  0.12525980253E-10  0.17130000000E+03  0.17130000000E+03 0.  1.
       11    1    1    2    0    0 -0.72684330977E-02  0.16485629750E-02  0.46319275869E-01  0.46917847560E-01  0.51109989000E-03 0. -1.
     -623    1    1    2    0    0  0.61851387693E-02  0.96022459918E-02  0.81746040258E-03  0.17130000038E+03  0.17130000000E+03 0.  1.
      622    1    1    2    0    0  0.10832943273E-02 -0.11250808968E-01  0.39528632318E+01  0.39530817704E+01  0.40000000000E-01 0. -1.
</event>
<event>
 5   0  0.7212170E+07  0.9118800E+02  0.7818608E-02  0.1180000E+00
       11   -1    0    0    0    0  0.00000000000E+00  0.00000000000E+00  0.39999999673E+01  0.40000000000E+01  0.51109989000E-03 0. -1.
     -623   -1    0    0    0    0  0.00000000000E+00  0.00000000000E+00  0.12525980253E-10  0.17130000000E+03  0.17130000000E+03 0.  1.
       11    1    1    2    0    0 -0.22884305006E-01  0.48512064648E-02  0.13881014147E+01  0.13882986077E+01  0.51109989000E-03 0. -1.
     -623    1    1    2    0    0  0.53699994625E-02 -0.42599127245E-02  0.56243095944E-03  0.17130000014E+03  0.17130000000E+03 0.  1.
      622    1    1    2    0    0  0.17514305543E-01 -0.59129374004E-03  0.26113361219E+01  0.26117012544E+01  0.40000000000E-01 0. -1.
</event>
<event>
 5   0  0.7212170E+07  0.9118800E+02  0.7818608E-02  0.1180000E+00
       11   -1    0    0    0    0  0.00000000000E+00  0.00000000000E+00  0.39999999673E+01  0.40000000000E+01  0.51109989000E-03 0.  1.
     -623   -1    0    0    0    0  0.00000000000E+00  0.00000000000E+00  0.12525980253E-10  0.17130000000E+03  0.17130000000E+03 0.  1.
       11    1    1    2    0    0 -0.41398174608E-02 -0.91017733466E-03  0.46083249973E-01  0.46280597042E-01  0.51109989000E-03 0. -1.
     -623    1    1    2    0    0 -0.67691010921E-02  0.13857548005E-01  0.43660687358E-03  0.17130000069E+03  0.17130000000E+03 0.  1.
      622    1    1    2    0    0  0.10908918554E-01 -0.12947370672E-01  0.39534801112E+01  0.39537187088E+01  0.40000000000E-01 0.  1.
</event>
<event>
 5   0  0.7212170E+07  0.9118800E+02  0.7818608E-02  0.1180000E+00
       11   -1    0    0    0    0  0.00000000000E+00  0.00000000000E+00  0.39999999673E+01  0.40000000000E+01  0.51109989000E-03 0. -1.
     -623   -1    0    0    0    0  0.00000000000E+00  0.00000000000E+00  0.12525980253E-10  0.17130000000E+03  0.17130000000E+03 0. -1.
       11    1    1    2    0    0  0.10023511828E-02  0.97811193217E-03  0.30798498946E-02  0.34217114601E-02  0.51109989000E-03 0. -1.
     -623    1    1    2    0    0 -0.48894317461E-03 -0.80687762299E-02  0.54852015808E-03  0.17130000019E+03  0.17130000000E+03 0. -1.
      622    1    1    2    0    0 -0.51340800813E-03  0.70906642983E-02  0.39963715976E+01  0.39965780972E+01  0.40000000000E-01 0. -1.
</event>
<event>
 5   0  0.7212170E+07  0.9118800E+02  0.7818608E-02  0.1180000E+00
       11   -1    0    0    0    0  0.00000000000E+00  0.00000000000E+00  0.39999999673E+01  0.40000000000E+01  0.51109989000E-03 0. -1.
     -623   -1    0    0    0    0  0.00000000000E+00  0.00000000000E+00  0.12525980253E-10  0.17130000000E+03  0.17130000000E+03 0. -1.
       11    1    1    2    0    0  0.18091791665E-02 -0.39484379116E-03  0.92178456975E-02  0.94158872804E-02  0.51109989000E-03 0. -1.
     -623    1    1    2    0    0  0.31154771807E-02 -0.19015077435E-02  0.40222482221E-03  0.17130000004E+03  0.17130000000E+03 0. -1.
      622    1    1    2    0    0 -0.49246563480E-02  0.22963515351E-02  0.39903798979E+01  0.39905840744E+01  0.40000000000E-01 0. -1.
</event>
<event>
 5   0  0.7212170E+07  0.9118800E+02  0.7818608E-02  0.1180000E+00
       11   -1    0    0    0    0  0.00000000000E+00  0.00000000000E+00  0.39999999673E+01  0.40000000000E+01  0.51109989000E-03 0.  1.
     -623   -1    0    0    0    0  0.00000000000E+00  0.00000000000E+00  0.12525980253E-10  0.17130000000E+03  0.17130000000E+03 0.  1.
       11    1    1    2    0    0 -0.56593142836E-02 -0.87456914396E-02  0.43363840247E-01  0.44600435211E-01  0.51109989000E-03 0.  1.
     -623    1    1    2    0    0  0.63561149247E-02  0.92472338138E-02  0.14392894234E-02  0.17130000037E+03  0.17130000000E+03 0.  1.
      622    1    1    2    0    0 -0.69680064118E-03 -0.50154237426E-03  0.39551968377E+01  0.39553991913E+01  0.40000000000E-01 0.  1.
</event>
<event>
 5   0  0.7212170E+07  0.9118800E+02  0.7818608E-02  0.1180000E+00
       11   -1    0    0    0    0  0.00000000000E+00  0.00000000000E+00  0.39999999673E+01  0.40000000000E+01  0.51109989000E-03 0. -1.
     -623   -1    0    0    0    0  0.00000000000E+00  0.00000000000E+00  0.12525980253E-10  0.17130000000E+03  0.17130000000E+03 0. -1.
       11    1    1    2    0    0 -0.15949985505E-04  0.37049284918E-02  0.23244838786E-01  0.23543799669E-01  0.51109989000E-03 0. -1.
     -623    1    1    2    0    0 -0.85152313343E-03 -0.11380993782E-04  0.50193043992E-03  0.17130000000E+03  0.17130000000E+03 0. -1.
      622    1    1    2    0    0  0.86747311880E-03 -0.36935474981E-02  0.39762531975E+01  0.39764561969E+01  0.40000000000E-01 0. -1.
</event>
<event>
 5   0  0.7212170E+07  0.9118800E+02  0.7818608E-02  0.1180000E+00
       11   -1    0    0    0    0  0.00000000000E+00  0.00000000000E+00  0.39999999673E+01  0.40000000000E+01  0.51109989000E-03 0. -1.
     -623   -1    0    0    0    0  0.00000000000E+00  0.00000000000E+00  0.12525980253E-10  0.17130000000E+03  0.17130000000E+03 0. -1.
       11    1    1    2    0    0  0.25419697753E-01 -0.58751572711E-01  0.64516790154E+00  0.64833617108E+00  0.51109989000E-03 0. -1.
     -623    1    1    2    0    0 -0.17227253057E-01  0.74541366808E-02  0.38106243880E-02  0.17130000107E+03  0.17130000000E+03 0. -1.
      622    1    1    2    0    0 -0.81924446953E-02  0.51297436030E-01  0.33510214415E+01  0.33516627581E+01  0.40000000000E-01 0. -1.
</event>
<event>
 5   0  0.7212170E+07  0.9118800E+02  0.7818608E-02  0.1180000E+00
       11   -1    0    0    0    0  0.00000000000E+00  0.00000000000E+00  0.39999999673E+01  0.40000000000E+01  0.51109989000E-03 0.  1.
     -623   -1    0    0    0    0  0.00000000000E+00  0.00000000000E+00  0.12525980253E-10  0.17130000000E+03  0.17130000000E+03 0.  1.
       11    1    1    2    0    0  0.17603766607E-02 -0.35312990985E-02  0.11907329047E-01  0.12554469620E-01  0.51109989000E-03 0.  1.
     -623    1    1    2    0    0 -0.22558223153E-02  0.41861536636E-02  0.84789534244E-03  0.17130000007E+03  0.17130000000E+03 0.  1.
      622    1    1    2    0    0  0.49544565483E-03 -0.65485456560E-03  0.39872447434E+01  0.39874454627E+01  0.40000000000E-01 0.  1.
</event>
<event>
 5   0  0.7212170E+07  0.9118800E+02  0.7818608E-02  0.1180000E+00
       11   -1    0    0    0    0  0.00000000000E+00  0.00000000000E+00  0.39999999673E+01  0.40000000000E+01  0.51109989000E-03 0.  1.
     -623   -1    0    0    0    0  0.00000000000E+00  0.00000000000E+00  0.12525980253E-10  0.17130000000E+03  0.17130000000E+03 0.  1.
       11    1    1    2    0    0 -0.21939956103E-02 -0.47128801571E-02  0.42761574090E-02  0.67506741439E-02  0.51109989000E-03 0.  1.
     -623    1    1    2    0    0  0.23848236117E-01 -0.30147692993E-02  0.27427293031E-02  0.17130000171E+03  0.17130000000E+03 0.  1.
      622    1    1    2    0    0 -0.21654240507E-01  0.77276494565E-02  0.39929810807E+01  0.39932476174E+01  0.40000000000E-01 0.  1.
</event>
<event>
 5   0  0.7212170E+07  0.9118800E+02  0.7818608E-02  0.1180000E+00
       11   -1    0    0    0    0  0.00000000000E+00  0.00000000000E+00  0.39999999673E+01  0.40000000000E+01  0.51109989000E-03 0. -1.
     -623   -1    0    0    0    0  0.00000000000E+00  0.00000000000E+00  0.12525980253E-10  0.17130000000E+03  0.17130000000E+03 0.  1.
       11    1    1    2    0    0 -0.46523386961E-02  0.56030177363E-02  0.12229546796E+01  0.12229764706E+01  0.51109989000E-03 0. -1.
     -623    1    1    2    0    0 -0.59024563427E-03 -0.87866791124E-03  0.31882322342E-03  0.17130000000E+03  0.17130000000E+03 0.  1.
      622    1    1    2    0    0  0.52425843304E-02 -0.47243498249E-02  0.27767264652E+01  0.27770235265E+01  0.40000000000E-01 0. -1.
</event>
<event>
 5   0  0.7212170E+07  0.9118800E+02  0.7818608E-02  0.1180000E+00
       11   -1    0    0    0    0  0.00000000000E+00  0.00000000000E+00  0.39999999673E+01  0.40000000000E+01  0.51109989000E-03 0.  1.
     -623   -1    0    0    0    0  0.00000000000E+00  0.00000000000E+00  0.12525980253E-10  0.17130000000E+03  0.17130000000E+03 0. -1.
       11    1    1    2    0    0  0.11607137630E-01  0.24541211787E-02  0.32206102936E-01  0.34325539240E-01  0.51109989000E-03 0.  1.
     -623    1    1    2    0    0 -0.28227868198E-02 -0.28824487964E-02  0.23309560309E-02  0.17130000006E+03  0.17130000000E+03 0. -1.
      622    1    1    2    0    0 -0.87843508105E-02  0.42832761778E-03  0.39654629085E+01  0.39656743975E+01  0.40000000000E-01 0.  1.
</event>
<event>
 5   0  0.7212170E+07  0.9118800E+02  0.7818608E-02  0.1180000E+00
       11   -1    0    0    0    0  0.00000000000E+00  0.00000000000E+00  0.39999999673E+01  0.40000000000E+01  0.51109989000E-03 0.  1.
     -623   -1    0    0    0    0  0.00000000000E+00  0.00000000000E+00  0.12525980253E-10  0.17130000000E+03  0.17130000000E+03 0.  1.
       11    1    1    2    0    0  0.51173203129E-02 -0.80248957482E-03  0.65532415898E-01  0.65738799147E-01  0.51109989000E-03 0.  1.
     -623    1    1    2    0    0  0.16042796291E-02 -0.63909312911E-02  0.42214373444E-03  0.17130000013E+03  0.17130000000E+03 0.  1.
      622    1    1    2    0    0 -0.67215999423E-02  0.71934208673E-02  0.39340454086E+01  0.39342610745E+01  0.40000000000E-01 0.  1.
</event>
<event>
 5   0  0.7212170E+07  0.9118800E+02  0.7818608E-02  0.1180000E+00
       11   -1    0    0    0    0  0.00000000000E+00  0.00000000000E+00  0.39999999673E+01  0.40000000000E+01  0.51109989000E-03 0. -1.
     -623   -1    0    0    0    0  0.00000000000E+00  0.00000000000E+00  0.12525980253E-10  0.17130000000E+03  0.17130000000E+03 0. -1.
       11    1    1    2    0    0  0.20996088851E-03 -0.50561813811E-03  0.19384354883E-02  0.20780973308E-02  0.51109989000E-03 0. -1.
     -623    1    1    2    0    0  0.13356273176E-03  0.15399845329E-03  0.33976885036E-03  0.17130000000E+03  0.17130000000E+03 0. -1.
      622    1    1    2    0    0 -0.34352362027E-03  0.35161968481E-03  0.39977217632E+01  0.39979219024E+01  0.40000000000E-01 0. -1.
</event>
<event>
 5   0  0.7212170E+07  0.9118800E+02  0.7818608E-02  0.1180000E+00
       11   -1    0    0    0    0  0.00000000000E+00  0.00000000000E+00  0.39999999673E+01  0.40000000000E+01  0.51109989000E-03 0.  1.
     -623   -1    0    0    0    0  0.00000000000E+00  0.00000000000E+00  0.12525980253E-10  0.17130000000E+03  0.17130000000E+03 0. -1.
       11    1    1    2    0    0 -0.21592362936E-02 -0.68589300161E-04  0.14194698614E-01  0.14367243915E-01  0.51109989000E-03 0.  1.
     -623    1    1    2    0    0  0.49184852138E-03 -0.30545543710E-03  0.37360639831E-03  0.17130000000E+03  0.17130000000E+03 0. -1.
      622    1    1    2    0    0  0.16673877722E-02  0.37404473731E-03  0.39854316630E+01  0.39856327554E+01  0.40000000000E-01 0.  1.
</event>
<event>
 5   0  0.7212170E+07  0.9118800E+02  0.7818608E-02  0.1180000E+00
       11   -1    0    0    0    0  0.00000000000E+00  0.00000000000E+00  0.39999999673E+01  0.40000000000E+01  0.51109989000E-03 0.  1.
     -623   -1    0    0    0    0  0.00000000000E+00  0.00000000000E+00  0.12525980253E-10  0.17130000000E+03  0.17130000000E+03 0.  1.
       11    1    1    2    0    0  0.48097411982E-03 -0.49562097602E-02  0.81972230975E-01  0.82124924508E-01  0.51109989000E-03 0.  1.
     -623    1    1    2    0    0 -0.10325350221E-02  0.71653389874E-02  0.35767356490E-03  0.17130000015E+03  0.17130000000E+03 0.  1.
      622    1    1    2    0    0  0.55156090241E-03 -0.22091292279E-02  0.39176700632E+01  0.39178749225E+01  0.40000000000E-01 0.  1.
</event>
<event>
 5   0  0.7212170E+07  0.9118800E+02  0.7818608E-02  0.1180000E+00
       11   -1    0    0    0    0  0.00000000000E+00  0.00000000000E+00  0.39999999673E+01  0.40000000000E+01  0.51109989000E-03 0. -1.
     -623   -1    0    0    0    0  0.00000000000E+00  0.00000000000E+00  0.12525980253E-10  0.17130000000E+03  0.17130000000E+03 0.  1.
       11    1    1    2    0    0  0.45822153865E-01 -0.11393170002E+00  0.16888591571E+01  0.16933179311E+01  0.51109989000E-03 0. -1.
     -623    1    1    2    0    0 -0.12415778428E-01  0.19571138471E-02  0.77682973686E-02  0.17130000064E+03  0.17130000000E+03 0.  1.
      622    1    1    2    0    0 -0.33406375437E-01  0.11197458618E+00  0.23033725129E+01  0.23066814316E+01  0.40000000000E-01 0. -1.
</event>
<event>
 5   0  0.7212170E+07  0.9118800E+02  0.7818608E-02  0.1180000E+00
       11   -1    0    0    0    0  0.00000000000E+00  0.00000000000E+00  0.39999999673E+01  0.40000000000E+01  0.51109989000E-03 0.  1.
     -623   -1    0    0    0    0  0.00000000000E+00  0.00000000000E+00  0.12525980253E-10  0.17130000000E+03  0.17130000000E+03 0. -1.
       11    1    1    2    0    0  0.41207071974E-02  0.57620422574E-02  0.10820180966E+00  0.10843465403E+00  0.51109989000E-03 0.  1.
     -623    1    1    2    0    0  0.32793069466E-02 -0.15604990098E-02  0.44773341704E-03  0.17130000004E+03  0.17130000000E+03 0. -1.
      622    1    1    2    0    0 -0.74000141449E-02 -0.42015432471E-02  0.38913504255E+01  0.38915653081E+01  0.40000000000E-01 0.  1.
</event>
<event>
 5   0  0.7212170E+07  0.9118800E+02  0.7818608E-02  0.1180000E+00
       11   -1    0    0    0    0  0.00000000000E+00  0.00000000000E+00  0.39999999673E+01  0.40000000000E+01  0.51109989000E-03 0. -1.
     -623   -1    0    0    0    0  0.00000000000E+00  0.00000000000E+00  0.12525980253E-10  0.17130000000E+03  0.17130000000E+03 0.  1.
       11    1    1    2    0    0 -0.13509126525E-02 -0.33103328216E-02  0.95660554019E-01  0.95728710880E-01  0.51109989000E-03 0. -1.
     -623    1    1    2    0    0 -0.23004743582E-02  0.27301637847E-02  0.27482145740E-03  0.17130000004E+03  0.17130000000E+03 0.  1.
      622    1    1    2    0    0  0.36513870113E-02  0.58016903628E-03  0.39040645929E+01  0.39042712527E+01  0.40000000000E-01 0. -1.
</event>
<event>
 5   0  0.7212170E+07  0.9118800E+02  0.7818608E-02  0.1180000E+00
       11   -1    0    0    0    0  0.00000000000E+00  0.00000000000E+00  0.39999999673E+01  0.40000000000E+01  0.51109989000E-03 0. -1.
     -623   -1    0    0    0    0  0.00000000000E+00  0.00000000000E+00  0.12525980253E-10  0.17130000000E+03  0.17130000000E+03 0. -1.
       11    1    1    2    0    0  0.23393104611E-03 -0.16040006484E-02  0.48311660577E-02  0.51214187867E-02  0.51109989000E-03 0. -1.
     -623    1    1    2    0    0  0.66439463961E-03  0.22668004927E-02  0.49065449179E-03  0.17130000002E+03  0.17130000000E+03 0. -1.
      622    1    1    2    0    0 -0.89832568590E-03 -0.66279984482E-03  0.39946781478E+01  0.39948785653E+01  0.40000000000E-01 0. -1.
</event>
<event>
 5   0  0.7212170E+07  0.9118800E+02  0.7818608E-02  0.1180000E+00
       11   -1    0    0    0    0  0.00000000000E+00  0.00000000000E+00  0.39999999673E+01  0.40000000000E+01  0.51109989000E-03 0. -1.
     -623   -1    0    0    0    0  0.00000000000E+00  0.00000000000E+00  0.12525980253E-10  0.17130000000E+03  0.17130000000E+03 0. -1.
       11    1    1    2    0    0 -0.10890641172E-02  0.39731756668E-03  0.20378553902E+00  0.20378947730E+00  0.51109989000E-03 0. -1.
     -623    1    1    2    0    0  0.34614109339E-03 -0.90860610296E-03  0.21475798600E-03  0.17130000000E+03  0.17130000000E+03 0. -1.
      622    1    1    2    0    0  0.74292302377E-03  0.51128853646E-03  0.37959996711E+01  0.37962105206E+01  0.40000000000E-01 0. -1.
</event>
<event>
 5   0  0.7212170E+07  0.9118800E+02  0.7818608E-02  0.1180000E+00
       11   -1    0    0    0    0  0.00000000000E+00  0.00000000000E+00  0.39999999673E+01  0.40000000000E+01  0.51109989000E-03 0.  1.
     -623   -1    0    0    0    0  0.00000000000E+00  0.00000000000E+00  0.12525980253E-10  0.17130000000E+03  0.17130000000E+03 0.  1.
       11    1    1    2    0    0  0.22693930232E-02  0.15192037850E-03 -0.13773719704E-03  0.23352556880E-02  0.51109989000E-03 0.  1.
     -623    1    1    2    0    0 -0.14003372964E-02 -0.53988940574E-03  0.26732228133E-02  0.17130000003E+03  0.17130000000E+03 0.  1.
      622    1    1    2    0    0 -0.86905572684E-03  0.38796902725E-03  0.39974644818E+01  0.39976647169E+01  0.40000000000E-01 0.  1.
</event>
<event>
 5   0  0.7212170E+07  0.9118800E+02  0.7818608E-02  0.1180000E+00
       11   -1    0    0    0    0  0.00000000000E+00  0.00000000000E+00  0.39999999673E+01  0.40000000000E+01  0.51109989000E-03 0.  1.
     -623   -1    0    0    0    0  0.00000000000E+00  0.00000000000E+00  0.12525980253E-10  0.17130000000E+03  0.17130000000E+03 0. -1.
       11    1    1    2    0    0 -0.14691281348E-01 -0.91967743779E-02  0.11772338933E+01  0.11773615906E+01  0.51109989000E-03 0.  1.
     -623    1    1    2    0    0  0.23959335945E-03  0.14944350128E-02  0.45861891866E-03  0.17130000001E+03  0.17130000000E+03 0. -1.
      622    1    1    2    0    0  0.14451687989E-01  0.77023393652E-02  0.28223074551E+01  0.28226384020E+01  0.40000000000E-01 0.  0.
</event>
<event>
 5   0  0.7212170E+07  0.9118800E+02  0.7818608E-02  0.1180000E+00
       11   -1    0    0    0    0  0.00000000000E+00  0.00000000000E+00  0.39999999673E+01  0.40000000000E+01  0.51109989000E-03 0. -1.
     -623   -1    0    0    0    0  0.00000000000E+00  0.00000000000E+00  0.12525980253E-10  0.17130000000E+03  0.17130000000E+03 0. -1.
       11    1    1    2    0    0  0.19272519847E-02  0.57923267696E-03  0.27859095835E-01  0.27936360796E-01  0.51109989000E-03 0. -1.
     -623    1    1    2    0    0 -0.11136275093E-02 -0.14663767954E-02  0.27883660285E-03  0.17130000001E+03  0.17130000000E+03 0. -1.
      622    1    1    2    0    0 -0.81362447526E-03  0.88714411867E-03  0.39718620355E+01  0.39720636297E+01  0.40000000000E-01 0. -1.
</event>
<event>
 5   0  0.7212170E+07  0.9118800E+02  0.7818608E-02  0.1180000E+00
       11   -1    0    0    0    0  0.00000000000E+00  0.00000000000E+00  0.39999999673E+01  0.40000000000E+01  0.51109989000E-03 0. -1.
     -623   -1    0    0    0    0  0.00000000000E+00  0.00000000000E+00  0.12525980253E-10  0.17130000000E+03  0.17130000000E+03 0. -1.
       11    1    1    2    0    0 -0.26829044021E-02 -0.56953004819E-03  0.24853737415E+00  0.24855303239E+00  0.51109989000E-03 0. -1.
     -623    1    1    2    0    0  0.98466069651E-03  0.10383562135E-02  0.22930255447E-03  0.17130000001E+03  0.17130000000E+03 0. -1.
      622    1    1    2    0    0  0.16982437060E-02 -0.46882616485E-03  0.37512332890E+01  0.37514469598E+01  0.40000000000E-01 0. -1.
</event>
<event>
 5   0  0.7212170E+07  0.9118800E+02  0.7818608E-02  0.1180000E+00
       11   -1    0    0    0    0  0.00000000000E+00  0.00000000000E+00  0.39999999673E+01  0.40000000000E+01  0.51109989000E-03 0.  1.
     -623   -1    0    0    0    0  0.00000000000E+00  0.00000000000E+00  0.12525980253E-10  0.17130000000E+03  0.17130000000E+03 0.  1.
       11    1    1    2    0    0  0.46532991112E-02  0.17864722490E-01  0.62562911108E+00  0.62590162754E+00  0.51109989000E-03 0.  1.
     -623    1    1    2    0    0 -0.87230292505E-03 -0.21210699339E-02  0.54846039302E-03  0.17130000002E+03  0.17130000000E+03 0.  1.
      622    1    1    2    0    0 -0.37809961860E-02 -0.15743652555E-01  0.33738223965E+01  0.33740983568E+01  0.40000000000E-01 0.  0.
</event>
<event>
 5   0  0.7212170E+07  0.9118800E+02  0.7818608E-02  0.1180000E+00
       11   -1    0    0    0    0  0.00000000000E+00  0.00000000000E+00  0.39999999673E+01  0.40000000000E+01  0.51109989000E-03 0.  1.
     -623   -1    0    0    0    0  0.00000000000E+00  0.00000000000E+00  0.12525980253E-10  0.17130000000E+03  0.17130000000E+03 0.  1.
       11    1    1    2    0    0  0.18384468813E-01  0.28121008558E-01  0.36308695559E+00  0.36463842140E+00  0.51109989000E-03 0.  1.
     -623    1    1    2    0    0 -0.32539963888E-02  0.31624942591E-02  0.19376746047E-02  0.17130000007E+03  0.17130000000E+03 0.  1.
      622    1    1    2    0    0 -0.15130472424E-01 -0.31283502817E-01  0.36349753371E+01  0.36353615075E+01  0.40000000000E-01 0.  1.
</event>
<event>
 5   0  0.7212170E+07  0.9118800E+02  0.7818608E-02  0.1180000E+00
       11   -1    0    0    0    0  0.00000000000E+00  0.00000000000E+00  0.39999999673E+01  0.40000000000E+01  0.51109989000E-03 0. -1.
     -623   -1    0    0    0    0  0.00000000000E+00  0.00000000000E+00  0.12525980253E-10  0.17130000000E+03  0.17130000000E+03 0.  1.
       11    1    1    2    0    0 -0.74838516797E-03  0.72911274613E-03  0.31428989637E-01  0.31450505535E-01  0.51109989000E-03 0. -1.
     -623    1    1    2    0    0  0.10907798629E-02 -0.64306026876E-03  0.22309389589E-03  0.17130000000E+03  0.17130000000E+03 0.  1.
      622    1    1    2    0    0 -0.34239469457E-03 -0.86052477579E-04  0.39683478825E+01  0.39685494884E+01  0.40000000000E-01 0. -1.
</event>
<event>
 5   0  0.7212170E+07  0.9118800E+02  0.7818608E-02  0.1180000E+00
       11   -1    0    0    0    0  0.00000000000E+00  0.00000000000E+00  0.39999999673E+01  0.40000000000E+01  0.51109989000E-03 0. -1.
     -623   -1    0    0    0    0  0.00000000000E+00  0.00000000000E+00  0.12525980253E-10  0.17130000000E+03  0.17130000000E+03 0.  1.
       11    1    1    2    0    0  0.18967350731E-02  0.32862946624E-03  0.43629989938E-02  0.47961009770E-02  0.51109989000E-03 0. -1.
     -623    1    1    2    0    0 -0.67707807022E-03  0.10233026094E-02  0.63373495014E-03  0.17130000001E+03  0.17130000000E+03 0.  1.
      622    1    1    2    0    0 -0.12196570029E-02 -0.13519320757E-02  0.39950032334E+01  0.39952038934E+01  0.40000000000E-01 0. -1.
</event>
<event>
 5   0  0.7212170E+07  0.9118800E+02  0.7818608E-02  0.1180000E+00
       11   -1    0    0    0    0  0.00000000000E+00  0.00000000000E+00  0.39999999673E+01  0.40000000000E+01  0.51109989000E-03 0.  1.
     -623   -1    0    0    0    0  0.00000000000E+00  0.00000000000E+00  0.12525980253E-10  0.17130000000E+03  0.17130000000E+03 0. -1.
       11    1    1    2    0    0  0.11352395591E-01 -0.51405975619E-01  0.35011128380E+01  0.35015086487E+01  0.51109989000E-03 0.  1.
     -623    1    1    2    0    0  0.28355388819E-02  0.62628332485E-01  0.23441451281E-02  0.17130001149E+03  0.17130000000E+03 0. -1.
      622    1    1    2    0    0 -0.14187934473E-01 -0.11222356867E-01  0.49654298428E+00  0.49847986320E+00  0.40000000000E-01 0.  1.
</event>
<event>
 5   0  0.7212170E+07  0.9118800E+02  0.7818608E-02  0.1180000E+00
       11   -1    0    0    0    0  0.00000000000E+00  0.00000000000E+00  0.39999999673E+01  0.40000000000E+01  0.51109989000E-03 0.  1.
     -623   -1    0    0    0    0  0.00000000000E+00  0.00000000000E+00  0.12525980253E-10  0.17130000000E+03  0.17130000000E+03 0. -1.
       11    1    1    2    0    0 -0.10126984627E-03  0.16117624903E-02  0.33658304174E-01  0.33700900535E-01  0.51109989000E-03 0.  1.
     -623    1    1    2    0    0 -0.12478202601E-02 -0.28447045917E-02  0.24471764649E-03  0.17130000003E+03  0.17130000000E+03 0. -1.
      622    1    1    2    0    0  0.13490901066E-02  0.12329421019E-02  0.39660969464E+01  0.39662990720E+01  0.40000000000E-01 0.  1.
</event>
<event>
 5   0  0.7212170E+07  0.9118800E+02  0.7818608E-02  0.1180000E+00
       11   -1    0    0    0    0  0.00000000000E+00  0.00000000000E+00  0.39999999673E+01  0.40000000000E+01  0.51109989000E-03 0.  1.
     -623   -1    0    0    0    0  0.00000000000E+00  0.00000000000E+00  0.12525980253E-10  0.17130000000E+03  0.17130000000E+03 0.  1.
       11    1    1    2    0    0 -0.85258548213E-02 -0.51054247035E-03  0.19626630748E+00  0.19645273103E+00  0.51109989000E-03 0.  1.
     -623    1    1    2    0    0 -0.13055971245E-02  0.21026039294E-03  0.40945109585E-03  0.17130000001E+03  0.17130000000E+03 0.  1.
      622    1    1    2    0    0  0.98314519457E-02  0.30028207742E-03  0.38033242086E+01  0.38035472632E+01  0.40000000000E-01 0.  1.
</event>
<event>
 5   0  0.7212170E+07  0.9118800E+02  0.7818608E-02  0.1180000E+00
       11   -1    0    0    0    0  0.00000000000E+00  0.00000000000E+00  0.39999999673E+01  0.40000000000E+01  0.51109989000E-03 0.  1.
     -623   -1    0    0    0    0  0.00000000000E+00  0.00000000000E+00  0.12525980253E-10  0.17130000000E+03  0.17130000000E+03 0.  1.
       11    1    1    2    0    0 -0.26215133118E-01 -0.20641324183E-01  0.40554160817E+00  0.40691221983E+00  0.51109989000E-03 0.  1.
     -623    1    1    2    0    0  0.26882455685E-03  0.23744770899E-02  0.17333871720E-02  0.17130000003E+03  0.17130000000E+03 0.  1.
      622    1    1    2    0    0  0.25946308561E-01  0.18266847093E-01  0.35927249721E+01  0.35930877548E+01  0.40000000000E-01 0.  1.
</event>
<event>
 5   0  0.7212170E+07  0.9118800E+02  0.7818608E-02  0.1180000E+00
       11   -1    0    0    0    0  0.00000000000E+00  0.00000000000E+00  0.39999999673E+01  0.40000000000E+01  0.51109989000E-03 0. -1.
     -623   -1    0    0    0    0  0.00000000000E+00  0.00000000000E+00  0.12525980253E-10  0.17130000000E+03  0.17130000000E+03 0. -1.
       11    1    1    2    0    0 -0.46157526689E-01  0.62124569826E-02  0.17047458239E+01  0.17053819799E+01  0.51109989000E-03 0. -1.
     -623    1    1    2    0    0 -0.59434137514E-02 -0.51021089422E-02  0.15769075978E-02  0.17130000019E+03  0.17130000000E+03 0. -1.
      622    1    1    2    0    0  0.52100940440E-01 -0.11103480402E-02  0.22936772359E+01  0.22946178338E+01  0.40000000000E-01 0. -1.
</event>
<event>
 5   0  0.7212170E+07  0.9118800E+02  0.7818608E-02  0.1180000E+00
       11   -1    0    0    0    0  0.00000000000E+00  0.00000000000E+00  0.39999999673E+01  0.40000000000E+01  0.51109989000E-03 0.  1.
     -623   -1    0    0    0    0  0.00000000000E+00  0.00000000000E+00  0.12525980253E-10  0.17130000000E+03  0.17130000000E+03 0. -1.
       11    1    1    2    0    0  0.10706837280E-01 -0.40460020663E-02  0.27442692328E+00  0.27466598614E+00  0.51109989000E-03 0.  1.
     -623    1    1    2    0    0 -0.15130238828E-03 -0.67029602445E-03  0.47172506269E-03  0.17130000000E+03  0.17130000000E+03 0. -1.
      622    1    1    2    0    0 -0.10555534892E-01  0.47162980909E-02  0.37251013197E+01  0.37253340125E+01  0.40000000000E-01 0.  1.
</event>
<event>
 5   0  0.7212170E+07  0.9118800E+02  0.7818608E-02  0.1180000E+00
       11   -1    0    0    0    0  0.00000000000E+00  0.00000000000E+00  0.39999999673E+01  0.40000000000E+01  0.51109989000E-03 0.  1.
     -623   -1    0    0    0    0  0.00000000000E+00  0.00000000000E+00  0.12525980253E-10  0.17130000000E+03  0.17130000000E+03 0. -1.
       11    1    1    2    0    0 -0.91930528986E-03  0.62567337645E-07  0.19993545905E-02  0.22591511893E-02  0.51109989000E-03 0.  1.
     -623    1    1    2    0    0  0.11222444581E-03  0.79959381776E-03  0.46004596249E-03  0.17130000000E+03  0.17130000000E+03 0. -1.
      622    1    1    2    0    0  0.80708084403E-03 -0.79965638523E-03  0.39975405675E+01  0.39977408469E+01  0.40000000000E-01 0.  1.
</event>
<event>
 5   0  0.7212170E+07  0.9118800E+02  0.7818608E-02  0.1180000E+00
       11   -1    0    0    0    0  0.00000000000E+00  0.00000000000E+00  0.39999999673E+01  0.40000000000E+01  0.51109989000E-03 0.  1.
     -623   -1    0    0    0    0  0.00000000000E+00  0.00000000000E+00  0.12525980253E-10  0.17130000000E+03  0.17130000000E+03 0.  1.
       11    1    1    2    0    0  0.11453951373E-01 -0.16912941370E-01  0.78592679206E+00  0.78619235833E+00  0.51109989000E-03 0.  1.
     -623    1    1    2    0    0  0.16896334321E-02 -0.61944255345E-03  0.58918559198E-03  0.17130000001E+03  0.17130000000E+03 0.  1.
      622    1    1    2    0    0 -0.13143584805E-01  0.17532383924E-01  0.32134839901E+01  0.32138076316E+01  0.40000000000E-01 0.  0.
</event>
<event>
 5   0  0.7212170E+07  0.9118800E+02  0.7818608E-02  0.1180000E+00
       11   -1    0    0    0    0  0.00000000000E+00  0.00000000000E+00  0.39999999673E+01  0.40000000000E+01  0.51109989000E-03 0.  1.
     -623   -1    0    0    0    0  0.00000000000E+00  0.00000000000E+00  0.12525980253E-10  0.17130000000E+03  0.17130000000E+03 0.  1.
       11    1    1    2    0    0 -0.44701402870E-02 -0.92326435262E-03  0.23316750917E-01  0.23764819959E-01  0.51109989000E-03 0.  1.
     -623    1    1    2    0    0 -0.98410034525E-03  0.70297507959E-03  0.65298946002E-03  0.17130000001E+03  0.17130000000E+03 0.  1.
      622    1    1    2    0    0  0.54542406324E-02  0.22028927297E-03  0.39760302273E+01  0.39762351749E+01  0.40000000000E-01 0.  1.
</event>
<event>
 5   0  0.7212170E+07  0.9118800E+02  0.7818608E-02  0.1180000E+00
       11   -1    0    0    0    0  0.00000000000E+00  0.00000000000E+00  0.39999999673E+01  0.40000000000E+01  0.51109989000E-03 0.  1.
     -623   -1    0    0    0    0  0.00000000000E+00  0.00000000000E+00  0.12525980253E-10  0.17130000000E+03  0.17130000000E+03 0. -1.
       11    1    1    2    0    0  0.39058658904E-02  0.33793562989E-02  0.68136495153E-02  0.85652133753E-02  0.51109989000E-03 0.  1.
     -623    1    1    2    0    0 -0.55221851338E-02 -0.22734893362E-01  0.20008349190E-02  0.17130000161E+03  0.17130000000E+03 0. -1.
      622    1    1    2    0    0  0.16163192436E-02  0.19355537064E-01  0.39911854831E+01  0.39914331775E+01  0.40000000000E-01 0.  1.
</event>
<event>
 5   0  0.7212170E+07  0.9118800E+02  0.7818608E-02  0.1180000E+00
       11   -1    0    0    0    0  0.00000000000E+00  0.00000000000E+00  0.39999999673E+01  0.40000000000E+01  0.51109989000E-03 0. -1.
     -623   -1    0    0    0    0  0.00000000000E+00  0.00000000000E+00  0.12525980253E-10  0.17130000000E+03  0.17130000000E+03 0. -1.
       11    1    1    2    0    0  0.42148031331E-02  0.12967123630E-02  0.15680420769E-01  0.16296712766E-01  0.51109989000E-03 0. -1.
     -623    1    1    2    0    0 -0.31355948944E-02 -0.17844360996E-02  0.81729857908E-03  0.17130000004E+03  0.17130000000E+03 0. -1.
      622    1    1    2    0    0 -0.10792082389E-02  0.48772373654E-03  0.39835022477E+01  0.39837032470E+01  0.40000000000E-01 0. -1.
</event>
<event>
 5   0  0.7212170E+07  0.9118800E+02  0.7818608E-02  0.1180000E+00
       11   -1    0    0    0    0  0.00000000000E+00  0.00000000000E+00  0.39999999673E+01  0.40000000000E+01  0.51109989000E-03 0.  1.
     -623   -1    0    0    0    0  0.00000000000E+00  0.00000000000E+00  0.12525980253E-10  0.17130000000E+03  0.17130000000E+03 0.  1.
       11    1    1    2    0    0 -0.44868774027E-02  0.17204937237E-02  0.75213491687E-01  0.75368579145E-01  0.51109989000E-03 0.  1.
     -623    1    1    2    0    0  0.28418577666E-04 -0.11616155523E-02  0.36147760798E-03  0.17130000000E+03  0.17130000000E+03 0.  1.
      622    1    1    2    0    0  0.44584588250E-02 -0.55887817116E-03  0.39244249989E+01  0.39246314174E+01  0.40000000000E-01 0.  1.
</event>
<event>
 5   0  0.7212170E+07  0.9118800E+02  0.7818608E-02  0.1180000E+00
       11   -1    0    0    0    0  0.00000000000E+00  0.00000000000E+00  0.39999999673E+01  0.40000000000E+01  0.51109989000E-03 0.  1.
     -623   -1    0    0    0    0  0.00000000000E+00  0.00000000000E+00  0.12525980253E-10  0.17130000000E+03  0.17130000000E+03 0. -1.
       11    1    1    2    0    0  0.27682972865E-01  0.36297543389E-01  0.57897947532E+00  0.58077650839E+00  0.51109989000E-03 0.  1.
     -623    1    1    2    0    0 -0.10124306226E-01 -0.92186183091E-02  0.21838663596E-02  0.17130000056E+03  0.17130000000E+03 0. -1.
      622    1    1    2    0    0 -0.17558666639E-01 -0.27078925079E-01  0.34188366259E+01  0.34192229307E+01  0.40000000000E-01 0.  1.
</event>
<event>
 5   0  0.7212170E+07  0.9118800E+02  0.7818608E-02  0.1180000E+00
       11   -1    0    0    0    0  0.00000000000E+00  0.00000000000E+00  0.39999999673E+01  0.40000000000E+01  0.51109989000E-03 0.  1.
     -623   -1    0    0    0    0  0.00000000000E+00  0.00000000000E+00  0.12525980253E-10  0.17130000000E+03  0.17130000000E+03 0.  1.
       11    1    1    2    0    0  0.33398855808E-02 -0.51175004901E-02  0.70316285878E-01  0.70583177385E-01  0.51109989000E-03 0.  1.
     -623    1    1    2    0    0 -0.61222182535E-02  0.28475574036E-02  0.47223121123E-03  0.17130000013E+03  0.17130000000E+03 0.  1.
      622    1    1    2    0    0  0.27823326750E-02  0.22699430854E-02  0.39292114518E+01  0.39294166904E+01  0.40000000000E-01 0.  1.
</event>
<event>
 5   0  0.7212170E+07  0.9118800E+02  0.7818608E-02  0.1180000E+00
       11   -1    0    0    0    0  0.00000000000E+00  0.00000000000E+00  0.39999999673E+01  0.40000000000E+01  0.51109989000E-03 0. -1.
     -623   -1    0    0    0    0  0.00000000000E+00  0.00000000000E+00  0.12525980253E-10  0.17130000000E+03  0.17130000000E+03 0.  1.
       11    1    1    2    0    0 -0.10689364633E-01 -0.10489687599E-01  0.17117626102E+00  0.17183093325E+00  0.51109989000E-03 0. -1.
     -623    1    1    2    0    0  0.20380807408E-01  0.98727178195E-02  0.87743964563E-03  0.17130000150E+03  0.17130000000E+03 0.  1.
      622    1    1    2    0    0 -0.96914427766E-02  0.61696977896E-03  0.38279462670E+01  0.38281675678E+01  0.40000000000E-01 0. -1.
</event>
<event>
 5   0  0.7212170E+07  0.9118800E+02  0.7818608E-02  0.1180000E+00
       11   -1    0    0    0    0  0.00000000000E+00  0.00000000000E+00  0.39999999673E+01  0.40000000000E+01  0.51109989000E-03 0. -1.
     -623   -1    0    0    0    0  0.00000000000E+00  0.00000000000E+00  0.12525980253E-10  0.17130000000E+03  0.17130000000E+03 0. -1.
       11    1    1    2    0    0  0.29160901917E-02 -0.33949775669E-03  0.42067681056E+00  0.42068736493E+00  0.51109989000E-03 0. -1.
     -623    1    1    2    0    0 -0.10864891649E-02 -0.93942904529E-03  0.23473762587E-03  0.17130000001E+03  0.17130000000E+03 0. -1.
      622    1    1    2    0    0 -0.18296010260E-02  0.12789268027E-02  0.35790884220E+01  0.35793126318E+01  0.40000000000E-01 0. -1.
</event>
<event>
 5   0  0.7212170E+07  0.9118800E+02  0.7818608E-02  0.1180000E+00
       11   -1    0    0    0    0  0.00000000000E+00  0.00000000000E+00  0.39999999673E+01  0.40000000000E+01  0.51109989000E-03 0. -1.
     -623   -1    0    0    0    0  0.00000000000E+00  0.00000000000E+00  0.12525980253E-10  0.17130000000E+03  0.17130000000E+03 0. -1.
       11    1    1    2    0    0 -0.15235643388E-01  0.17204919246E-01  0.12563118908E+01  0.12565221694E+01  0.51109989000E-03 0. -1.
     -623    1    1    2    0    0  0.15966443564E-01  0.60737897178E-02  0.60158593826E-03  0.17130000085E+03  0.17130000000E+03 0. -1.
      622    1    1    2    0    0 -0.73080017682E-03 -0.23278708964E-01  0.27430864908E+01  0.27434769779E+01  0.40000000000E-01 0. -1.
</event>
<event>
 5   0  0.7212170E+07  0.9118800E+02  0.7818608E-02  0.1180000E+00
       11   -1    0    0    0    0  0.00000000000E+00  0.00000000000E+00  0.39999999673E+01  0.40000000000E+01  0.51109989000E-03 0.  1.
     -623   -1    0    0    0    0  0.00000000000E+00  0.00000000000E+00  0.12525980253E-10  0.17130000000E+03  0.17130000000E+03 0. -1.
       11    1    1    2    0    0  0.38050989867E-02 -0.64632051554E-02  0.34727867520E+00  0.34736003120E+00  0.51109989000E-03 0.  1.
     -623    1    1    2    0    0 -0.39421585187E-02  0.56800310843E-02  0.30057593167E-03  0.17130000014E+03  0.17130000000E+03 0. -1.
      622    1    1    2    0    0  0.13705953167E-03  0.78317407163E-03  0.36524207158E+01  0.36526398286E+01  0.40000000000E-01 0.  1.
</event>
<event>
 5   0  0.7212170E+07  0.9118800E+02  0.7818608E-02  0.1180000E+00
       11   -1    0    0    0    0  0.00000000000E+00  0.00000000000E+00  0.39999999673E+01  0.40000000000E+01  0.51109989000E-03 0.  1.
     -623   -1    0    0    0    0  0.00000000000E+00  0.00000000000E+00  0.12525980253E-10  0.17130000000E+03  0.17130000000E+03 0. -1.
       11    1    1    2    0    0  0.11676253122E-01 -0.33416017612E-01  0.15557596866E+01  0.15561624043E+01  0.51109989000E-03 0.  1.
     -623    1    1    2    0    0 -0.24084042826E-02 -0.23175607565E-02  0.10089699257E-02  0.17130000004E+03  0.17130000000E+03 0. -1.
      622    1    1    2    0    0 -0.92678488393E-02  0.35733578369E-01  0.24432313111E+01  0.24438375603E+01  0.40000000000E-01 0.  1.
</event>
<event>
 5   0  0.7212170E+07  0.9118800E+02  0.7818608E-02  0.1180000E+00
       11   -1    0    0    0    0  0.00000000000E+00  0.00000000000E+00  0.39999999673E+01  0.40000000000E+01  0.51109989000E-03 0. -1.
     -623   -1    0    0    0    0  0.00000000000E+00  0.00000000000E+00  0.12525980253E-10  0.17130000000E+03  0.17130000000E+03 0.  1.
       11    1    1    2    0    0  0.26780196199E-02 -0.32085483800E-02  0.36688202898E+00  0.36690618826E+00  0.51109989000E-03 0. -1.
     -623    1    1    2    0    0 -0.57273084669E-04 -0.31306882504E-03  0.24698397460E-03  0.17130000000E+03  0.17130000000E+03 0.  1.
      622    1    1    2    0    0 -0.26207465352E-02  0.35216172050E-02  0.36328709535E+01  0.36330938103E+01  0.40000000000E-01 0.  1.
</event>
<event>
 5   0  0.7212170E+07  0.9118800E+02  0.7818608E-02  0.1180000E+00
       11   -1    0    0    0    0  0.00000000000E+00  0.00000000000E+00  0.39999999673E+01  0.40000000000E+01  0.51109989000E-03 0.  1.
     -623   -1    0    0    0    0  0.00000000000E+00  0.00000000000E+00  0.12525980253E-10  0.17130000000E+03  0.17130000000E+03 0. -1.
       11    1    1    2    0    0  0.13106432253E-02  0.16251101170E-02  0.53075942033E-02  0.57263031600E-02  0.51109989000E-03 0.  1.
     -623    1    1    2    0    0 -0.23313169544E-02 -0.53019814311E-03  0.61926636045E-03  0.17130000002E+03  0.17130000000E+03 0. -1.
      622    1    1    2    0    0  0.10206737290E-02 -0.10949119739E-02  0.39940731066E+01  0.39942736788E+01  0.40000000000E-01 0.  1.
</event>
<event>
 5   0  0.7212170E+07  0.9118800E+02  0.7818608E-02  0.1180000E+00
       11   -1    0    0    0    0  0.00000000000E+00  0.00000000000E+00  0.39999999673E+01  0.40000000000E+01  0.51109989000E-03 0. -1.
     -623   -1    0    0    0    0  0.00000000000E+00  0.00000000000E+00  0.12525980253E-10  0.17130000000E+03  0.17130000000E+03 0.  1.
       11    1    1    2    0    0 -0.26429685981E-02  0.43411399117E-03  0.29097493597E-02  0.39876813315E-02  0.51109989000E-03 0. -1.
     -623    1    1    2    0    0  0.19586220495E-02  0.51933921136E-02  0.12822200129E-02  0.17130000009E+03  0.17130000000E+03 0.  1.
      622    1    1    2    0    0  0.68434654843E-03 -0.56275061052E-02  0.39958079983E+01  0.39960122242E+01  0.40000000000E-01 0. -1.
</event>
<event>
 5   0  0.7212170E+07  0.9118800E+02  0.7818608E-02  0.1180000E+00
       11   -1    0    0    0    0  0.00000000000E+00  0.00000000000E+00  0.39999999673E+01  0.40000000000E+01  0.51109989000E-03 0.  1.
     -623   -1    0    0    0    0  0.00000000000E+00  0.00000000000E+00  0.12525980253E-10  0.17130000000E+03  0.17130000000E+03 0. -1.
       11    1    1    2    0    0  0.47672007901E-02 -0.14974926222E-02  0.80682616497E+00  0.80684180010E+00  0.51109989000E-03 0.  1.
     -623    1    1    2    0    0 -0.97507135435E-03  0.57946815071E-02  0.27139259408E-03  0.17130000010E+03  0.17130000000E+03 0. -1.
      622    1    1    2    0    0 -0.37921294361E-02 -0.42971888830E-02  0.31929024085E+01  0.31931580976E+01  0.40000000000E-01 0.  1.
</event>
<event>
 5   0  0.7212170E+07  0.9118800E+02  0.7818608E-02  0.1180000E+00
       11   -1    0    0    0    0  0.00000000000E+00  0.00000000000E+00  0.39999999673E+01  0.40000000000E+01  0.51109989000E-03 0. -1.
     -623   -1    0    0    0    0  0.00000000000E+00  0.00000000000E+00  0.12525980253E-10  0.17130000000E+03  0.17130000000E+03 0.  1.
       11    1    1    2    0    0 -0.37852688073E-02  0.46621676963E-03  0.95648120925E-01  0.95725492308E-01  0.51109989000E-03 0. -1.
     -623    1    1    2    0    0 -0.40387735302E-03 -0.59290563500E-03  0.28449905942E-03  0.17130000000E+03  0.17130000000E+03 0.  1.
      622    1    1    2    0    0  0.41891461603E-02  0.12668886535E-03  0.39040673472E+01  0.39042745058E+01  0.40000000000E-01 0. -1.
</event>
<event>
 5   0  0.7212170E+07  0.9118800E+02  0.7818608E-02  0.1180000E+00
       11   -1    0    0    0    0  0.00000000000E+00  0.00000000000E+00  0.39999999673E+01  0.40000000000E+01  0.51109989000E-03 0.  1.
     -623   -1    0    0    0    0  0.00000000000E+00  0.00000000000E+00  0.12525980253E-10  0.17130000000E+03  0.17130000000E+03 0. -1.
       11    1    1    2    0    0  0.34563266593E-02  0.72886296512E-02  0.46868292625E+00  0.46875261802E+00  0.51109989000E-03 0.  1.
     -623    1    1    2    0    0  0.15854838143E-03 -0.35932419981E-02  0.30003732476E-03  0.17130000004E+03  0.17130000000E+03 0. -1.
      622    1    1    2    0    0 -0.36148750409E-02 -0.36953876513E-02  0.35310170057E+01  0.35312473459E+01  0.40000000000E-01 0.  1.
</event>
<event>
 5   0  0.7212170E+07  0.9118800E+02  0.7818608E-02  0.1180000E+00
       11   -1    0    0    0    0  0.00000000000E+00  0.00000000000E+00  0.39999999673E+01  0.40000000000E+01  0.51109989000E-03 0.  1.
     -623   -1    0    0    0    0  0.00000000000E+00  0.00000000000E+00  0.12525980253E-10  0.17130000000E+03  0.17130000000E+03 0. -1.
       11    1    1    2    0    0  0.10725230660E-01  0.62944250229E-03  0.90942245688E+00  0.90948605986E+00  0.51109989000E-03 0.  1.
     -623    1    1    2    0    0 -0.21228394525E-01  0.96072751498E-02  0.35882735748E-03  0.17130000159E+03  0.17130000000E+03 0. -1.
      622    1    1    2    0    0  0.10503163860E-01 -0.10236717650E-01  0.30902186822E+01  0.30905123541E+01  0.40000000000E-01 0.  1.
</event>
<event>
 5   0  0.7212170E+07  0.9118800E+02  0.7818608E-02  0.1180000E+00
       11   -1    0    0    0    0  0.00000000000E+00  0.00000000000E+00  0.39999999673E+01  0.40000000000E+01  0.51109989000E-03 0.  1.
     -623   -1    0    0    0    0  0.00000000000E+00  0.00000000000E+00  0.12525980253E-10  0.17130000000E+03  0.17130000000E+03 0.  1.
       11    1    1    2    0    0 -0.60299840115E-02 -0.19433070259E-01  0.95169027247E+00  0.95190789516E+00  0.51109989000E-03 0.  1.
     -623    1    1    2    0    0  0.11234942761E-02  0.28588664374E-03  0.54415893801E-03  0.17130000000E+03  0.17130000000E+03 0.  1.
      622    1    1    2    0    0  0.49064897353E-02  0.19147183616E-01  0.30477655365E+01  0.30480921006E+01  0.40000000000E-01 0.  0.
</event>
<event>
 5   0  0.7212170E+07  0.9118800E+02  0.7818608E-02  0.1180000E+00
       11   -1    0    0    0    0  0.00000000000E+00  0.00000000000E+00  0.39999999673E+01  0.40000000000E+01  0.51109989000E-03 0. -1.
     -623   -1    0    0    0    0  0.00000000000E+00  0.00000000000E+00  0.12525980253E-10  0.17130000000E+03  0.17130000000E+03 0. -1.
       11    1    1    2    0    0  0.14097942130E-02 -0.48474889240E-03  0.17196302156E-01  0.17268367965E-01  0.51109989000E-03 0.  1.
     -623    1    1    2    0    0  0.13372732125E-03 -0.46724060316E-03  0.27331919925E-03  0.17130000000E+03  0.17130000000E+03 0. -1.
      622    1    1    2    0    0 -0.15435215343E-02  0.95198949569E-03  0.39825303471E+01  0.39827316322E+01  0.40000000000E-01 0. -1.
</event>
<event>
 5   0  0.7212170E+07  0.9118800E+02  0.7818608E-02  0.1180000E+00
       11   -1    0    0    0    0  0.00000000000E+00  0.00000000000E+00  0.39999999673E+01  0.40000000000E+01  0.51109989000E-03 0.  1.
     -623   -1    0    0    0    0  0.00000000000E+00  0.00000000000E+00  0.12525980253E-10  0.17130000000E+03  0.17130000000E+03 0.  1.
       11    1    1    2    0    0 -0.25635404735E-02 -0.43569663678E-03  0.85327733546E-02  0.89348203976E-02  0.51109989000E-03 0.  1.
     -623    1    1    2    0    0  0.42127120343E-02 -0.37884022858E-02  0.60513817550E-03  0.17130000009E+03  0.17130000000E+03 0.  1.
      622    1    1    2    0    0 -0.16491715611E-02  0.42240989228E-02  0.39908620561E+01  0.39910650851E+01  0.40000000000E-01 0.  1.
</event>
<event>
 5   0  0.7212170E+07  0.9118800E+02  0.7818608E-02  0.1180000E+00
       11   -1    0    0    0    0  0.00000000000E+00  0.00000000000E+00  0.39999999673E+01  0.40000000000E+01  0.51109989000E-03 0.  1.
     -623   -1    0    0    0    0  0.00000000000E+00  0.00000000000E+00  0.12525980253E-10  0.17130000000E+03  0.17130000000E+03 0. -1.
       11    1    1    2    0    0 -0.69910820959E-03  0.48658927102E-03  0.15877594593E-02  0.18728920432E-02  0.51109989000E-03 0. -1.
     -623    1    1    2    0    0 -0.15717715629E-03  0.80031933797E-03  0.48550009397E-03  0.17130000000E+03  0.17130000000E+03 0. -1.
      622    1    1    2    0    0  0.85628536590E-03 -0.12869086091E-02  0.39979267082E+01  0.39981271057E+01  0.40000000000E-01 0.  1.
</event>
<event>
 5   0  0.7212170E+07  0.9118800E+02  0.7818608E-02  0.1180000E+00
       11   -1    0    0    0    0  0.00000000000E+00  0.00000000000E+00  0.39999999673E+01  0.40000000000E+01  0.51109989000E-03 0.  1.
     -623   -1    0    0    0    0  0.00000000000E+00  0.00000000000E+00  0.12525980253E-10  0.17130000000E+03  0.17130000000E+03 0.  1.
       11    1    1    2    0    0  0.32882596863E-03 -0.24450084987E-03  0.14579856616E-03  0.67110915855E-03  0.51109989000E-03 0. -1.
     -623    1    1    2    0    0  0.42622654361E-03 -0.39870071176E-03  0.72544204995E-03  0.17130000000E+03  0.17130000000E+03 0.  1.
      622    1    1    2    0    0 -0.75505251225E-03  0.64320156164E-03  0.39991287268E+01  0.39993288884E+01  0.40000000000E-01 0.  1.
</event>
<event>
 5   0  0.7212170E+07  0.9118800E+02  0.7818608E-02  0.1180000E+00
       11   -1    0    0    0    0  0.00000000000E+00  0.00000000000E+00  0.39999999673E+01  0.40000000000E+01  0.51109989000E-03 0. -1.
     -623   -1    0    0    0    0  0.00000000000E+00  0.00000000000E+00  0.12525980253E-10  0.17130000000E+03  0.17130000000E+03 0.  1.
       11    1    1    2    0    0  0.21889948237E-02  0.35368460139E-02  0.16790544681E+00  0.16795773656E+00  0.51109989000E-03 0. -1.
     -623    1    1    2    0    0  0.37662423726E-03 -0.26497496545E-03  0.26328536075E-03  0.17130000000E+03  0.17130000000E+03 0.  1.
      622    1    1    2    0    0 -0.25656190609E-02 -0.32718710484E-02  0.38318312350E+01  0.38320422625E+01  0.40000000000E-01 0. -1.
</event>
<event>
 5   0  0.7212170E+07  0.9118800E+02  0.7818608E-02  0.1180000E+00
       11   -1    0    0    0    0  0.00000000000E+00  0.00000000000E+00  0.39999999673E+01  0.40000000000E+01  0.51109989000E-03 0.  1.
     -623   -1    0    0    0    0  0.00000000000E+00  0.00000000000E+00  0.12525980253E-10  0.17130000000E+03  0.17130000000E+03 0. -1.
       11    1    1    2    0    0  0.20428942871E-01 -0.22053825939E-01  0.50168318163E-01  0.58487898883E-01  0.51109989000E-03 0.  1.
     -623    1    1    2    0    0 -0.30465308486E-01  0.38160195676E-01  0.85753843345E-02  0.17130000717E+03  0.17130000000E+03 0. -1.
      622    1    1    2    0    0  0.10036365616E-01 -0.16106369737E-01  0.39412562649E+01  0.39415049270E+01  0.40000000000E-01 0.  1.
</event>
<event>
 5   0  0.7212170E+07  0.9118800E+02  0.7818608E-02  0.1180000E+00
       11   -1    0    0    0    0  0.00000000000E+00  0.00000000000E+00  0.39999999673E+01  0.40000000000E+01  0.51109989000E-03 0.  1.
     -623   -1    0    0    0    0  0.00000000000E+00  0.00000000000E+00  0.12525980253E-10  0.17130000000E+03  0.17130000000E+03 0. -1.
       11    1    1    2    0    0  0.22773649290E-02 -0.41548457883E-02  0.24941954727E+00  0.24946506953E+00  0.51109989000E-03 0.  1.
     -623    1    1    2    0    0 -0.26715317887E-03  0.28210315017E-03  0.26133756477E-03  0.17130000000E+03  0.17130000000E+03 0. -1.
      622    1    1    2    0    0 -0.20102117502E-02  0.38727426382E-02  0.37503190823E+01  0.37505349296E+01  0.40000000000E-01 0.  1.
</event>
<event>
 5   0  0.7212170E+07  0.9118800E+02  0.7818608E-02  0.1180000E+00
       11   -1    0    0    0    0  0.00000000000E+00  0.00000000000E+00  0.39999999673E+01  0.40000000000E+01  0.51109989000E-03 0. -1.
     -623   -1    0    0    0    0  0.00000000000E+00  0.00000000000E+00  0.12525980253E-10  0.17130000000E+03  0.17130000000E+03 0.  1.
       11    1    1    2    0    0  0.14801277909E-01 -0.13337865078E-01  0.37312975121E-01  0.42302432650E-01  0.51109989000E-03 0. -1.
     -623    1    1    2    0    0  0.43423512625E-02 -0.16762565582E-02  0.52664951409E-02  0.17130000014E+03  0.17130000000E+03 0.  1.
      622    1    1    2    0    0 -0.19143629172E-01  0.15014121636E-01  0.39574204972E+01  0.39576974232E+01  0.40000000000E-01 0. -1.
</event>
<event>
 5   0  0.7212170E+07  0.9118800E+02  0.7818608E-02  0.1180000E+00
       11   -1    0    0    0    0  0.00000000000E+00  0.00000000000E+00  0.39999999673E+01  0.40000000000E+01  0.51109989000E-03 0. -1.
     -623   -1    0    0    0    0  0.00000000000E+00  0.00000000000E+00  0.12525980253E-10  0.17130000000E+03  0.17130000000E+03 0. -1.
       11    1    1    2    0    0  0.93930049322E-02  0.11692141176E-03  0.20276391781E+00  0.20298204305E+00  0.51109989000E-03 0. -1.
     -623    1    1    2    0    0  0.57030729201E-04 -0.89504740320E-03  0.44063306935E-03  0.17130000000E+03  0.17130000000E+03 0. -1.
      622    1    1    2    0    0 -0.94500356614E-02  0.77812599131E-03  0.37967954159E+01  0.37970179534E+01  0.40000000000E-01 0. -1.
</event>
<event>
 5   0  0.7212170E+07  0.9118800E+02  0.7818608E-02  0.1180000E+00
       11   -1    0    0    0    0  0.00000000000E+00  0.00000000000E+00  0.39999999673E+01  0.40000000000E+01  0.51109989000E-03 0.  1.
     -623   -1    0    0    0    0  0.00000000000E+00  0.00000000000E+00  0.12525980253E-10  0.17130000000E+03  0.17130000000E+03 0. -1.
       11    1    1    2    0    0  0.81088934023E-02 -0.30220239864E-02  0.21642132817E+00  0.21659487365E+00  0.51109989000E-03 0.  1.
     -623    1    1    2    0    0  0.45715620020E-03 -0.62155853289E-03  0.39642304180E-03  0.17130000000E+03  0.17130000000E+03 0. -1.
      622    1    1    2    0    0 -0.85660496027E-02  0.36435825195E-02  0.37831822171E+01  0.37834051252E+01  0.40000000000E-01 0.  1.
</event>
<event>
 5   0  0.7212170E+07  0.9118800E+02  0.7818608E-02  0.1180000E+00
       11   -1    0    0    0    0  0.00000000000E+00  0.00000000000E+00  0.39999999673E+01  0.40000000000E+01  0.51109989000E-03 0. -1.
     -623   -1    0    0    0    0  0.00000000000E+00  0.00000000000E+00  0.12525980253E-10  0.17130000000E+03  0.17130000000E+03 0. -1.
       11    1    1    2    0    0  0.39132737096E-03  0.73442260610E-04  0.92328894790E-02  0.92555930175E-02  0.51109989000E-03 0. -1.
     -623    1    1    2    0    0 -0.60403328966E-03 -0.18182324227E-03  0.22314823381E-03  0.17130000000E+03  0.17130000000E+03 0. -1.
      622    1    1    2    0    0  0.21270591900E-03  0.10838098175E-03  0.39905439316E+01  0.39907444077E+01  0.40000000000E-01 0. -1.
</event>
<event>
 5   0  0.7212170E+07  0.9118800E+02  0.7818608E-02  0.1180000E+00
       11   -1    0    0    0    0  0.00000000000E+00  0.00000000000E+00  0.39999999673E+01  0.40000000000E+01  0.51109989000E-03 0. -1.
     -623   -1    0    0    0    0  0.00000000000E+00  0.00000000000E+00  0.12525980253E-10  0.17130000000E+03  0.17130000000E+03 0. -1.
       11    1    1    2    0    0  0.64800054963E-02 -0.11731085417E-01  0.60165914785E-01  0.61642577504E-01  0.51109989000E-03 0. -1.
     -623    1    1    2    0    0 -0.17096869925E-01  0.17040120724E-01  0.16993645351E-02  0.17130000171E+03  0.17130000000E+03 0. -1.
      622    1    1    2    0    0  0.10616864430E-01 -0.53090353086E-02  0.39381346883E+01  0.39383557136E+01  0.40000000000E-01 0. -1.
</event>
<event>
 5   0  0.7212170E+07  0.9118800E+02  0.7818608E-02  0.1180000E+00
       11   -1    0    0    0    0  0.00000000000E+00  0.00000000000E+00  0.39999999673E+01  0.40000000000E+01  0.51109989000E-03 0.  1.
     -623   -1    0    0    0    0  0.00000000000E+00  0.00000000000E+00  0.12525980253E-10  0.17130000000E+03  0.17130000000E+03 0. -1.
       11    1    1    2    0    0 -0.65637049399E-04  0.43911000476E-02  0.99150415877E-02  0.10856119962E-01  0.51109989000E-03 0.  1.
     -623    1    1    2    0    0 -0.89850235167E-02  0.24075528138E-02  0.11579129918E-02  0.17130000026E+03  0.17130000000E+03 0. -1.
      622    1    1    2    0    0  0.90506605666E-02 -0.67986528615E-02  0.39889270130E+01  0.39891436238E+01  0.40000000000E-01 0.  1.
</event>
<event>
 5   0  0.7212170E+07  0.9118800E+02  0.7818608E-02  0.1180000E+00
       11   -1    0    0    0    0  0.00000000000E+00  0.00000000000E+00  0.39999999673E+01  0.40000000000E+01  0.51109989000E-03 0.  1.
     -623   -1    0    0    0    0  0.00000000000E+00  0.00000000000E+00  0.12525980253E-10  0.17130000000E+03  0.17130000000E+03 0.  1.
       11    1    1    2    0    0  0.28880929257E-01  0.20130669042E-01  0.40902936141E+00  0.41054187561E+00  0.51109989000E-03 0.  1.
     -623    1    1    2    0    0 -0.24797571030E-02  0.72280346695E-03  0.18930750725E-02  0.17130000003E+03  0.17130000000E+03 0.  1.
      622    1    1    2    0    0 -0.26401172154E-01 -0.20853472509E-01  0.35890775308E+01  0.35894580944E+01  0.40000000000E-01 0.  1.
</event>
<event>
 5   0  0.7212170E+07  0.9118800E+02  0.7818608E-02  0.1180000E+00
       11   -1    0    0    0    0  0.00000000000E+00  0.00000000000E+00  0.39999999673E+01  0.40000000000E+01  0.51109989000E-03 0.  1.
     -623   -1    0    0    0    0  0.00000000000E+00  0.00000000000E+00  0.12525980253E-10  0.17130000000E+03  0.17130000000E+03 0. -1.
       11    1    1    2    0    0  0.27777167831E-01 -0.14335669047E-01  0.18938273321E+00  0.19194573015E+00  0.51109989000E-03 0.  1.
     -623    1    1    2    0    0 -0.97306452698E-02  0.39084452340E-01  0.29010036461E-02  0.17130000476E+03  0.17130000000E+03 0. -1.
      622    1    1    2    0    0 -0.18046522561E-01 -0.24748783293E-01  0.38077162305E+01  0.38080495101E+01  0.40000000000E-01 0.  1.
</event>
<event>
 5   0  0.7212170E+07  0.9118800E+02  0.7818608E-02  0.1180000E+00
       11   -1    0    0    0    0  0.00000000000E+00  0.00000000000E+00  0.39999999673E+01  0.40000000000E+01  0.51109989000E-03 0. -1.
     -623   -1    0    0    0    0  0.00000000000E+00  0.00000000000E+00  0.12525980253E-10  0.17130000000E+03  0.17130000000E+03 0. -1.
       11    1    1    2    0    0  0.11609048335E-02  0.35366262606E-02  0.18818876271E+00  0.18822626559E+00  0.51109989000E-03 0. -1.
     -623    1    1    2    0    0  0.95597728358E-03  0.91771801575E-03  0.25054797968E-03  0.17130000001E+03  0.17130000000E+03 0. -1.
      622    1    1    2    0    0 -0.21168821173E-02 -0.44543442766E-02  0.38115606577E+01  0.38117737302E+01  0.40000000000E-01 0. -1.
</event>
<event>
 5   0  0.7212170E+07  0.9118800E+02  0.7818608E-02  0.1180000E+00
       11   -1    0    0    0    0  0.00000000000E+00  0.00000000000E+00  0.39999999673E+01  0.40000000000E+01  0.51109989000E-03 0.  1.
     -623   -1    0    0    0    0  0.00000000000E+00  0.00000000000E+00  0.12525980253E-10  0.17130000000E+03  0.17130000000E+03 0.  1.
       11    1    1    2    0    0 -0.16501789287E-02  0.67871937856E-03  0.13737895129E-01  0.13862710275E-01  0.51109989000E-03 0.  1.
     -623    1    1    2    0    0  0.14019198117E-02 -0.13454273062E-02  0.32555792426E-03  0.17130000001E+03  0.17130000000E+03 0.  1.
      622    1    1    2    0    0  0.24825911671E-03  0.66670792790E-03  0.39859365149E+01  0.39861372790E+01  0.40000000000E-01 0.  1.
</event>
<event>
 5   0  0.7212170E+07  0.9118800E+02  0.7818608E-02  0.1180000E+00
       11   -1    0    0    0    0  0.00000000000E+00  0.00000000000E+00  0.39999999673E+01  0.40000000000E+01  0.51109989000E-03 0. -1.
     -623   -1    0    0    0    0  0.00000000000E+00  0.00000000000E+00  0.12525980253E-10  0.17130000000E+03  0.17130000000E+03 0. -1.
       11    1    1    2    0    0 -0.73134707144E-03  0.44004959496E-02  0.69354041602E-02  0.82619784014E-02  0.51109989000E-03 0. -1.
     -623    1    1    2    0    0  0.19455302337E-02 -0.15760363778E-01  0.15440533730E-02  0.17130000074E+03  0.17130000000E+03 0. -1.
      622    1    1    2    0    0 -0.12141831624E-02  0.11359867830E-01  0.39915205101E+01  0.39917372789E+01  0.40000000000E-01 0. -1.
</event>
<event>
 5   0  0.7212170E+07  0.9118800E+02  0.7818608E-02  0.1180000E+00
       11   -1    0    0    0    0  0.00000000000E+00  0.00000000000E+00  0.39999999673E+01  0.40000000000E+01  0.51109989000E-03 0. -1.
     -623   -1    0    0    0    0  0.00000000000E+00  0.00000000000E+00  0.12525980253E-10  0.17130000000E+03  0.17130000000E+03 0. -1.
       11    1    1    2    0    0 -0.15223803266E-02  0.16751855759E-03  0.67850982457E-02  0.69745598877E-02  0.51109989000E-03 0. -1.
     -623    1    1    2    0    0  0.33822349200E-03  0.51038013924E-03  0.39001804370E-03  0.17130000000E+03  0.17130000000E+03 0. -1.
      622    1    1    2    0    0  0.11841568345E-02 -0.67789869688E-03  0.39928248514E+01  0.39930254389E+01  0.40000000000E-01 0. -1.
</event>
<event>
 5   0  0.7212170E+07  0.9118800E+02  0.7818608E-02  0.1180000E+00
       11   -1    0    0    0    0  0.00000000000E+00  0.00000000000E+00  0.39999999673E+01  0.40000000000E+01  0.51109989000E-03 0.  1.
     -623   -1    0    0    0    0  0.00000000000E+00  0.00000000000E+00  0.12525980253E-10  0.17130000000E+03  0.17130000000E+03 0. -1.
       11    1    1    2    0    0  0.86734688023E-02 -0.13668454582E-01  0.49006127999E+00  0.49032884382E+00  0.51109989000E-03 0.  1.
     -623    1    1    2    0    0  0.32087791732E-02  0.16427065302E-02  0.53623880880E-03  0.17130000004E+03  0.17130000000E+03 0. -1.
      622    1    1    2    0    0 -0.11882247976E-01  0.12025748052E-01  0.35094024486E+01  0.35096711175E+01  0.40000000000E-01 0.  1.
</event>
<event>
 5   0  0.7212170E+07  0.9118800E+02  0.7818608E-02  0.1180000E+00
       11   -1    0    0    0    0  0.00000000000E+00  0.00000000000E+00  0.39999999673E+01  0.40000000000E+01  0.51109989000E-03 0. -1.
     -623   -1    0    0    0    0  0.00000000000E+00  0.00000000000E+00  0.12525980253E-10  0.17130000000E+03  0.17130000000E+03 0.  1.
       11    1    1    2    0    0 -0.56386600169E-03 -0.43514720888E-03  0.12370910212E-02  0.15162174163E-02  0.51109989000E-03 0. -1.
     -623    1    1    2    0    0 -0.47967346236E-03  0.67978647672E-04  0.47932899529E-03  0.17130000000E+03  0.17130000000E+03 0.  1.
      622    1    1    2    0    0  0.10435394641E-02  0.36716856119E-03  0.39982835482E+01  0.39984837820E+01  0.40000000000E-01 0. -1.
</event>
<event>
 5   0  0.7212170E+07  0.9118800E+02  0.7818608E-02  0.1180000E+00
       11   -1    0    0    0    0  0.00000000000E+00  0.00000000000E+00  0.39999999673E+01  0.40000000000E+01  0.51109989000E-03 0. -1.
     -623   -1    0    0    0    0  0.00000000000E+00  0.00000000000E+00  0.12525980253E-10  0.17130000000E+03  0.17130000000E+03 0. -1.
       11    1    1    2    0    0 -0.12191463733E-02  0.29013562506E-03  0.32561712111E-02  0.35262402944E-02  0.51109989000E-03 0. -1.
     -623    1    1    2    0    0  0.11950122721E-02 -0.53437549130E-03  0.47023110814E-03  0.17130000001E+03  0.17130000000E+03 0. -1.
      622    1    1    2    0    0  0.24134101005E-04  0.24423986632E-03  0.39962735657E+01  0.39964737547E+01  0.40000000000E-01 0. -1.
</event>
<event>
 5   0  0.7212170E+07  0.9118800E+02  0.7818608E-02  0.1180000E+00
       11   -1    0    0    0    0  0.00000000000E+00  0.00000000000E+00  0.39999999673E+01  0.40000000000E+01  0.51109989000E-03 0. -1.
     -623   -1    0    0    0    0  0.00000000000E+00  0.00000000000E+00  0.12525980253E-10  0.17130000000E+03  0.17130000000E+03 0. -1.
       11    1    1    2    0    0  0.55221495358E-02 -0.63637406658E-02  0.92542247779E+00  0.92546097431E+00  0.51109989000E-03 0. -1.
     -623    1    1    2    0    0  0.10340086575E-02  0.19336012374E-02  0.30887359034E-03  0.17130000001E+03  0.17130000000E+03 0. -1.
      622    1    1    2    0    0 -0.65561581931E-02  0.44301394288E-02  0.30742686152E+01  0.30745390106E+01  0.40000000000E-01 0. -1.
</event>
<event>
 5   0  0.7212170E+07  0.9118800E+02  0.7818608E-02  0.1180000E+00
       11   -1    0    0    0    0  0.00000000000E+00  0.00000000000E+00  0.39999999673E+01  0.40000000000E+01  0.51109989000E-03 0. -1.
     -623   -1    0    0    0    0  0.00000000000E+00  0.00000000000E+00  0.12525980253E-10  0.17130000000E+03  0.17130000000E+03 0. -1.
       11    1    1    2    0    0 -0.25177295651E-02  0.29848686605E-04  0.18318875204E-01  0.18498169232E-01  0.51109989000E-03 0. -1.
     -623    1    1    2    0    0  0.11977970531E-02 -0.17077092405E-02  0.38078114301E-03  0.17130000001E+03  0.17130000000E+03 0. -1.
      622    1    1    2    0    0  0.13199325116E-02  0.16778605545E-02  0.39813003123E+01  0.39815018189E+01  0.40000000000E-01 0. -1.
</event>
<event>
 5   0  0.7212170E+07  0.9118800E+02  0.7818608E-02  0.1180000E+00
       11   -1    0    0    0    0  0.00000000000E+00  0.00000000000E+00  0.39999999673E+01  0.40000000000E+01  0.51109989000E-03 0.  1.
     -623   -1    0    0    0    0  0.00000000000E+00  0.00000000000E+00  0.12525980253E-10  0.17130000000E+03  0.17130000000E+03 0. -1.
       11    1    1    2    0    0 -0.11795997245E-01  0.15550394333E-01  0.53213880382E+00  0.53249688080E+00  0.51109989000E-03 0.  1.
     -623    1    1    2    0    0  0.11510816770E-02  0.51381807086E-03  0.64232591933E-03  0.17130000001E+03  0.17130000000E+03 0. -1.
      622    1    1    2    0    0  0.10644915568E-01 -0.16064212404E-01  0.34672188380E+01  0.34675031137E+01  0.40000000000E-01 0.  1.
</event>
<event>
 5   0  0.7212170E+07  0.9118800E+02  0.7818608E-02  0.1180000E+00
       11   -1    0    0    0    0  0.00000000000E+00  0.00000000000E+00  0.39999999673E+01  0.40000000000E+01  0.51109989000E-03 0. -1.
     -623   -1    0    0    0    0  0.00000000000E+00  0.00000000000E+00  0.12525980253E-10  0.17130000000E+03  0.17130000000E+03 0.  1.
       11    1    1    2    0    0  0.49191926151E-02  0.32764657949E-02  0.84584547665E-01  0.84792338161E-01  0.51109989000E-03 0. -1.
     -623    1    1    2    0    0 -0.33872078232E-02 -0.16944793613E-01  0.43712651745E-03  0.17130000087E+03  0.17130000000E+03 0.  1.
      622    1    1    2    0    0 -0.15319847920E-02  0.13668327817E-01  0.39149782930E+01  0.39152067896E+01  0.40000000000E-01 0. -1.
</event>
<event>
 5   0  0.7212170E+07  0.9118800E+02  0.7818608E-02  0.1180000E+00
       11   -1    0    0    0    0  0.00000000000E+00  0.00000000000E+00  0.39999999673E+01  0.40000000000E+01  0.51109989000E-03 0.  1.
     -623   -1    0    0    0    0  0.00000000000E+00  0.00000000000E+00  0.12525980253E-10  0.17130000000E+03  0.17130000000E+03 0. -1.
       11    1    1    2    0    0 -0.23445537316E-01 -0.17733131545E-01  0.16756454836E+01  0.16759033997E+01  0.51109989000E-03 0.  1.
     -623    1    1    2    0    0 -0.51618541910E-02  0.63192108401E-02  0.80645649312E-03  0.17130000020E+03  0.17130000000E+03 0. -1.
      622    1    1    2    0    0  0.28607391508E-01  0.11413920704E-01  0.23235480274E+01  0.23240964043E+01  0.40000000000E-01 0. -1.
</event>
<event>
 5   0  0.7212170E+07  0.9118800E+02  0.7818608E-02  0.1180000E+00
       11   -1    0    0    0    0  0.00000000000E+00  0.00000000000E+00  0.39999999673E+01  0.40000000000E+01  0.51109989000E-03 0. -1.
     -623   -1    0    0    0    0  0.00000000000E+00  0.00000000000E+00  0.12525980253E-10  0.17130000000E+03  0.17130000000E+03 0.  1.
       11    1    1    2    0    0  0.58867022506E-03  0.23764202479E-04  0.13419888639E-02  0.15521773673E-02  0.51109989000E-03 0. -1.
     -623    1    1    2    0    0 -0.40965204225E-03 -0.68210549810E-03  0.41029905587E-03  0.17130000000E+03  0.17130000000E+03 0.  1.
      622    1    1    2    0    0 -0.17901818283E-03  0.65834129557E-03  0.39982476792E+01  0.39984478200E+01  0.40000000000E-01 0. -1.
</event>
<event>
 5   0  0.7212170E+07  0.9118800E+02  0.7818608E-02  0.1180000E+00
       11   -1    0    0    0    0  0.00000000000E+00  0.00000000000E+00  0.39999999673E+01  0.40000000000E+01  0.51109989000E-03 0. -1.
     -623   -1    0    0    0    0  0.00000000000E+00  0.00000000000E+00  0.12525980253E-10  0.17130000000E+03  0.17130000000E+03 0. -1.
       11    1    1    2    0    0 -0.76942469897E-02  0.15005226992E-01  0.35507281143E+00  0.35547337582E+00  0.51109989000E-03 0. -1.
     -623    1    1    2    0    0  0.17679192405E-02 -0.31994980450E-01  0.66746624517E-03  0.17130000300E+03  0.17130000000E+03 0. -1.
      622    1    1    2    0    0  0.59263277491E-02  0.16989753459E-01  0.36442596898E+01  0.36445236259E+01  0.40000000000E-01 0. -1.
</event>
<event>
 5   0  0.7212170E+07  0.9118800E+02  0.7818608E-02  0.1180000E+00
       11   -1    0    0    0    0  0.00000000000E+00  0.00000000000E+00  0.39999999673E+01  0.40000000000E+01  0.51109989000E-03 0.  1.
     -623   -1    0    0    0    0  0.00000000000E+00  0.00000000000E+00  0.12525980253E-10  0.17130000000E+03  0.17130000000E+03 0. -1.
       11    1    1    2    0    0 -0.21794999509E-02  0.15822819011E-03  0.39789581693E-01  0.39852820359E-01  0.51109989000E-03 0.  1.
     -623    1    1    2    0    0  0.70091738292E-03 -0.72646810074E-03  0.26554386368E-03  0.17130000000E+03  0.17130000000E+03 0. -1.
      622    1    1    2    0    0  0.14785825680E-02  0.56823991059E-03  0.39599448416E+01  0.39601471763E+01  0.40000000000E-01 0.  1.
</event>
<event>
 5   0  0.7212170E+07  0.9118800E+02  0.7818608E-02  0.1180000E+00
       11   -1    0    0    0    0  0.00000000000E+00  0.00000000000E+00  0.39999999673E+01  0.40000000000E+01  0.51109989000E-03 0. -1.
     -623   -1    0    0    0    0  0.00000000000E+00  0.00000000000E+00  0.12525980253E-10  0.17130000000E+03  0.17130000000E+03 0.  1.
       11    1    1    2    0    0  0.12312467551E-01  0.35432117226E-02  0.52434378489E+00  0.52450054068E+00  0.51109989000E-03 0. -1.
     -623    1    1    2    0    0 -0.73668944767E-02  0.35253895591E-02  0.39781633607E-03  0.17130000020E+03  0.17130000000E+03 0.  1.
      622    1    1    2    0    0 -0.49455730753E-02 -0.70686012811E-02  0.34752583655E+01  0.34754992635E+01  0.40000000000E-01 0. -1.
</event>
<event>
 5   0  0.7212170E+07  0.9118800E+02  0.7818608E-02  0.1180000E+00
       11   -1    0    0    0    0  0.00000000000E+00  0.00000000000E+00  0.39999999673E+01  0.40000000000E+01  0.51109989000E-03 0. -1.
     -623   -1    0    0    0    0  0.00000000000E+00  0.00000000000E+00  0.12525980253E-10  0.17130000000E+03  0.17130000000E+03 0. -1.
       11    1    1    2    0    0 -0.95456829191E-03 -0.74852606797E-03  0.29024688088E-01  0.29054521741E-01  0.51109989000E-03 0. -1.
     -623    1    1    2    0    0  0.21120438467E-02  0.12503049630E-02  0.23148762676E-03  0.17130000002E+03  0.17130000000E+03 0. -1.
      622    1    1    2    0    0 -0.11574755551E-02 -0.50177889525E-03  0.39707437923E+01  0.39709454612E+01  0.40000000000E-01 0. -1.
</event>
<event>
 5   0  0.7212170E+07  0.9118800E+02  0.7818608E-02  0.1180000E+00
       11   -1    0    0    0    0  0.00000000000E+00  0.00000000000E+00  0.39999999673E+01  0.40000000000E+01  0.51109989000E-03 0. -1.
     -623   -1    0    0    0    0  0.00000000000E+00  0.00000000000E+00  0.12525980253E-10  0.17130000000E+03  0.17130000000E+03 0. -1.
       11    1    1    2    0    0  0.24376020554E-01  0.15738380267E-02  0.10895729090E+01  0.10898468024E+01  0.51109989000E-03 0. -1.
     -623    1    1    2    0    0  0.10482603088E-02 -0.34525155040E-02  0.66049010720E-03  0.17130000004E+03  0.17130000000E+03 0. -1.
      622    1    1    2    0    0 -0.25424280863E-01  0.18786774775E-02  0.29097665684E+01  0.29101531586E+01  0.40000000000E-01 0. -1.
</event>
<event>
 5   0  0.7212170E+07  0.9118800E+02  0.7818608E-02  0.1180000E+00
       11   -1    0    0    0    0  0.00000000000E+00  0.00000000000E+00  0.39999999673E+01  0.40000000000E+01  0.51109989000E-03 0.  1.
     -623   -1    0    0    0    0  0.00000000000E+00  0.00000000000E+00  0.12525980253E-10  0.17130000000E+03  0.17130000000E+03 0.  1.
       11    1    1    2    0    0  0.57036109962E-03  0.33173537928E-03  0.62981901859E-03  0.10455884657E-02  0.51109989000E-03 0. -1.
     -623    1    1    2    0    0 -0.12310045836E-02  0.11324226319E-02  0.61612600564E-03  0.17130000001E+03  0.17130000000E+03 0.  1.
      622    1    1    2    0    0  0.66064348374E-03 -0.14641580110E-02  0.39987540217E+01  0.39989544016E+01  0.40000000000E-01 0.  1.
</event>
<event>
 5   0  0.7212170E+07  0.9118800E+02  0.7818608E-02  0.1180000E+00
       11   -1    0    0    0    0  0.00000000000E+00  0.00000000000E+00  0.39999999673E+01  0.40000000000E+01  0.51109989000E-03 0.  1.
     -623   -1    0    0    0    0  0.00000000000E+00  0.00000000000E+00  0.12525980253E-10  0.17130000000E+03  0.17130000000E+03 0.  1.
       11    1    1    2    0    0  0.14488410787E-01  0.50217146352E-02  0.47658238051E+00  0.47682927585E+00  0.51109989000E-03 0.  1.
     -623    1    1    2    0    0  0.92748131303E-03 -0.14287102022E-02  0.50950869402E-03  0.17130000001E+03  0.17130000000E+03 0.  1.
      622    1    1    2    0    0 -0.15415892101E-01 -0.35930044328E-02  0.35229080788E+01  0.35231707156E+01  0.40000000000E-01 0.  1.
</event>
<event>
 5   0  0.7212170E+07  0.9118800E+02  0.7818608E-02  0.1180000E+00
       11   -1    0    0    0    0  0.00000000000E+00  0.00000000000E+00  0.39999999673E+01  0.40000000000E+01  0.51109989000E-03 0.  1.
     -623   -1    0    0    0    0  0.00000000000E+00  0.00000000000E+00  0.12525980253E-10  0.17130000000E+03  0.17130000000E+03 0.  1.
       11    1    1    2    0    0  0.26706276496E-01  0.11125352743E-01  0.13614776780E+01  0.13617851254E+01  0.51109989000E-03 0.  1.
     -623    1    1    2    0    0 -0.54169881359E-02 -0.63188353764E-02  0.70115932734E-03  0.17130000020E+03  0.17130000000E+03 0.  1.
      622    1    1    2    0    0 -0.21289288360E-01 -0.48065173666E-02  0.26378211298E+01  0.26382146708E+01  0.40000000000E-01 0.  0.
</event>
<event>
 5   0  0.7212170E+07  0.9118800E+02  0.7818608E-02  0.1180000E+00
       11   -1    0    0    0    0  0.00000000000E+00  0.00000000000E+00  0.39999999673E+01  0.40000000000E+01  0.51109989000E-03 0.  1.
     -623   -1    0    0    0    0  0.00000000000E+00  0.00000000000E+00  0.12525980253E-10  0.17130000000E+03  0.17130000000E+03 0. -1.
       11    1    1    2    0    0 -0.16662941581E-02 -0.23743223819E-02  0.16017003191E-01  0.16285562849E-01  0.51109989000E-03 0.  1.
     -623    1    1    2    0    0 -0.24898509332E-02  0.41547510969E-02  0.47198483098E-03  0.17130000007E+03  0.17130000000E+03 0. -1.
      622    1    1    2    0    0  0.41561450920E-02 -0.17804287161E-02  0.39835109804E+01  0.39837143691E+01  0.40000000000E-01 0.  1.
</event>
<event>
 5   0  0.7212170E+07  0.9118800E+02  0.7818608E-02  0.1180000E+00
       11   -1    0    0    0    0  0.00000000000E+00  0.00000000000E+00  0.39999999673E+01  0.40000000000E+01  0.51109989000E-03 0. -1.
     -623   -1    0    0    0    0  0.00000000000E+00  0.00000000000E+00  0.12525980253E-10  0.17130000000E+03  0.17130000000E+03 0.  1.
       11    1    1    2    0    0 -0.21428065280E-02 -0.32004806165E-02  0.27708426276E+00  0.27711150208E+00  0.51109989000E-03 0. -1.
     -623    1    1    2    0    0  0.26433674642E-02  0.18904767245E-03  0.24337216309E-03  0.17130000002E+03  0.17130000000E+03 0.  1.
      622    1    1    2    0    0 -0.50056093725E-03  0.30114329439E-02  0.37226723341E+01  0.37228884789E+01  0.40000000000E-01 0. -1.
</event>
<event>
 5   0  0.7212170E+07  0.9118800E+02  0.7818608E-02  0.1180000E+00
       11   -1    0    0    0    0  0.00000000000E+00  0.00000000000E+00  0.39999999673E+01  0.40000000000E+01  0.51109989000E-03 0. -1.
     -623   -1    0    0    0    0  0.00000000000E+00  0.00000000000E+00  0.12525980253E-10  0.17130000000E+03  0.17130000000E+03 0.  1.
       11    1    1    2    0    0 -0.78372100713E-02  0.27979157645E-02  0.57095703990E-01  0.57701220365E-01  0.51109989000E-03 0. -1.
     -623    1    1    2    0    0  0.63168266800E-03 -0.46678778091E-02  0.81551175724E-03  0.17130000007E+03  0.17130000000E+03 0.  1.
      622    1    1    2    0    0  0.72055274033E-02  0.18699620449E-02  0.39420887519E+01  0.39422987132E+01  0.40000000000E-01 0. -1.
</event>
<event>
 5   0  0.7212170E+07  0.9118800E+02  0.7818608E-02  0.1180000E+00
       11   -1    0    0    0    0  0.00000000000E+00  0.00000000000E+00  0.39999999673E+01  0.40000000000E+01  0.51109989000E-03 0.  1.
     -623   -1    0    0    0    0  0.00000000000E+00  0.00000000000E+00  0.12525980253E-10  0.17130000000E+03  0.17130000000E+03 0.  1.
       11    1    1    2    0    0 -0.50450697989E-02  0.79419740651E-02  0.30026017585E+00  0.30040799275E+00  0.51109989000E-03 0.  1.
     -623    1    1    2    0    0 -0.70688368302E-03 -0.53792601760E-03  0.37591441610E-03  0.17130000000E+03  0.17130000000E+03 0.  1.
      622    1    1    2    0    0  0.57519534821E-02 -0.74040480474E-02  0.36993638778E+01  0.36995920053E+01  0.40000000000E-01 0.  1.
</event>
<event>
 5   0  0.7212170E+07  0.9118800E+02  0.7818608E-02  0.1180000E+00
       11   -1    0    0    0    0  0.00000000000E+00  0.00000000000E+00  0.39999999673E+01  0.40000000000E+01  0.51109989000E-03 0.  1.
     -623   -1    0    0    0    0  0.00000000000E+00  0.00000000000E+00  0.12525980253E-10  0.17130000000E+03  0.17130000000E+03 0. -1.
       11    1    1    2    0    0  0.22213001788E-01  0.25685600181E-01  0.18490795949E+00  0.18800101652E+00  0.51109989000E-03 0.  1.
     -623    1    1    2    0    0  0.52282460798E-02 -0.15789566507E-01  0.34153583278E-02  0.17130000084E+03  0.17130000000E+03 0. -1.
      622    1    1    2    0    0 -0.27441247868E-01 -0.98960336740E-02  0.38116766497E+01  0.38119981421E+01  0.40000000000E-01 0.  1.
</event>
<event>
 5   0  0.7212170E+07  0.9118800E+02  0.7818608E-02  0.1180000E+00
       11   -1    0    0    0    0  0.00000000000E+00  0.00000000000E+00  0.39999999673E+01  0.40000000000E+01  0.51109989000E-03 0. -1.
     -623   -1    0    0    0    0  0.00000000000E+00  0.00000000000E+00  0.12525980253E-10  0.17130000000E+03  0.17130000000E+03 0. -1.
       11    1    1    2    0    0  0.25151998193E-03 -0.26787983494E-03  0.44262240114E-02  0.44707610095E-02  0.51109989000E-03 0. -1.
     -623    1    1    2    0    0  0.47517710720E-03  0.35255094018E-03  0.24480134528E-03  0.17130000000E+03  0.17130000000E+03 0. -1.
      622    1    1    2    0    0 -0.72669708935E-03 -0.84671105402E-04  0.39953289438E+01  0.39955292396E+01  0.40000000000E-01 0. -1.
</event>
<event>
 5   0  0.7212170E+07  0.9118800E+02  0.7818608E-02  0.1180000E+00
       11   -1    0    0    0    0  0.00000000000E+00  0.00000000000E+00  0.39999999673E+01  0.40000000000E+01  0.51109989000E-03 0. -1.
     -623   -1    0    0    0    0  0.00000000000E+00  0.00000000000E+00  0.12525980253E-10  0.17130000000E+03  0.17130000000E+03 0. -1.
       11    1    1    2    0    0  0.71860950788E-02 -0.37338914330E-02  0.27674663083E-01  0.28839731406E-01  0.51109989000E-03 0. -1.
     -623    1    1    2    0    0 -0.50055396930E-02 -0.76443836572E-02  0.13836427867E-02  0.17130000025E+03  0.17130000000E+03 0. -1.
      622    1    1    2    0    0 -0.21805553858E-02  0.11378275090E-01  0.39709416615E+01  0.39711600193E+01  0.40000000000E-01 0. -1.
</event>
<event>
 5   0  0.7212170E+07  0.9118800E+02  0.7818608E-02  0.1180000E+00
       11   -1    0    0    0    0  0.00000000000E+00  0.00000000000E+00  0.39999999673E+01  0.40000000000E+01  0.51109989000E-03 0. -1.
     -623   -1    0    0    0    0  0.00000000000E+00  0.00000000000E+00  0.12525980253E-10  0.17130000000E+03  0.17130000000E+03 0. -1.
       11    1    1    2    0    0  0.31852060528E-02 -0.21979481964E-02  0.21196538407E+00  0.21200132495E+00  0.51109989000E-03 0. -1.
     -623    1    1    2    0    0 -0.27223622327E-02  0.13575081714E-02  0.24725615269E-03  0.17130000003E+03  0.17130000000E+03 0. -1.
      622    1    1    2    0    0 -0.46284381961E-03  0.84044002469E-03  0.37877873278E+01  0.37879986485E+01  0.40000000000E-01 0. -1.
</event>
<event>
 5   0  0.7212170E+07  0.9118800E+02  0.7818608E-02  0.1180000E+00
       11   -1    0    0    0    0  0.00000000000E+00  0.00000000000E+00  0.39999999673E+01  0.40000000000E+01  0.51109989000E-03 0. -1.
     -623   -1    0    0    0    0  0.00000000000E+00  0.00000000000E+00  0.12525980253E-10  0.17130000000E+03  0.17130000000E+03 0.  1.
       11    1    1    2    0    0  0.42175797377E-04  0.17834867444E-03  0.13051242806E-02  0.14135627093E-02  0.51109989000E-03 0. -1.
     -623    1    1    2    0    0 -0.46585422788E-03 -0.63969698892E-03  0.30853266597E-03  0.17130000000E+03  0.17130000000E+03 0.  1.
      622    1    1    2    0    0  0.42367843056E-03  0.46134831456E-03  0.39983863109E+01  0.39985864356E+01  0.40000000000E-01 0. -1.
</event>
<event>
 5   0  0.7212170E+07  0.9118800E+02  0.7818608E-02  0.1180000E+00
       11   -1    0    0    0    0  0.00000000000E+00  0.00000000000E+00  0.39999999673E+01  0.40000000000E+01  0.51109989000E-03 0. -1.
     -623   -1    0    0    0    0  0.00000000000E+00  0.00000000000E+00  0.12525980253E-10  0.17130000000E+03  0.17130000000E+03 0.  1.
       11    1    1    2    0    0  0.62375710012E-03  0.16265039968E-02  0.61710037042E-01  0.61736735280E-01  0.51109989000E-03 0. -1.
     -623    1    1    2    0    0 -0.55261351511E-03 -0.17827105526E-02  0.22982012618E-03  0.17130000001E+03  0.17130000000E+03 0.  1.
      622    1    1    2    0    0 -0.71143585071E-04  0.15620655552E-03  0.39380601097E+01  0.39382632539E+01  0.40000000000E-01 0. -1.
</event>
<event>
 5   0  0.7212170E+07  0.9118800E+02  0.7818608E-02  0.1180000E+00
       11   -1    0    0    0    0  0.00000000000E+00  0.00000000000E+00  0.39999999673E+01  0.40000000000E+01  0.51109989000E-03 0. -1.
     -623   -1    0    0    0    0  0.00000000000E+00  0.00000000000E+00  0.12525980253E-10  0.17130000000E+03  0.17130000000E+03 0.  1.
       11    1    1    2    0    0  0.64320629514E-01 -0.61396458231E-02  0.31210749991E+01  0.31217437835E+01  0.51109989000E-03 0. -1.
     -623    1    1    2    0    0 -0.20851926968E-02  0.10551413539E-02  0.38051034446E-02  0.17130000006E+03  0.17130000000E+03 0.  1.
      622    1    1    2    0    0 -0.62235436817E-01  0.50845044692E-02  0.87511986478E+00  0.87825615826E+00  0.40000000000E-01 0.  0.
</event>
<event>
 5   0  0.7212170E+07  0.9118800E+02  0.7818608E-02  0.1180000E+00
       11   -1    0    0    0    0  0.00000000000E+00  0.00000000000E+00  0.39999999673E+01  0.40000000000E+01  0.51109989000E-03 0. -1.
     -623   -1    0    0    0    0  0.00000000000E+00  0.00000000000E+00  0.12525980253E-10  0.17130000000E+03  0.17130000000E+03 0.  1.
       11    1    1    2    0    0 -0.94849019222E-03 -0.31757498473E-03  0.11028590765E-02  0.15741692272E-02  0.51109989000E-03 0. -1.
     -623    1    1    2    0    0  0.12421309610E-02 -0.85765508266E-03  0.67155272858E-03  0.17130000001E+03  0.17130000000E+03 0.  1.
      622    1    1    2    0    0 -0.29364076893E-03  0.11752300675E-02  0.39982255559E+01  0.39984258232E+01  0.40000000000E-01 0. -1.
</event>
<event>
 5   0  0.7212170E+07  0.9118800E+02  0.7818608E-02  0.1180000E+00
       11   -1    0    0    0    0  0.00000000000E+00  0.00000000000E+00  0.39999999673E+01  0.40000000000E+01  0.51109989000E-03 0.  1.
     -623   -1    0    0    0    0  0.00000000000E+00  0.00000000000E+00  0.12525980253E-10  0.17130000000E+03  0.17130000000E+03 0. -1.
       11    1    1    2    0    0  0.18889464994E-01  0.38236932379E-02  0.10485549460E+01  0.10487321720E+01  0.51109989000E-03 0.  1.
     -623    1    1    2    0    0 -0.16158332964E-01  0.22427370194E-03  0.45307880995E-03  0.17130000076E+03  0.17130000000E+03 0. -1.
      622    1    1    2    0    0 -0.27311320286E-02 -0.40479669398E-02  0.29509919429E+01  0.29512670655E+01  0.40000000000E-01 0.  1.
</event>
<event>
 5   0  0.7212170E+07  0.9118800E+02  0.7818608E-02  0.1180000E+00
       11   -1    0    0    0    0  0.00000000000E+00  0.00000000000E+00  0.39999999673E+01  0.40000000000E+01  0.51109989000E-03 0.  1.
     -623   -1    0    0    0    0  0.00000000000E+00  0.00000000000E+00  0.12525980253E-10  0.17130000000E+03  0.17130000000E+03 0.  1.
       11    1    1    2    0    0  0.25260309527E-02 -0.54983675602E-02  0.18304096466E+01  0.18304197192E+01  0.51109989000E-03 0.  1.
     -623    1    1    2    0    0  0.22173565877E-03 -0.17347946659E-02  0.39261532816E-03  0.17130000001E+03  0.17130000000E+03 0.  1.
      622    1    1    2    0    0 -0.27477666115E-02  0.72331622261E-02  0.21691977056E+01  0.21695802715E+01  0.40000000000E-01 0.  1.
</event>
<event>
 5   0  0.7212170E+07  0.9118800E+02  0.7818608E-02  0.1180000E+00
       11   -1    0    0    0    0  0.00000000000E+00  0.00000000000E+00  0.39999999673E+01  0.40000000000E+01  0.51109989000E-03 0. -1.
     -623   -1    0    0    0    0  0.00000000000E+00  0.00000000000E+00  0.12525980253E-10  0.17130000000E+03  0.17130000000E+03 0.  1.
       11    1    1    2    0    0 -0.23184959686E-02  0.23930130462E-02  0.33467729222E-01  0.33637063744E-01  0.51109989000E-03 0. -1.
     -623    1    1    2    0    0  0.46225517446E-03  0.48526775616E-03  0.37248362017E-03  0.17130000000E+03  0.17130000000E+03 0.  1.
      622    1    1    2    0    0  0.18562407941E-02 -0.28782808023E-02  0.39661597544E+01  0.39663629344E+01  0.40000000000E-01 0. -1.
</event>
<event>
 5   0  0.7212170E+07  0.9118800E+02  0.7818608E-02  0.1180000E+00
       11   -1    0    0    0    0  0.00000000000E+00  0.00000000000E+00  0.39999999673E+01  0.40000000000E+01  0.51109989000E-03 0. -1.
     -623   -1    0    0    0    0  0.00000000000E+00  0.00000000000E+00  0.12525980253E-10  0.17130000000E+03  0.17130000000E+03 0. -1.
       11    1    1    2    0    0  0.99436896927E-02 -0.33297621897E-02  0.12434555491E+01  0.12434998706E+01  0.51109989000E-03 0. -1.
     -623    1    1    2    0    0  0.14247766787E-02  0.27729114468E-02  0.35805790351E-03  0.17130000003E+03  0.17130000000E+03 0. -1.
      622    1    1    2    0    0 -0.11368466371E-01  0.55685074282E-03  0.27561863604E+01  0.27565001008E+01  0.40000000000E-01 0. -1.
</event>
<event>
 5   0  0.7212170E+07  0.9118800E+02  0.7818608E-02  0.1180000E+00
       11   -1    0    0    0    0  0.00000000000E+00  0.00000000000E+00  0.39999999673E+01  0.40000000000E+01  0.51109989000E-03 0.  1.
     -623   -1    0    0    0    0  0.00000000000E+00  0.00000000000E+00  0.12525980253E-10  0.17130000000E+03  0.17130000000E+03 0.  1.
       11    1    1    2    0    0 -0.81064617446E-02 -0.72290059891E-02  0.47940146405E-01  0.49157828573E-01  0.51109989000E-03 0.  1.
     -623    1    1    2    0    0  0.26082897585E-01  0.15251186260E-01  0.14718583147E-02  0.17130000267E+03  0.17130000000E+03 0.  1.
      622    1    1    2    0    0 -0.17976435843E-01 -0.80221802718E-02  0.39505879629E+01  0.39508395007E+01  0.40000000000E-01 0.  1.
</event>
<event>
 5   0  0.7212170E+07  0.9118800E+02  0.7818608E-02  0.1180000E+00
       11   -1    0    0    0    0  0.00000000000E+00  0.00000000000E+00  0.39999999673E+01  0.40000000000E+01  0.51109989000E-03 0.  1.
     -623   -1    0    0    0    0  0.00000000000E+00  0.00000000000E+00  0.12525980253E-10  0.17130000000E+03  0.17130000000E+03 0.  1.
       11    1    1    2    0    0  0.56292349902E-02  0.28971040769E-04  0.26889186497E-01  0.27476875722E-01  0.51109989000E-03 0.  1.
     -623    1    1    2    0    0  0.29690165340E-02 -0.62658478848E-02  0.80338912086E-03  0.17130000014E+03  0.17130000000E+03 0.  1.
      622    1    1    2    0    0 -0.85982515241E-02  0.62368768438E-02  0.39723073916E+01  0.39725229819E+01  0.40000000000E-01 0.  1.
</event>
<event>
 5   0  0.7212170E+07  0.9118800E+02  0.7818608E-02  0.1180000E+00
       11   -1    0    0    0    0  0.00000000000E+00  0.00000000000E+00  0.39999999673E+01  0.40000000000E+01  0.51109989000E-03 0. -1.
     -623   -1    0    0    0    0  0.00000000000E+00  0.00000000000E+00  0.12525980253E-10  0.17130000000E+03  0.17130000000E+03 0.  1.
       11    1    1    2    0    0 -0.31889290327E-02  0.68379366229E-02  0.16784725912E+01  0.16784896268E+01  0.51109989000E-03 0. -1.
     -623    1    1    2    0    0 -0.38543219987E-02  0.85244057594E-02  0.42341136720E-03  0.17130000026E+03  0.17130000000E+03 0.  1.
      622    1    1    2    0    0  0.70432510308E-02 -0.15362342381E-01  0.23211039641E+01  0.23215101165E+01  0.40000000000E-01 0.  0.
</event>
<event>
 5   0  0.7212170E+07  0.9118800E+02  0.7818608E-02  0.1180000E+00
       11   -1    0    0    0    0  0.00000000000E+00  0.00000000000E+00  0.39999999673E+01  0.40000000000E+01  0.51109989000E-03 0. -1.
     -623   -1    0    0    0    0  0.00000000000E+00  0.00000000000E+00  0.12525980253E-10  0.17130000000E+03  0.17130000000E+03 0. -1.
       11    1    1    2    0    0 -0.99274332156E-03 -0.10717467736E-02  0.87495201839E-03  0.17779045479E-02  0.51109989000E-03 0. -1.
     -623    1    1    2    0    0  0.69806091864E-03  0.86780331319E-03  0.11030370650E-02  0.17130000001E+03  0.17130000000E+03 0. -1.
      622    1    1    2    0    0  0.29468240296E-03  0.20394346049E-03  0.39980219781E+01  0.39982220881E+01  0.40000000000E-01 0. -1.
</event>
<event>
 5   0  0.7212170E+07  0.9118800E+02  0.7818608E-02  0.1180000E+00
       11   -1    0    0    0    0  0.00000000000E+00  0.00000000000E+00  0.39999999673E+01  0.40000000000E+01  0.51109989000E-03 0. -1.
     -623   -1    0    0    0    0  0.00000000000E+00  0.00000000000E+00  0.12525980253E-10  0.17130000000E+03  0.17130000000E+03 0. -1.
       11    1    1    2    0    0  0.24791109724E-01 -0.74059426103E-02  0.86190073178E+00  0.86228915091E+00  0.51109989000E-03 0. -1.
     -623    1    1    2    0    0 -0.59983118175E-02  0.83225546333E-02  0.70008559403E-03  0.17130000031E+03  0.17130000000E+03 0. -1.
      622    1    1    2    0    0 -0.18792797906E-01 -0.91661202438E-03  0.31373991506E+01  0.31377105411E+01  0.40000000000E-01 0.  0.
</event>
<event>
 5   0  0.7212170E+07  0.9118800E+02  0.7818608E-02  0.1180000E+00
       11   -1    0    0    0    0  0.00000000000E+00  0.00000000000E+00  0.39999999673E+01  0.40000000000E+01  0.51109989000E-03 0.  1.
     -623   -1    0    0    0    0  0.00000000000E+00  0.00000000000E+00  0.12525980253E-10  0.17130000000E+03  0.17130000000E+03 0.  1.
       11    1    1    2    0    0  0.44539460812E-03  0.35316194432E-02  0.15966538339E-01  0.16366498766E-01  0.51109989000E-03 0.  1.
     -623    1    1    2    0    0 -0.88541021381E-03  0.18830377412E-02  0.60447260221E-03  0.17130000001E+03  0.17130000000E+03 0.  1.
      622    1    1    2    0    0  0.44001560561E-03 -0.54146571843E-02  0.39834289560E+01  0.39836334872E+01  0.40000000000E-01 0.  1.
</event>
<event>
 5   0  0.7212170E+07  0.9118800E+02  0.7818608E-02  0.1180000E+00
       11   -1    0    0    0    0  0.00000000000E+00  0.00000000000E+00  0.39999999673E+01  0.40000000000E+01  0.51109989000E-03 0.  1.
     -623   -1    0    0    0    0  0.00000000000E+00  0.00000000000E+00  0.12525980253E-10  0.17130000000E+03  0.17130000000E+03 0.  1.
       11    1    1    2    0    0 -0.39529822445E-03  0.20472785078E-03  0.92695693787E-02  0.92943162064E-02  0.51109989000E-03 0.  1.
     -623    1    1    2    0    0  0.32664660384E-03 -0.23227197705E-03  0.22518632339E-03  0.17130000000E+03  0.17130000000E+03 0.  1.
      622    1    1    2    0    0  0.68651620554E-04  0.27544126310E-04  0.39905052122E+01  0.39907056838E+01  0.40000000000E-01 0.  1.
</event>
<event>
 5   0  0.7212170E+07  0.9118800E+02  0.7818608E-02  0.1180000E+00
       11   -1    0    0    0    0  0.00000000000E+00  0.00000000000E+00  0.39999999673E+01  0.40000000000E+01  0.51109989000E-03 0.  1.
     -623   -1    0    0    0    0  0.00000000000E+00  0.00000000000E+00  0.12525980253E-10  0.17130000000E+03  0.17130000000E+03 0. -1.
       11    1    1    2    0    0  0.67022182331E-03 -0.35594644234E-03  0.61002170236E-03  0.10996566451E-02  0.51109989000E-03 0.  1.
     -623    1    1    2    0    0 -0.74451160159E-05 -0.97503410578E-03  0.68994290729E-03  0.17130000000E+03  0.17130000000E+03 0. -1.
      622    1    1    2    0    0 -0.66277670729E-03  0.13309805481E-02  0.39987000029E+01  0.39989003393E+01  0.40000000000E-01 0.  1.
</event>
<event>
 5   0  0.7212170E+07  0.9118800E+02  0.7818608E-02  0.1180000E+00
       11   -1    0    0    0    0  0.00000000000E+00  0.00000000000E+00  0.39999999673E+01  0.40000000000E+01  0.51109989000E-03 0. -1.
     -623   -1    0    0    0    0  0.00000000000E+00  0.00000000000E+00  0.12525980253E-10  0.17130000000E+03  0.17130000000E+03 0. -1.
       11    1    1    2    0    0  0.39061898931E-02 -0.48006854165E-02  0.13918197768E+00  0.13932045447E+00  0.51109989000E-03 0. -1.
     -623    1    1    2    0    0 -0.31832056799E-03 -0.74331894932E-03  0.35131750681E-03  0.17130000000E+03  0.17130000000E+03 0. -1.
      622    1    1    2    0    0 -0.35878693251E-02  0.55440043659E-02  0.38604666726E+01  0.38606795436E+01  0.40000000000E-01 0. -1.
</event>
<event>
 5   0  0.7212170E+07  0.9118800E+02  0.7818608E-02  0.1180000E+00
       11   -1    0    0    0    0  0.00000000000E+00  0.00000000000E+00  0.39999999673E+01  0.40000000000E+01  0.51109989000E-03 0.  1.
     -623   -1    0    0    0    0  0.00000000000E+00  0.00000000000E+00  0.12525980253E-10  0.17130000000E+03  0.17130000000E+03 0. -1.
       11    1    1    2    0    0 -0.83886666627E-02  0.14406160195E-01  0.40973422213E+00  0.41007353144E+00  0.51109989000E-03 0.  1.
     -623    1    1    2    0    0  0.18689273857E-01 -0.25326526834E-01  0.59641187995E-03  0.17130000289E+03  0.17130000000E+03 0. -1.
      622    1    1    2    0    0 -0.10300607198E-01  0.10920366645E-01  0.35896693342E+01  0.35899235766E+01  0.40000000000E-01 0.  1.
</event>
<event>
 5   0  0.7212170E+07  0.9118800E+02  0.7818608E-02  0.1180000E+00
       11   -1    0    0    0    0  0.00000000000E+00  0.00000000000E+00  0.39999999673E+01  0.40000000000E+01  0.51109989000E-03 0. -1.
     -623   -1    0    0    0    0  0.00000000000E+00  0.00000000000E+00  0.12525980253E-10  0.17130000000E+03  0.17130000000E+03 0. -1.
       11    1    1    2    0    0  0.65705187386E-02 -0.12565728691E-01  0.69878129795E-01  0.71304161875E-01  0.51109989000E-03 0. -1.
     -623    1    1    2    0    0 -0.16964363860E-01  0.34299582801E-01  0.17077876978E-02  0.17130000428E+03  0.17130000000E+03 0. -1.
      622    1    1    2    0    0  0.10393845122E-01 -0.21733854111E-01  0.39284140500E+01  0.39286915559E+01  0.40000000000E-01 0. -1.
</event>
<event>
 5   0  0.7212170E+07  0.9118800E+02  0.7818608E-02  0.1180000E+00
       11   -1    0    0    0    0  0.00000000000E+00  0.00000000000E+00  0.39999999673E+01  0.40000000000E+01  0.51109989000E-03 0.  1.
     -623   -1    0    0    0    0  0.00000000000E+00  0.00000000000E+00  0.12525980253E-10  0.17130000000E+03  0.17130000000E+03 0.  1.
       11    1    1    2    0    0 -0.52835251208E-02 -0.50453966825E-02  0.83239758269E-01  0.83561296334E-01  0.51109989000E-03 0.  1.
     -623    1    1    2    0    0 -0.15959441368E-02  0.11303053732E-02  0.53378936323E-03  0.17130000001E+03  0.17130000000E+03 0.  1.
      622    1    1    2    0    0  0.68794692579E-02  0.39150913091E-02  0.39162264205E+01  0.39164386924E+01  0.40000000000E-01 0.  1.
</event>
<event>
 5   0  0.7212170E+07  0.9118800E+02  0.7818608E-02  0.1180000E+00
       11   -1    0    0    0    0  0.00000000000E+00  0.00000000000E+00  0.39999999673E+01  0.40000000000E+01  0.51109989000E-03 0. -1.
     -623   -1    0    0    0    0  0.00000000000E+00  0.00000000000E+00  0.12525980253E-10  0.17130000000E+03  0.17130000000E+03 0. -1.
       11    1    1    2    0    0  0.40138358123E-02  0.62216664153E-02  0.22132530039E+00  0.22144970044E+00  0.51109989000E-03 0. -1.
     -623    1    1    2    0    0 -0.40374262513E-02 -0.32171968583E-02  0.33736750900E-03  0.17130000008E+03  0.17130000000E+03 0. -1.
      622    1    1    2    0    0  0.23590439686E-04 -0.30044695564E-02  0.37783373002E+01  0.37785502221E+01  0.40000000000E-01 0. -1.
</event>
<event>
 5   0  0.7212170E+07  0.9118800E+02  0.7818608E-02  0.1180000E+00
       11   -1    0    0    0    0  0.00000000000E+00  0.00000000000E+00  0.39999999673E+01  0.40000000000E+01  0.51109989000E-03 0. -1.
     -623   -1    0    0    0    0  0.00000000000E+00  0.00000000000E+00  0.12525980253E-10  0.17130000000E+03  0.17130000000E+03 0. -1.
       11    1    1    2    0    0 -0.11137055276E-01 -0.23342222137E-01  0.55441415918E+00  0.55501731005E+00  0.51109989000E-03 0. -1.
     -623    1    1    2    0    0  0.32359078247E-02 -0.89346931339E-02  0.99589489503E-03  0.17130000027E+03  0.17130000000E+03 0. -1.
      622    1    1    2    0    0  0.79011474514E-02  0.32276915270E-01  0.34445899129E+01  0.34449824231E+01  0.40000000000E-01 0. -1.
</event>
<event>
 5   0  0.7212170E+07  0.9118800E+02  0.7818608E-02  0.1180000E+00
       11   -1    0    0    0    0  0.00000000000E+00  0.00000000000E+00  0.39999999673E+01  0.40000000000E+01  0.51109989000E-03 0.  1.
     -623   -1    0    0    0    0  0.00000000000E+00  0.00000000000E+00  0.12525980253E-10  0.17130000000E+03  0.17130000000E+03 0. -1.
       11    1    1    2    0    0  0.31155670140E-01 -0.26984058790E-01  0.20224253646E+01  0.20228453801E+01  0.51109989000E-03 0.  1.
     -623    1    1    2    0    0  0.75640266563E-03 -0.16054080638E-02  0.12890471183E-02  0.17130000001E+03  0.17130000000E+03 0. -1.
      622    1    1    2    0    0 -0.31912072806E-01  0.28589466854E-01  0.19762855558E+01  0.19771546060E+01  0.40000000000E-01 0.  0.
</event>
<event>
 5   0  0.7212170E+07  0.9118800E+02  0.7818608E-02  0.1180000E+00
       11   -1    0    0    0    0  0.00000000000E+00  0.00000000000E+00  0.39999999673E+01  0.40000000000E+01  0.51109989000E-03 0.  1.
     -623   -1    0    0    0    0  0.00000000000E+00  0.00000000000E+00  0.12525980253E-10  0.17130000000E+03  0.17130000000E+03 0. -1.
       11    1    1    2    0    0 -0.27582367545E-02  0.14165872300E-02  0.52194347815E-02  0.60924799474E-02  0.51109989000E-03 0.  1.
     -623    1    1    2    0    0 -0.19031259138E-03 -0.62266925942E-03  0.10744946130E-02  0.17130000000E+03  0.17130000000E+03 0. -1.
      622    1    1    2    0    0  0.29485493459E-02 -0.79391797051E-03  0.39937060382E+01  0.39939075157E+01  0.40000000000E-01 0.  1.
</event>
<event>
 5   0  0.7212170E+07  0.9118800E+02  0.7818608E-02  0.1180000E+00
       11   -1    0    0    0    0  0.00000000000E+00  0.00000000000E+00  0.39999999673E+01  0.40000000000E+01  0.51109989000E-03 0.  1.
     -623   -1    0    0    0    0  0.00000000000E+00  0.00000000000E+00  0.12525980253E-10  0.17130000000E+03  0.17130000000E+03 0.  1.
       11    1    1    2    0    0 -0.28711374088E-01  0.19137676240E-01  0.95268858662E+00  0.95331337867E+00  0.51109989000E-03 0.  1.
     -623    1    1    2    0    0 -0.47996218123E-03 -0.46298456468E-03  0.10844585398E-02  0.17130000000E+03  0.17130000000E+03 0.  1.
      622    1    1    2    0    0  0.29191336269E-01 -0.18674691675E-01  0.30462269222E+01  0.30466866166E+01  0.40000000000E-01 0. -1.
</event>
<event>
 5   0  0.7212170E+07  0.9118800E+02  0.7818608E-02  0.1180000E+00
       11   -1    0    0    0    0  0.00000000000E+00  0.00000000000E+00  0.39999999673E+01  0.40000000000E+01  0.51109989000E-03 0. -1.
     -623   -1    0    0    0    0  0.00000000000E+00  0.00000000000E+00  0.12525980253E-10  0.17130000000E+03  0.17130000000E+03 0. -1.
       11    1    1    2    0    0 -0.25033319434E-02 -0.26196454579E-01  0.43895016524E+00  0.43973859246E+00  0.51109989000E-03 0. -1.
     -623    1    1    2    0    0 -0.11529541119E-02 -0.13309995602E-02  0.11214221745E-02  0.17130000001E+03  0.17130000000E+03 0. -1.
      622    1    1    2    0    0  0.36562860554E-02  0.27527454139E-01  0.35599283802E+01  0.35602613951E+01  0.40000000000E-01 0. -1.
</event>
<event>
 5   0  0.7212170E+07  0.9118800E+02  0.7818608E-02  0.1180000E+00
       11   -1    0    0    0    0  0.00000000000E+00  0.00000000000E+00  0.39999999673E+01  0.40000000000E+01  0.51109989000E-03 0. -1.
     -623   -1    0    0    0    0  0.00000000000E+00  0.00000000000E+00  0.12525980253E-10  0.17130000000E+03  0.17130000000E+03 0.  1.
       11    1    1    2    0    0  0.20610220109E-02 -0.61206661089E-02  0.14871458353E-01  0.16221339710E-01  0.51109989000E-03 0. -1.
     -623    1    1    2    0    0  0.19842491796E-02  0.13423748136E-02  0.15556117016E-02  0.17130000002E+03  0.17130000000E+03 0.  1.
      622    1    1    2    0    0 -0.40452711906E-02  0.47782912952E-02  0.39835728975E+01  0.39837786367E+01  0.40000000000E-01 0. -1.
</event>
<event>
 5   0  0.7212170E+07  0.9118800E+02  0.7818608E-02  0.1180000E+00
       11   -1    0    0    0    0  0.00000000000E+00  0.00000000000E+00  0.39999999673E+01  0.40000000000E+01  0.51109989000E-03 0. -1.
     -623   -1    0    0    0    0  0.00000000000E+00  0.00000000000E+00  0.12525980253E-10  0.17130000000E+03  0.17130000000E+03 0.  1.
       11    1    1    2    0    0 -0.72731292718E-03  0.54811451486E-02  0.20243910833E+00  0.20251524817E+00  0.51109989000E-03 0. -1.
     -623    1    1    2    0    0  0.22464666594E-03 -0.72601413230E-03  0.28979130478E-03  0.17130000000E+03  0.17130000000E+03 0.  1.
      622    1    1    2    0    0  0.50266626126E-03 -0.47551310164E-02  0.37972710674E+01  0.37974847496E+01  0.40000000000E-01 0. -1.
</event>
<event>
 5   0  0.7212170E+07  0.9118800E+02  0.7818608E-02  0.1180000E+00
       11   -1    0    0    0    0  0.00000000000E+00  0.00000000000E+00  0.39999999673E+01  0.40000000000E+01  0.51109989000E-03 0.  1.
     -623   -1    0    0    0    0  0.00000000000E+00  0.00000000000E+00  0.12525980253E-10  0.17130000000E+03  0.17130000000E+03 0. -1.
       11    1    1    2    0    0 -0.15592242170E-01 -0.25313972342E-02  0.82724481156E+00  0.82739577317E+00  0.51109989000E-03 0.  1.
     -623    1    1    2    0    0  0.40681855667E-03 -0.44419448935E-03  0.44083995281E-03  0.17130000000E+03  0.17130000000E+03 0. -1.
      622    1    1    2    0    0  0.15185423613E-01  0.29755917236E-02  0.31723143161E+01  0.31726042255E+01  0.40000000000E-01 0.  1.
</event>
<event>
 5   0  0.7212170E+07  0.9118800E+02  0.7818608E-02  0.1180000E+00
       11   -1    0    0    0    0  0.00000000000E+00  0.00000000000E+00  0.39999999673E+01  0.40000000000E+01  0.51109989000E-03 0.  1.
     -623   -1    0    0    0    0  0.00000000000E+00  0.00000000000E+00  0.12525980253E-10  0.17130000000E+03  0.17130000000E+03 0.  1.
       11    1    1    2    0    0  0.14548457434E-02  0.18168594375E-02  0.10807568572E+01  0.10807594844E+01  0.51109989000E-03 0.  1.
     -623    1    1    2    0    0 -0.98965803950E-03  0.47961615291E-03  0.27759551516E-03  0.17130000000E+03  0.17130000000E+03 0.  1.
      622    1    1    2    0    0 -0.46518770359E-03 -0.22964755906E-02  0.29189655161E+01  0.29192405133E+01  0.40000000000E-01 0.  1.
</event>
<event>
 5   0  0.7212170E+07  0.9118800E+02  0.7818608E-02  0.1180000E+00
       11   -1    0    0    0    0  0.00000000000E+00  0.00000000000E+00  0.39999999673E+01  0.40000000000E+01  0.51109989000E-03 0. -1.
     -623   -1    0    0    0    0  0.00000000000E+00  0.00000000000E+00  0.12525980253E-10  0.17130000000E+03  0.17130000000E+03 0.  1.
       11    1    1    2    0    0 -0.74868867780E-03  0.90659352502E-03  0.56510760591E-01  0.56525301700E-01  0.51109989000E-03 0. -1.
     -623    1    1    2    0    0  0.46006642568E-03 -0.50956189406E-03  0.21741252748E-03  0.17130000000E+03  0.17130000000E+03 0.  1.
      622    1    1    2    0    0  0.28862225222E-03 -0.39703163107E-03  0.39432717934E+01  0.39434746959E+01  0.40000000000E-01 0. -1.
</event>
<event>
 5   0  0.7212170E+07  0.9118800E+02  0.7818608E-02  0.1180000E+00
       11   -1    0    0    0    0  0.00000000000E+00  0.00000000000E+00  0.39999999673E+01  0.40000000000E+01  0.51109989000E-03 0. -1.
     -623   -1    0    0    0    0  0.00000000000E+00  0.00000000000E+00  0.12525980253E-10  0.17130000000E+03  0.17130000000E+03 0.  1.
       11    1    1    2    0    0 -0.28569627076E-02 -0.28508057057E-02  0.27608998756E+00  0.27611995905E+00  0.51109989000E-03 0. -1.
     -623    1    1    2    0    0  0.94455261393E-03  0.39792394785E-02  0.24548580739E-03  0.17130000005E+03  0.17130000000E+03 0.  1.
      622    1    1    2    0    0  0.19124100937E-02 -0.11284337731E-02  0.37236644942E+01  0.37238799922E+01  0.40000000000E-01 0. -1.
</event>
<event>
 5   0  0.7212170E+07  0.9118800E+02  0.7818608E-02  0.1180000E+00
       11   -1    0    0    0    0  0.00000000000E+00  0.00000000000E+00  0.39999999673E+01  0.40000000000E+01  0.51109989000E-03 0.  1.
     -623   -1    0    0    0    0  0.00000000000E+00  0.00000000000E+00  0.12525980253E-10  0.17130000000E+03  0.17130000000E+03 0.  1.
       11    1    1    2    0    0 -0.22636400726E-02  0.58103540962E-05  0.68604710033E-01  0.68643947745E-01  0.51109989000E-03 0.  1.
     -623    1    1    2    0    0  0.97910937456E-03 -0.90208980523E-03  0.24301984764E-03  0.17130000001E+03  0.17130000000E+03 0.  1.
      622    1    1    2    0    0  0.12845306978E-02  0.89627945130E-03  0.39311522382E+01  0.39313560477E+01  0.40000000000E-01 0.  1.
</event>
<event>
 5   0  0.7212170E+07  0.9118800E+02  0.7818608E-02  0.1180000E+00
       11   -1    0    0    0    0  0.00000000000E+00  0.00000000000E+00  0.39999999673E+01  0.40000000000E+01  0.51109989000E-03 0.  1.
     -623   -1    0    0    0    0  0.00000000000E+00  0.00000000000E+00  0.12525980253E-10  0.17130000000E+03  0.17130000000E+03 0.  1.
       11    1    1    2    0    0 -0.16302623456E-02  0.41036534367E-03  0.53395869985E-01  0.53424772434E-01  0.51109989000E-03 0.  1.
     -623    1    1    2    0    0  0.89703870902E-03  0.49530243062E-03  0.23175767350E-03  0.17130000000E+03  0.17130000000E+03 0.  1.
      622    1    1    2    0    0  0.73322363683E-03 -0.90566777414E-03  0.39463723385E+01  0.39465752231E+01  0.40000000000E-01 0.  1.
</event>
<event>
 5   0  0.7212170E+07  0.9118800E+02  0.7818608E-02  0.1180000E+00
       11   -1    0    0    0    0  0.00000000000E+00  0.00000000000E+00  0.39999999673E+01  0.40000000000E+01  0.51109989000E-03 0. -1.
     -623   -1    0    0    0    0  0.00000000000E+00  0.00000000000E+00  0.12525980253E-10  0.17130000000E+03  0.17130000000E+03 0.  1.
       11    1    1    2    0    0  0.11412904776E-01  0.47859847373E-02  0.40807438023E+00  0.40826231894E+00  0.51109989000E-03 0. -1.
     -623    1    1    2    0    0  0.80700382115E-03 -0.30051341810E-02  0.43190552441E-03  0.17130000003E+03  0.17130000000E+03 0.  1.
      622    1    1    2    0    0 -0.12219908598E-01 -0.17808505554E-02  0.35914936827E+01  0.35917376534E+01  0.40000000000E-01 0. -1.
</event>
<event>
 5   0  0.7212170E+07  0.9118800E+02  0.7818608E-02  0.1180000E+00
       11   -1    0    0    0    0  0.00000000000E+00  0.00000000000E+00  0.39999999673E+01  0.40000000000E+01  0.51109989000E-03 0. -1.
     -623   -1    0    0    0    0  0.00000000000E+00  0.00000000000E+00  0.12525980253E-10  0.17130000000E+03  0.17130000000E+03 0. -1.
       11    1    1    2    0    0  0.77963802973E-02  0.21164858468E-01  0.19224813082E+01  0.19226136836E+01  0.51109989000E-03 0. -1.
     -623    1    1    2    0    0  0.13925011567E-02 -0.33183145763E-02  0.61451807694E-03  0.17130000004E+03  0.17130000000E+03 0. -1.
      622    1    1    2    0    0 -0.91888814538E-02 -0.17846543892E-01  0.20769041405E+01  0.20773862769E+01  0.40000000000E-01 0. -1.
</event>
<event>
 5   0  0.7212170E+07  0.9118800E+02  0.7818608E-02  0.1180000E+00
       11   -1    0    0    0    0  0.00000000000E+00  0.00000000000E+00  0.39999999673E+01  0.40000000000E+01  0.51109989000E-03 0. -1.
     -623   -1    0    0    0    0  0.00000000000E+00  0.00000000000E+00  0.12525980253E-10  0.17130000000E+03  0.17130000000E+03 0. -1.
       11    1    1    2    0    0 -0.47540989781E-01 -0.18712580323E-01  0.10831358279E+01  0.10843402553E+01  0.51109989000E-03 0. -1.
     -623    1    1    2    0    0 -0.40960395875E-02 -0.10905482525E-01  0.20870038268E-02  0.17130000041E+03  0.17130000000E+03 0. -1.
      622    1    1    2    0    0  0.51637029369E-01  0.29618062848E-01  0.29147771357E+01  0.29156593360E+01  0.40000000000E-01 0. -1.
</event>
<event>
 5   0  0.7212170E+07  0.9118800E+02  0.7818608E-02  0.1180000E+00
       11   -1    0    0    0    0  0.00000000000E+00  0.00000000000E+00  0.39999999673E+01  0.40000000000E+01  0.51109989000E-03 0.  1.
     -623   -1    0    0    0    0  0.00000000000E+00  0.00000000000E+00  0.12525980253E-10  0.17130000000E+03  0.17130000000E+03 0. -1.
       11    1    1    2    0    0  0.41205486610E-02 -0.38048413338E-02  0.18587349923E+00  0.18595879833E+00  0.51109989000E-03 0.  1.
     -623    1    1    2    0    0 -0.13649268569E-02  0.13630595603E-02  0.29681180741E-03  0.17130000001E+03  0.17130000000E+03 0. -1.
      622    1    1    2    0    0 -0.27556218038E-02  0.24417817732E-02  0.38138296572E+01  0.38140411915E+01  0.40000000000E-01 0.  1.
</event>
<event>
 5   0  0.7212170E+07  0.9118800E+02  0.7818608E-02  0.1180000E+00
       11   -1    0    0    0    0  0.00000000000E+00  0.00000000000E+00  0.39999999673E+01  0.40000000000E+01  0.51109989000E-03 0. -1.
     -623   -1    0    0    0    0  0.00000000000E+00  0.00000000000E+00  0.12525980253E-10  0.17130000000E+03  0.17130000000E+03 0. -1.
       11    1    1    2    0    0  0.74577021021E-03 -0.32876828333E-04  0.33146051555E-02  0.34358528093E-02  0.51109989000E-03 0. -1.
     -623    1    1    2    0    0 -0.28495249625E-03 -0.34633301245E-03  0.32143741561E-03  0.17130000000E+03  0.17130000000E+03 0. -1.
      622    1    1    2    0    0 -0.46081771404E-03  0.37920984069E-03  0.39963639238E+01  0.39965641453E+01  0.40000000000E-01 0. -1.
</event>
<event>
 5   0  0.7212170E+07  0.9118800E+02  0.7818608E-02  0.1180000E+00
       11   -1    0    0    0    0  0.00000000000E+00  0.00000000000E+00  0.39999999673E+01  0.40000000000E+01  0.51109989000E-03 0. -1.
     -623   -1    0    0    0    0  0.00000000000E+00  0.00000000000E+00  0.12525980253E-10  0.17130000000E+03  0.17130000000E+03 0. -1.
       11    1    1    2    0    0 -0.54678924609E-02  0.10606916767E-01  0.12834356320E+00  0.12889816123E+00  0.51109989000E-03 0. -1.
     -623    1    1    2    0    0  0.43259729211E-02  0.42051658124E-02  0.78984643489E-03  0.17130000011E+03  0.17130000000E+03 0. -1.
      622    1    1    2    0    0  0.11419195396E-02 -0.14812082579E-01  0.38708665578E+01  0.38711017308E+01  0.40000000000E-01 0. -1.
</event>
<event>
 5   0  0.7212170E+07  0.9118800E+02  0.7818608E-02  0.1180000E+00
       11   -1    0    0    0    0  0.00000000000E+00  0.00000000000E+00  0.39999999673E+01  0.40000000000E+01  0.51109989000E-03 0. -1.
     -623   -1    0    0    0    0  0.00000000000E+00  0.00000000000E+00  0.12525980253E-10  0.17130000000E+03  0.17130000000E+03 0.  1.
       11    1    1    2    0    0 -0.17477641291E-03  0.55022814653E-03  0.34077360867E-02  0.34938783811E-02  0.51109989000E-03 0. -1.
     -623    1    1    2    0    0  0.13577912342E-02 -0.18941576621E-03  0.28648663056E-03  0.17130000001E+03  0.17130000000E+03 0.  1.
      622    1    1    2    0    0 -0.11830148212E-02 -0.36081238033E-03  0.39963057444E+01  0.39965061157E+01  0.40000000000E-01 0. -1.
</event>
<event>
 5   0  0.7212170E+07  0.9118800E+02  0.7818608E-02  0.1180000E+00
       11   -1    0    0    0    0  0.00000000000E+00  0.00000000000E+00  0.39999999673E+01  0.40000000000E+01  0.51109989000E-03 0.  1.
     -623   -1    0    0    0    0  0.00000000000E+00  0.00000000000E+00  0.12525980253E-10  0.17130000000E+03  0.17130000000E+03 0. -1.
       11    1    1    2    0    0 -0.75360474691E-03 -0.41636253926E-03  0.41335935975E-02  0.42531279085E-02  0.51109989000E-03 0.  1.
     -623    1    1    2    0    0  0.55420778521E-03 -0.37039520223E-03  0.31980360041E-03  0.17130000000E+03  0.17130000000E+03 0. -1.
      622    1    1    2    0    0  0.19939696158E-03  0.78675774157E-03  0.39955465709E+01  0.39957468713E+01  0.40000000000E-01 0.  1.
</event>
<event>
 5   0  0.7212170E+07  0.9118800E+02  0.7818608E-02  0.1180000E+00
       11   -1    0    0    0    0  0.00000000000E+00  0.00000000000E+00  0.39999999673E+01  0.40000000000E+01  0.51109989000E-03 0. -1.
     -623   -1    0    0    0    0  0.00000000000E+00  0.00000000000E+00  0.12525980253E-10  0.17130000000E+03  0.17130000000E+03 0.  1.
       11    1    1    2    0    0 -0.13560559152E-02 -0.93649854370E-02  0.16778197525E+00  0.16804938049E+00  0.51109989000E-03 0. -1.
     -623    1    1    2    0    0 -0.23069466788E-02  0.97596986438E-03  0.48710234812E-03  0.17130000002E+03  0.17130000000E+03 0.  1.
      622    1    1    2    0    0  0.36630025938E-02  0.83890155727E-02  0.38317308894E+01  0.38319506001E+01  0.40000000000E-01 0. -1.
</event>
<event>
 5   0  0.7212170E+07  0.9118800E+02  0.7818608E-02  0.1180000E+00
       11   -1    0    0    0    0  0.00000000000E+00  0.00000000000E+00  0.39999999673E+01  0.40000000000E+01  0.51109989000E-03 0. -1.
     -623   -1    0    0    0    0  0.00000000000E+00  0.00000000000E+00  0.12525980253E-10  0.17130000000E+03  0.17130000000E+03 0.  1.
       11    1    1    2    0    0  0.90329906645E-03 -0.12364456048E-02  0.18037335400E-02  0.24206248611E-02  0.51109989000E-03 0. -1.
     -623    1    1    2    0    0 -0.11465005192E-02  0.19040776907E-02  0.81706431465E-03  0.17130000002E+03  0.17130000000E+03 0.  1.
      622    1    1    2    0    0  0.24320145278E-03 -0.66763208588E-03  0.39973791695E+01  0.39975793588E+01  0.40000000000E-01 0. -1.
</event>
<event>
 5   0  0.7212170E+07  0.9118800E+02  0.7818608E-02  0.1180000E+00
       11   -1    0    0    0    0  0.00000000000E+00  0.00000000000E+00  0.39999999673E+01  0.40000000000E+01  0.51109989000E-03 0.  1.
     -623   -1    0    0    0    0  0.00000000000E+00  0.00000000000E+00  0.12525980253E-10  0.17130000000E+03  0.17130000000E+03 0.  1.
       11    1    1    2    0    0 -0.30615878934E-03 -0.64327239641E-02  0.61417860726E-01  0.61756687979E-01  0.51109989000E-03 0.  1.
     -623    1    1    2    0    0 -0.55980225935E-03  0.21830845809E-02  0.54433995695E-03  0.17130000002E+03  0.17130000000E+03 0.  1.
      622    1    1    2    0    0  0.86596104867E-03  0.42496393834E-02  0.39380377665E+01  0.39382432961E+01  0.40000000000E-01 0.  1.
</event>
<event>
 5   0  0.7212170E+07  0.9118800E+02  0.7818608E-02  0.1180000E+00
       11   -1    0    0    0    0  0.00000000000E+00  0.00000000000E+00  0.39999999673E+01  0.40000000000E+01  0.51109989000E-03 0. -1.
     -623   -1    0    0    0    0  0.00000000000E+00  0.00000000000E+00  0.12525980253E-10  0.17130000000E+03  0.17130000000E+03 0. -1.
       11    1    1    2    0    0  0.12145594502E-02  0.22560454203E-02  0.59944121888E-02  0.65390439809E-02  0.51109989000E-03 0. -1.
     -623    1    1    2    0    0  0.65752085264E-03 -0.94317712038E-03  0.74559178717E-03  0.17130000001E+03  0.17130000000E+03 0. -1.
      622    1    1    2    0    0 -0.18720803028E-02 -0.13128682999E-02  0.39932599636E+01  0.39934609507E+01  0.40000000000E-01 0. -1.
</event>
<event>
 5   0  0.7212170E+07  0.9118800E+02  0.7818608E-02  0.1180000E+00
       11   -1    0    0    0    0  0.00000000000E+00  0.00000000000E+00  0.39999999673E+01  0.40000000000E+01  0.51109989000E-03 0. -1.
     -623   -1    0    0    0    0  0.00000000000E+00  0.00000000000E+00  0.12525980253E-10  0.17130000000E+03  0.17130000000E+03 0.  1.
       11    1    1    2    0    0 -0.22441252876E-02  0.16171954299E-02  0.83478097001E-01  0.83525477080E-01  0.51109989000E-03 0. -1.
     -623    1    1    2    0    0 -0.10330651728E-02 -0.16112747711E-02  0.25300019036E-03  0.17130000001E+03  0.17130000000E+03 0.  1.
      622    1    1    2    0    0  0.32771904604E-02 -0.59206587684E-05  0.39162688702E+01  0.39164745120E+01  0.40000000000E-01 0. -1.
</event>
<event>
 5   0  0.7212170E+07  0.9118800E+02  0.7818608E-02  0.1180000E+00
       11   -1    0    0    0    0  0.00000000000E+00  0.00000000000E+00  0.39999999673E+01  0.40000000000E+01  0.51109989000E-03 0.  1.
     -623   -1    0    0    0    0  0.00000000000E+00  0.00000000000E+00  0.12525980253E-10  0.17130000000E+03  0.17130000000E+03 0.  1.
       11    1    1    2    0    0 -0.10454628725E-02 -0.28136406278E-04  0.37816668766E-02  0.39567678398E-02  0.51109989000E-03 0.  1.
     -623    1    1    2    0    0  0.14013271156E-02 -0.43183641814E-03  0.37532038083E-03  0.17130000001E+03  0.17130000000E+03 0.  1.
      622    1    1    2    0    0 -0.35586424330E-03  0.45997282447E-03  0.39958429806E+01  0.39960432260E+01  0.40000000000E-01 0.  1.
</event>
<event>
 5   0  0.7212170E+07  0.9118800E+02  0.7818608E-02  0.1180000E+00
       11   -1    0    0    0    0  0.00000000000E+00  0.00000000000E+00  0.39999999673E+01  0.40000000000E+01  0.51109989000E-03 0. -1.
     -623   -1    0    0    0    0  0.00000000000E+00  0.00000000000E+00  0.12525980253E-10  0.17130000000E+03  0.17130000000E+03 0. -1.
       11    1    1    2    0    0 -0.11641866546E-01 -0.25413613462E-02  0.26258507614E+01  0.26258778482E+01  0.51109989000E-03 0. -1.
     -623    1    1    2    0    0 -0.26963748542E-02 -0.30434653877E-02  0.69561156286E-03  0.17130000005E+03  0.17130000000E+03 0. -1.
      622    1    1    2    0    0  0.14338241400E-01  0.55848267339E-02  0.13734535945E+01  0.13741221022E+01  0.40000000000E-01 0. -1.
</event>
<event>
 5   0  0.7212170E+07  0.9118800E+02  0.7818608E-02  0.1180000E+00
       11   -1    0    0    0    0  0.00000000000E+00  0.00000000000E+00  0.39999999673E+01  0.40000000000E+01  0.51109989000E-03 0.  1.
     -623   -1    0    0    0    0  0.00000000000E+00  0.00000000000E+00  0.12525980253E-10  0.17130000000E+03  0.17130000000E+03 0.  1.
       11    1    1    2    0    0 -0.10781568889E-01  0.16454754940E-01  0.10968711506E+01  0.10970476669E+01  0.51109989000E-03 0.  1.
     -623    1    1    2    0    0 -0.29023862985E-03 -0.80310371194E-02  0.48560652461E-03  0.17130000019E+03  0.17130000000E+03 0.  1.
      622    1    1    2    0    0  0.11071807519E-01 -0.84237178210E-02  0.29026432099E+01  0.29029521436E+01  0.40000000000E-01 0. -1.
</event>
<event>
 5   0  0.7212170E+07  0.9118800E+02  0.7818608E-02  0.1180000E+00
       11   -1    0    0    0    0  0.00000000000E+00  0.00000000000E+00  0.39999999673E+01  0.40000000000E+01  0.51109989000E-03 0.  1.
     -623   -1    0    0    0    0  0.00000000000E+00  0.00000000000E+00  0.12525980253E-10  0.17130000000E+03  0.17130000000E+03 0.  1.
       11    1    1    2    0    0  0.52996974743E-02 -0.21786695689E-01  0.96566996140E+00  0.96593037144E+00  0.51109989000E-03 0.  1.
     -623    1    1    2    0    0 -0.18521622533E-01  0.10266296048E-02  0.62490994525E-03  0.17130000101E+03  0.17130000000E+03 0.  1.
      622    1    1    2    0    0  0.13221925060E-01  0.20760066085E-01  0.30337050964E+01  0.30340686235E+01  0.40000000000E-01 0.  1.
</event>
<event>
 5   0  0.7212170E+07  0.9118800E+02  0.7818608E-02  0.1180000E+00
       11   -1    0    0    0    0  0.00000000000E+00  0.00000000000E+00  0.39999999673E+01  0.40000000000E+01  0.51109989000E-03 0.  1.
     -623   -1    0    0    0    0  0.00000000000E+00  0.00000000000E+00  0.12525980253E-10  0.17130000000E+03  0.17130000000E+03 0. -1.
       11    1    1    2    0    0  0.38531152098E-03 -0.98366363667E-03  0.97207513085E-03  0.15238806633E-02  0.51109989000E-03 0. -1.
     -623    1    1    2    0    0  0.23348372213E-03 -0.43884491968E-02  0.75556905323E-03  0.17130000006E+03  0.17130000000E+03 0. -1.
      622    1    1    2    0    0 -0.61879524311E-03  0.53721128335E-02  0.39982723232E+01  0.39984760613E+01  0.40000000000E-01 0.  1.
</event>
<event>
 5   0  0.7212170E+07  0.9118800E+02  0.7818608E-02  0.1180000E+00
       11   -1    0    0    0    0  0.00000000000E+00  0.00000000000E+00  0.39999999673E+01  0.40000000000E+01  0.51109989000E-03 0.  1.
     -623   -1    0    0    0    0  0.00000000000E+00  0.00000000000E+00  0.12525980253E-10  0.17130000000E+03  0.17130000000E+03 0.  1.
       11    1    1    2    0    0  0.11777724612E-01  0.56661565955E-02  0.12502053092E+00  0.12570288184E+00  0.51109989000E-03 0.  1.
     -623    1    1    2    0    0 -0.71997024423E-03  0.73335971325E-02  0.92656576915E-03  0.17130000016E+03  0.17130000000E+03 0.  1.
      622    1    1    2    0    0 -0.11057754368E-01 -0.12999753728E-01  0.38740528705E+01  0.38742969570E+01  0.40000000000E-01 0.  1.
</event>
<event>
 5   0  0.7212170E+07  0.9118800E+02  0.7818608E-02  0.1180000E+00
       11   -1    0    0    0    0  0.00000000000E+00  0.00000000000E+00  0.39999999673E+01  0.40000000000E+01  0.51109989000E-03 0. -1.
     -623   -1    0    0    0    0  0.00000000000E+00  0.00000000000E+00  0.12525980253E-10  0.17130000000E+03  0.17130000000E+03 0. -1.
       11    1    1    2    0    0  0.14879049633E-02  0.11857540739E-01  0.25733699698E-01  0.28377802184E-01  0.51109989000E-03 0. -1.
     -623    1    1    2    0    0 -0.26546484709E-01 -0.13766932066E-01  0.29276555496E-02  0.17130000264E+03  0.17130000000E+03 0. -1.
      622    1    1    2    0    0  0.25058579747E-01  0.19093913273E-02  0.39713386123E+01  0.39716195628E+01  0.40000000000E-01 0. -1.
</event>
<event>
 5   0  0.7212170E+07  0.9118800E+02  0.7818608E-02  0.1180000E+00
       11   -1    0    0    0    0  0.00000000000E+00  0.00000000000E+00  0.39999999673E+01  0.40000000000E+01  0.51109989000E-03 0. -1.
     -623   -1    0    0    0    0  0.00000000000E+00  0.00000000000E+00  0.12525980253E-10  0.17130000000E+03  0.17130000000E+03 0.  1.
       11    1    1    2    0    0  0.45042373875E-03 -0.32053367023E-04  0.13164055346E-02  0.14825840927E-02  0.51109989000E-03 0. -1.
     -623    1    1    2    0    0 -0.68060330604E-03  0.52857705702E-03  0.36626509523E-03  0.17130000000E+03  0.17130000000E+03 0.  1.
      622    1    1    2    0    0  0.23017956737E-03 -0.49652369006E-03  0.39983172972E+01  0.39985174138E+01  0.40000000000E-01 0. -1.
</event>
<event>
 5   0  0.7212170E+07  0.9118800E+02  0.7818608E-02  0.1180000E+00
       11   -1    0    0    0    0  0.00000000000E+00  0.00000000000E+00  0.39999999673E+01  0.40000000000E+01  0.51109989000E-03 0.  1.
     -623   -1    0    0    0    0  0.00000000000E+00  0.00000000000E+00  0.12525980253E-10  0.17130000000E+03  0.17130000000E+03 0.  1.
       11    1    1    2    0    0 -0.10483902536E-01 -0.88671638660E-02  0.16285735857E+01  0.16286315495E+01  0.51109989000E-03 0.  1.
     -623    1    1    2    0    0 -0.12348381094E-02 -0.95683076075E-04  0.44121879508E-03  0.17130000001E+03  0.17130000000E+03 0.  1.
      622    1    1    2    0    0  0.11718740646E-01  0.89628469421E-02  0.23709851626E+01  0.23713684451E+01  0.40000000000E-01 0.  1.
</event>
<event>
 5   0  0.7212170E+07  0.9118800E+02  0.7818608E-02  0.1180000E+00
       11   -1    0    0    0    0  0.00000000000E+00  0.00000000000E+00  0.39999999673E+01  0.40000000000E+01  0.51109989000E-03 0.  1.
     -623   -1    0    0    0    0  0.00000000000E+00  0.00000000000E+00  0.12525980253E-10  0.17130000000E+03  0.17130000000E+03 0.  1.
       11    1    1    2    0    0 -0.17299523030E-02  0.17265320399E-02  0.50394725811E-01  0.50456548242E-01  0.51109989000E-03 0.  1.
     -623    1    1    2    0    0 -0.87041808943E-03  0.48549402459E-02  0.27076128361E-03  0.17130000007E+03  0.17130000000E+03 0.  1.
      622    1    1    2    0    0  0.26003703920E-02 -0.65814722840E-02  0.39493344787E+01  0.39495433790E+01  0.40000000000E-01 0.  1.
</event>
<event>
 5   0  0.7212170E+07  0.9118800E+02  0.7818608E-02  0.1180000E+00
       11   -1    0    0    0    0  0.00000000000E+00  0.00000000000E+00  0.39999999673E+01  0.40000000000E+01  0.51109989000E-03 0. -1.
     -623   -1    0    0    0    0  0.00000000000E+00  0.00000000000E+00  0.12525980253E-10  0.17130000000E+03  0.17130000000E+03 0.  1.
       11    1    1    2    0    0  0.14633552750E-02 -0.61429860704E-03  0.21218467967E-01  0.21283875996E-01  0.51109989000E-03 0. -1.
     -623    1    1    2    0    0 -0.23103696155E-02  0.13228043660E-02  0.26662450216E-03  0.17130000002E+03  0.17130000000E+03 0.  1.
      622    1    1    2    0    0  0.84701434163E-03 -0.70850575954E-03  0.39785148767E+01  0.39787161049E+01  0.40000000000E-01 0. -1.
</event>
<event>
 5   0  0.7212170E+07  0.9118800E+02  0.7818608E-02  0.1180000E+00
       11   -1    0    0    0    0  0.00000000000E+00  0.00000000000E+00  0.39999999673E+01  0.40000000000E+01  0.51109989000E-03 0. -1.
     -623   -1    0    0    0    0  0.00000000000E+00  0.00000000000E+00  0.12525980253E-10  0.17130000000E+03  0.17130000000E+03 0.  1.
       11    1    1    2    0    0 -0.23394021477E-02 -0.68008342181E-03  0.10543995777E+01  0.10544025161E+01  0.51109989000E-03 0. -1.
     -623    1    1    2    0    0  0.15612354937E-02 -0.51640204584E-03  0.27486399349E-03  0.17130000001E+03  0.17130000000E+03 0.  1.
      622    1    1    2    0    0  0.77816665381E-03  0.11964854677E-02  0.29453255261E+01  0.29455974762E+01  0.40000000000E-01 0. -1.
</event>
<event>
 5   0  0.7212170E+07  0.9118800E+02  0.7818608E-02  0.1180000E+00
       11   -1    0    0    0    0  0.00000000000E+00  0.00000000000E+00  0.39999999673E+01  0.40000000000E+01  0.51109989000E-03 0. -1.
     -623   -1    0    0    0    0  0.00000000000E+00  0.00000000000E+00  0.12525980253E-10  0.17130000000E+03  0.17130000000E+03 0. -1.
       11    1    1    2    0    0 -0.96396407867E-02 -0.53113975937E-03  0.95681879195E-01  0.96169059543E-01  0.51109989000E-03 0. -1.
     -623    1    1    2    0    0 -0.10213362400E-01  0.83190200856E-02  0.75084119551E-03  0.17130000051E+03  0.17130000000E+03 0. -1.
      622    1    1    2    0    0  0.19853003188E-01 -0.77878803273E-02  0.39035672475E+01  0.39038304329E+01  0.40000000000E-01 0. -1.
</event>
<event>
 5   0  0.7212170E+07  0.9118800E+02  0.7818608E-02  0.1180000E+00
       11   -1    0    0    0    0  0.00000000000E+00  0.00000000000E+00  0.39999999673E+01  0.40000000000E+01  0.51109989000E-03 0. -1.
     -623   -1    0    0    0    0  0.00000000000E+00  0.00000000000E+00  0.12525980253E-10  0.17130000000E+03  0.17130000000E+03 0. -1.
       11    1    1    2    0    0  0.14284272028E-02 -0.16031308633E-02  0.17186682897E+00  0.17188100115E+00  0.51109989000E-03 0. -1.
     -623    1    1    2    0    0  0.34500726465E-04  0.80658207305E-03  0.22348963504E-03  0.17130000000E+03  0.17130000000E+03 0. -1.
      622    1    1    2    0    0 -0.14629279292E-02  0.79654879040E-03  0.38279096482E+01  0.38281189963E+01  0.40000000000E-01 0. -1.
</event>
<event>
 5   0  0.7212170E+07  0.9118800E+02  0.7818608E-02  0.1180000E+00
       11   -1    0    0    0    0  0.00000000000E+00  0.00000000000E+00  0.39999999673E+01  0.40000000000E+01  0.51109989000E-03 0.  1.
     -623   -1    0    0    0    0  0.00000000000E+00  0.00000000000E+00  0.12525980253E-10  0.17130000000E+03  0.17130000000E+03 0.  1.
       11    1    1    2    0    0 -0.95197749380E-03 -0.10998514276E-03  0.39550379311E-02  0.41014516960E-02  0.51109989000E-03 0.  1.
     -623    1    1    2    0    0  0.32137357894E-03 -0.11834604418E-03  0.34664840152E-03  0.17130000000E+03  0.17130000000E+03 0.  1.
      622    1    1    2    0    0  0.63060391476E-03  0.22833118698E-03  0.39956982823E+01  0.39958985489E+01  0.40000000000E-01 0.  1.
</event>
<event>
 5   0  0.7212170E+07  0.9118800E+02  0.7818608E-02  0.1180000E+00
       11   -1    0    0    0    0  0.00000000000E+00  0.00000000000E+00  0.39999999673E+01  0.40000000000E+01  0.51109989000E-03 0.  1.
     -623   -1    0    0    0    0  0.00000000000E+00  0.00000000000E+00  0.12525980253E-10  0.17130000000E+03  0.17130000000E+03 0. -1.
       11    1    1    2    0    0  0.46688753256E-02  0.20438937206E-02  0.13192194916E+00  0.13202135355E+00  0.51109989000E-03 0.  1.
     -623    1    1    2    0    0 -0.23715653586E-02  0.30171848846E-02  0.31024045513E-03  0.17130000004E+03  0.17130000000E+03 0. -1.
      622    1    1    2    0    0 -0.22973099677E-02 -0.50610786046E-02  0.38677677768E+01  0.38679786022E+01  0.40000000000E-01 0.  1.
</event>
<event>
 5   0  0.7212170E+07  0.9118800E+02  0.7818608E-02  0.1180000E+00
       11   -1    0    0    0    0  0.00000000000E+00  0.00000000000E+00  0.39999999673E+01  0.40000000000E+01  0.51109989000E-03 0.  1.
     -623   -1    0    0    0    0  0.00000000000E+00  0.00000000000E+00  0.12525980253E-10  0.17130000000E+03  0.17130000000E+03 0. -1.
       11    1    1    2    0    0 -0.48176862829E-01 -0.97373801593E-02  0.27070417170E+01  0.27074879400E+01  0.51109989000E-03 0.  1.
     -623    1    1    2    0    0 -0.20466460451E-02  0.35558594971E-02  0.20567614147E-02  0.17130000006E+03  0.17130000000E+03 0. -1.
      622    1    1    2    0    0  0.50223508874E-01  0.61815206622E-02  0.12909014889E+01  0.12925119984E+01  0.40000000000E-01 0. -1.
</event>
<event>
 5   0  0.7212170E+07  0.9118800E+02  0.7818608E-02  0.1180000E+00
       11   -1    0    0    0    0  0.00000000000E+00  0.00000000000E+00  0.39999999673E+01  0.40000000000E+01  0.51109989000E-03 0. -1.
     -623   -1    0    0    0    0  0.00000000000E+00  0.00000000000E+00  0.12525980253E-10  0.17130000000E+03  0.17130000000E+03 0.  1.
       11    1    1    2    0    0  0.31332461518E-02 -0.22096619472E-03  0.63932374177E-02  0.71414820090E-02  0.51109989000E-03 0. -1.
     -623    1    1    2    0    0 -0.58119347487E-02 -0.16086672137E-03  0.94959282740E-03  0.17130000010E+03  0.17130000000E+03 0.  1.
      622    1    1    2    0    0  0.26786885972E-02  0.38183291611E-03  0.39926571374E+01  0.39928584170E+01  0.40000000000E-01 0. -1.
</event>
<event>
 5   0  0.7212170E+07  0.9118800E+02  0.7818608E-02  0.1180000E+00
       11   -1    0    0    0    0  0.00000000000E+00  0.00000000000E+00  0.39999999673E+01  0.40000000000E+01  0.51109989000E-03 0.  1.
     -623   -1    0    0    0    0  0.00000000000E+00  0.00000000000E+00  0.12525980253E-10  0.17130000000E+03  0.17130000000E+03 0.  1.
       11    1    1    2    0    0 -0.15676298995E-01 -0.37573160419E-03  0.97806091703E+00  0.97818674401E+00  0.51109989000E-03 0.  1.
     -623    1    1    2    0    0  0.15055995278E-02 -0.15724038932E-02  0.42441966787E-03  0.17130000001E+03  0.17130000000E+03 0.  1.
      622    1    1    2    0    0  0.14170699467E-01  0.19481354978E-02  0.30215146319E+01  0.30218132428E+01  0.40000000000E-01 0.  1.
</event>
<event>
 5   0  0.7212170E+07  0.9118800E+02  0.7818608E-02  0.1180000E+00
       11   -1    0    0    0    0  0.00000000000E+00  0.00000000000E+00  0.39999999673E+01  0.40000000000E+01  0.51109989000E-03 0. -1.
     -623   -1    0    0    0    0  0.00000000000E+00  0.00000000000E+00  0.12525980253E-10  0.17130000000E+03  0.17130000000E+03 0. -1.
       11    1    1    2    0    0  0.15548225006E-01  0.33222911063E-01  0.15843749704E+01  0.15847996142E+01  0.51109989000E-03 0. -1.
     -623    1    1    2    0    0  0.64719833428E-03 -0.29523152546E-01  0.81555950950E-03  0.17130000255E+03  0.17130000000E+03 0. -1.
      622    1    1    2    0    0 -0.16195423340E-01 -0.36997585188E-02  0.24148094372E+01  0.24151978382E+01  0.40000000000E-01 0. -1.
</event>
<event>
 5   0  0.7212170E+07  0.9118800E+02  0.7818608E-02  0.1180000E+00
       11   -1    0    0    0    0  0.00000000000E+00  0.00000000000E+00  0.39999999673E+01  0.40000000000E+01  0.51109989000E-03 0. -1.
     -623   -1    0    0    0    0  0.00000000000E+00  0.00000000000E+00  0.12525980253E-10  0.17130000000E+03  0.17130000000E+03 0. -1.
       11    1    1    2    0    0  0.30573391094E-01 -0.27293658867E-01  0.17127710471E+01  0.17132613919E+01  0.51109989000E-03 0. -1.
     -623    1    1    2    0    0  0.74695623550E-02  0.11073010472E-01  0.12147723119E-02  0.17130000053E+03  0.17130000000E+03 0. -1.
      622    1    1    2    0    0 -0.38042953449E-01  0.16220648394E-01  0.22860141481E+01  0.22867380832E+01  0.40000000000E-01 0. -1.
</event>
<event>
 5   0  0.7212170E+07  0.9118800E+02  0.7818608E-02  0.1180000E+00
       11   -1    0    0    0    0  0.00000000000E+00  0.00000000000E+00  0.39999999673E+01  0.40000000000E+01  0.51109989000E-03 0. -1.
     -623   -1    0    0    0    0  0.00000000000E+00  0.00000000000E+00  0.12525980253E-10  0.17130000000E+03  0.17130000000E+03 0. -1.
       11    1    1    2    0    0 -0.61858898048E-03 -0.64405407904E-03  0.43752402184E-02  0.44945976516E-02  0.51109989000E-03 0. -1.
     -623    1    1    2    0    0  0.12931280221E-03  0.52211607457E-03  0.31958775540E-03  0.17130000000E+03  0.17130000000E+03 0. -1.
      622    1    1    2    0    0  0.48927617827E-03  0.12193800442E-03  0.39953051397E+01  0.39955054016E+01  0.40000000000E-01 0. -1.
</event>
<event>
 5   0  0.7212170E+07  0.9118800E+02  0.7818608E-02  0.1180000E+00
       11   -1    0    0    0    0  0.00000000000E+00  0.00000000000E+00  0.39999999673E+01  0.40000000000E+01  0.51109989000E-03 0.  1.
     -623   -1    0    0    0    0  0.00000000000E+00  0.00000000000E+00  0.12525980253E-10  0.17130000000E+03  0.17130000000E+03 0. -1.
       11    1    1    2    0    0  0.33753841140E-03 -0.83774630691E-03  0.44907966950E-02  0.46091462450E-02  0.51109989000E-03 0.  1.
     -623    1    1    2    0    0 -0.67331663957E-03  0.16037274393E-03  0.31862587915E-03  0.17130000000E+03  0.17130000000E+03 0. -1.
      622    1    1    2    0    0  0.33577822810E-03  0.67737356300E-03  0.39951905444E+01  0.39953908516E+01  0.40000000000E-01 0.  1.
</event>
<event>
 5   0  0.7212170E+07  0.9118800E+02  0.7818608E-02  0.1180000E+00
       11   -1    0    0    0    0  0.00000000000E+00  0.00000000000E+00  0.39999999673E+01  0.40000000000E+01  0.51109989000E-03 0.  1.
     -623   -1    0    0    0    0  0.00000000000E+00  0.00000000000E+00  0.12525980253E-10  0.17130000000E+03  0.17130000000E+03 0. -1.
       11    1    1    2    0    0 -0.70311701298E-02  0.10542257599E-01  0.21661663079E+01  0.21662034326E+01  0.51109989000E-03 0.  1.
     -623    1    1    2    0    0  0.29646498571E-02 -0.13480048596E-01  0.48081788350E-03  0.17130000056E+03  0.17130000000E+03 0. -1.
      622    1    1    2    0    0  0.40665202729E-02  0.29377909962E-02  0.18333528413E+01  0.18337960104E+01  0.40000000000E-01 0.  1.
</event>
<event>
 5   0  0.7212170E+07  0.9118800E+02  0.7818608E-02  0.1180000E+00
       11   -1    0    0    0    0  0.00000000000E+00  0.00000000000E+00  0.39999999673E+01  0.40000000000E+01  0.51109989000E-03 0.  1.
     -623   -1    0    0    0    0  0.00000000000E+00  0.00000000000E+00  0.12525980253E-10  0.17130000000E+03  0.17130000000E+03 0.  1.
       11    1    1    2    0    0  0.14426028535E-01 -0.10172787865E-02  0.17703190570E+01  0.17703781997E+01  0.51109989000E-03 0.  1.
     -623    1    1    2    0    0 -0.21689081820E-01  0.92193827364E-02  0.44648703126E-03  0.17130000162E+03  0.17130000000E+03 0.  1.
      622    1    1    2    0    0  0.72630532893E-02 -0.82021039515E-02  0.22292344240E+01  0.22296201792E+01  0.40000000000E-01 0.  0.
</event>
<event>
 5   0  0.7212170E+07  0.9118800E+02  0.7818608E-02  0.1180000E+00
       11   -1    0    0    0    0  0.00000000000E+00  0.00000000000E+00  0.39999999673E+01  0.40000000000E+01  0.51109989000E-03 0.  1.
     -623   -1    0    0    0    0  0.00000000000E+00  0.00000000000E+00  0.12525980253E-10  0.17130000000E+03  0.17130000000E+03 0.  1.
       11    1    1    2    0    0  0.72910762786E-02  0.28541639368E-03  0.18570643087E+00  0.18585042627E+00  0.51109989000E-03 0.  1.
     -623    1    1    2    0    0  0.57340806692E-03  0.48695542479E-03  0.36190252178E-03  0.17130000000E+03  0.17130000000E+03 0.  1.
      622    1    1    2    0    0 -0.78644843456E-02 -0.77237181852E-03  0.38139316344E+01  0.38141495722E+01  0.40000000000E-01 0.  1.
</event>
<event>
 5   0  0.7212170E+07  0.9118800E+02  0.7818608E-02  0.1180000E+00
       11   -1    0    0    0    0  0.00000000000E+00  0.00000000000E+00  0.39999999673E+01  0.40000000000E+01  0.51109989000E-03 0.  1.
     -623   -1    0    0    0    0  0.00000000000E+00  0.00000000000E+00  0.12525980253E-10  0.17130000000E+03  0.17130000000E+03 0.  1.
       11    1    1    2    0    0 -0.18504210260E-03 -0.23813589733E-02  0.45806664587E-01  0.45871743533E-01  0.51109989000E-03 0.  1.
     -623    1    1    2    0    0 -0.36129597741E-02  0.26911982766E-02  0.26926738743E-03  0.17130000006E+03  0.17130000000E+03 0.  1.
      622    1    1    2    0    0  0.37980018770E-02 -0.30983930357E-03  0.39539240358E+01  0.39541281974E+01  0.40000000000E-01 0.  1.
</event>
<event>
 5   0  0.7212170E+07  0.9118800E+02  0.7818608E-02  0.1180000E+00
       11   -1    0    0    0    0  0.00000000000E+00  0.00000000000E+00  0.39999999673E+01  0.40000000000E+01  0.51109989000E-03 0.  1.
     -623   -1    0    0    0    0  0.00000000000E+00  0.00000000000E+00  0.12525980253E-10  0.17130000000E+03  0.17130000000E+03 0.  1.
       11    1    1    2    0    0 -0.49910586127E-03  0.25291324777E-01  0.84439741646E+00  0.84477639548E+00  0.51109989000E-03 0.  1.
     -623    1    1    2    0    0  0.12369203110E-01 -0.52489845321E-01  0.78056574524E-03  0.17130000849E+03  0.17130000000E+03 0.  1.
      622    1    1    2    0    0 -0.11870097249E-01  0.27198520547E-01  0.31548219854E+01  0.31552151144E+01  0.40000000000E-01 0.  1.
</event>
<event>
 5   0  0.7212170E+07  0.9118800E+02  0.7818608E-02  0.1180000E+00
       11   -1    0    0    0    0  0.00000000000E+00  0.00000000000E+00  0.39999999673E+01  0.40000000000E+01  0.51109989000E-03 0.  1.
     -623   -1    0    0    0    0  0.00000000000E+00  0.00000000000E+00  0.12525980253E-10  0.17130000000E+03  0.17130000000E+03 0. -1.
       11    1    1    2    0    0 -0.47421602354E-01  0.40302843925E-01  0.21555357095E+01  0.21564339971E+01  0.51109989000E-03 0.  1.
     -623    1    1    2    0    0  0.20880908405E-01  0.45756995578E-02  0.20712077533E-02  0.17130000135E+03  0.17130000000E+03 0. -1.
      622    1    1    2    0    0  0.26540693949E-01 -0.44878543483E-01  0.18423930500E+01  0.18435646566E+01  0.40000000000E-01 0. -1.
</event>
<event>
 5   0  0.7212170E+07  0.9118800E+02  0.7818608E-02  0.1180000E+00
       11   -1    0    0    0    0  0.00000000000E+00  0.00000000000E+00  0.39999999673E+01  0.40000000000E+01  0.51109989000E-03 0. -1.
     -623   -1    0    0    0    0  0.00000000000E+00  0.00000000000E+00  0.12525980253E-10  0.17130000000E+03  0.17130000000E+03 0.  1.
       11    1    1    2    0    0  0.66128686304E-02  0.36445277566E-02  0.25615821652E+00  0.25626998600E+00  0.51109989000E-03 0. -1.
     -623    1    1    2    0    0 -0.18913848137E-02  0.27123272967E-02  0.33384056879E-03  0.17130000003E+03  0.17130000000E+03 0.  1.
      622    1    1    2    0    0 -0.47214838161E-02 -0.63568550542E-02  0.37435079117E+01  0.37437299831E+01  0.40000000000E-01 0. -1.
</event>
<event>
 5   0  0.7212170E+07  0.9118800E+02  0.7818608E-02  0.1180000E+00
       11   -1    0    0    0    0  0.00000000000E+00  0.00000000000E+00  0.39999999673E+01  0.40000000000E+01  0.51109989000E-03 0. -1.
     -623   -1    0    0    0    0  0.00000000000E+00  0.00000000000E+00  0.12525980253E-10  0.17130000000E+03  0.17130000000E+03 0. -1.
       11    1    1    2    0    0 -0.15242039493E-01 -0.31553575226E-02  0.13317944198E+01  0.13318854732E+01  0.51109989000E-03 0. -1.
     -623    1    1    2    0    0  0.17840963587E-02 -0.17260494881E-02  0.42930421081E-03  0.17130000002E+03  0.17130000000E+03 0. -1.
      622    1    1    2    0    0  0.13457943135E-01  0.48814070104E-02  0.26677762428E+01  0.26681145077E+01  0.40000000000E-01 0. -1.
</event>
<event>
 5   0  0.7212170E+07  0.9118800E+02  0.7818608E-02  0.1180000E+00
       11   -1    0    0    0    0  0.00000000000E+00  0.00000000000E+00  0.39999999673E+01  0.40000000000E+01  0.51109989000E-03 0.  1.
     -623   -1    0    0    0    0  0.00000000000E+00  0.00000000000E+00  0.12525980253E-10  0.17130000000E+03  0.17130000000E+03 0. -1.
       11    1    1    2    0    0 -0.94344379821E-03  0.62195227666E-04  0.22349743265E-01  0.22375571536E-01  0.51109989000E-03 0.  1.
     -623    1    1    2    0    0  0.63099735787E-02  0.30575253208E-02  0.23191333565E-03  0.17130000014E+03  0.17130000000E+03 0. -1.
      622    1    1    2    0    0 -0.53665297795E-02 -0.31197205480E-02  0.39774183101E+01  0.39776242842E+01  0.40000000000E-01 0.  1.
</event>
<event>
 5   0  0.7212170E+07  0.9118800E+02  0.7818608E-02  0.1180000E+00
       11   -1    0    0    0    0  0.00000000000E+00  0.00000000000E+00  0.39999999673E+01  0.40000000000E+01  0.51109989000E-03 0.  1.
     -623   -1    0    0    0    0  0.00000000000E+00  0.00000000000E+00  0.12525980253E-10  0.17130000000E+03  0.17130000000E+03 0. -1.
       11    1    1    2    0    0 -0.99695633780E-03 -0.17996369676E-02  0.48832429453E-02  0.53235232614E-02  0.51109989000E-03 0.  1.
     -623    1    1    2    0    0  0.32406876607E-02 -0.12923453159E-02  0.64238282130E-03  0.17130000004E+03  0.17130000000E+03 0. -1.
      622    1    1    2    0    0 -0.22437313227E-02  0.30919822835E-02  0.39944743414E+01  0.39946764398E+01  0.40000000000E-01 0.  1.
</event>
<event>
 5   0  0.7212170E+07  0.9118800E+02  0.7818608E-02  0.1180000E+00
       11   -1    0    0    0    0  0.00000000000E+00  0.00000000000E+00  0.39999999673E+01  0.40000000000E+01  0.51109989000E-03 0.  1.
     -623   -1    0    0    0    0  0.00000000000E+00  0.00000000000E+00  0.12525980253E-10  0.17130000000E+03  0.17130000000E+03 0. -1.
       11    1    1    2    0    0  0.20899028765E-02  0.17914613026E-02  0.57938626264E+00  0.57939302687E+00  0.51109989000E-03 0.  1.
     -623    1    1    2    0    0 -0.26573012094E-02 -0.50448590105E-04  0.24112715751E-03  0.17130000002E+03  0.17130000000E+03 0. -1.
      622    1    1    2    0    0  0.56739833450E-03 -0.17410127125E-02  0.34203725801E+01  0.34206069549E+01  0.40000000000E-01 0.  1.
</event>
<event>
 5   0  0.7212170E+07  0.9118800E+02  0.7818608E-02  0.1180000E+00
       11   -1    0    0    0    0  0.00000000000E+00  0.00000000000E+00  0.39999999673E+01  0.40000000000E+01  0.51109989000E-03 0.  1.
     -623   -1    0    0    0    0  0.00000000000E+00  0.00000000000E+00  0.12525980253E-10  0.17130000000E+03  0.17130000000E+03 0. -1.
       11    1    1    2    0    0  0.24641370418E-02  0.14052691916E-01  0.63784325992E+00  0.63800300592E+00  0.51109989000E-03 0.  1.
     -623    1    1    2    0    0  0.32071513704E-03 -0.59355890771E-03  0.42577352912E-03  0.17130000000E+03  0.17130000000E+03 0. -1.
      622    1    1    2    0    0 -0.27848521788E-02 -0.13459133008E-01  0.33617309343E+01  0.33619969926E+01  0.40000000000E-01 0.  0.
</event>
<event>
 5   0  0.7212170E+07  0.9118800E+02  0.7818608E-02  0.1180000E+00
       11   -1    0    0    0    0  0.00000000000E+00  0.00000000000E+00  0.39999999673E+01  0.40000000000E+01  0.51109989000E-03 0.  1.
     -623   -1    0    0    0    0  0.00000000000E+00  0.00000000000E+00  0.12525980253E-10  0.17130000000E+03  0.17130000000E+03 0. -1.
       11    1    1    2    0    0  0.97068744580E-02 -0.12129297773E-02  0.18212087261E+00  0.18238412232E+00  0.51109989000E-03 0.  1.
     -623    1    1    2    0    0 -0.43865138534E-02  0.47411069146E-02  0.47823809448E-03  0.17130000012E+03  0.17130000000E+03 0. -1.
      622    1    1    2    0    0 -0.53203606041E-02 -0.35281771379E-02  0.38174008572E+01  0.38176157557E+01  0.40000000000E-01 0.  1.
</event>
<event>
 5   0  0.7212170E+07  0.9118800E+02  0.7818608E-02  0.1180000E+00
       11   -1    0    0    0    0  0.00000000000E+00  0.00000000000E+00  0.39999999673E+01  0.40000000000E+01  0.51109989000E-03 0. -1.
     -623   -1    0    0    0    0  0.00000000000E+00  0.00000000000E+00  0.12525980253E-10  0.17130000000E+03  0.17130000000E+03 0.  1.
       11    1    1    2    0    0  0.61329637451E-03  0.24283325215E-03  0.93505535067E-02  0.93877140141E-02  0.51109989000E-03 0.  1.
     -623    1    1    2    0    0 -0.33331335630E-03 -0.28317659045E-03  0.23761414231E-03  0.17130000000E+03  0.17130000000E+03 0.  1.
      622    1    1    2    0    0 -0.27998301824E-03  0.40343338272E-04  0.39904117994E+01  0.39906122849E+01  0.40000000000E-01 0. -1.
</event>
<event>
 5   0  0.7212170E+07  0.9118800E+02  0.7818608E-02  0.1180000E+00
       11   -1    0    0    0    0  0.00000000000E+00  0.00000000000E+00  0.39999999673E+01  0.40000000000E+01  0.51109989000E-03 0.  1.
     -623   -1    0    0    0    0  0.00000000000E+00  0.00000000000E+00  0.12525980253E-10  0.17130000000E+03  0.17130000000E+03 0.  1.
       11    1    1    2    0    0 -0.11815408894E-01 -0.53821289789E-02  0.81992684801E-01  0.83015858628E-01  0.51109989000E-03 0.  1.
     -623    1    1    2    0    0 -0.34942627823E-02  0.31413135672E-02  0.12580162104E-02  0.17130000007E+03  0.17130000000E+03 0.  1.
      622    1    1    2    0    0  0.15309671677E-01  0.22408154117E-02  0.39167492665E+01  0.39169840725E+01  0.40000000000E-01 0.  1.
</event>
<event>
 5   0  0.7212170E+07  0.9118800E+02  0.7818608E-02  0.1180000E+00
       11   -1    0    0    0    0  0.00000000000E+00  0.00000000000E+00  0.39999999673E+01  0.40000000000E+01  0.51109989000E-03 0. -1.
     -623   -1    0    0    0    0  0.00000000000E+00  0.00000000000E+00  0.12525980253E-10  0.17130000000E+03  0.17130000000E+03 0.  1.
       11    1    1    2    0    0  0.72422935347E-03 -0.74149986944E-03 -0.87715720102E-03  0.14508473613E-02  0.51109989000E-03 0. -1.
     -623    1    1    2    0    0  0.12093125150E-02  0.30109778188E-02  0.25292104997E-02  0.17130000005E+03  0.17130000000E+03 0.  1.
      622    1    1    2    0    0 -0.19335418685E-02 -0.22694779495E-02  0.39983479143E+01  0.39985491034E+01  0.40000000000E-01 0. -1.
</event>
<event>
 5   0  0.7212170E+07  0.9118800E+02  0.7818608E-02  0.1180000E+00
       11   -1    0    0    0    0  0.00000000000E+00  0.00000000000E+00  0.39999999673E+01  0.40000000000E+01  0.51109989000E-03 0. -1.
     -623   -1    0    0    0    0  0.00000000000E+00  0.00000000000E+00  0.12525980253E-10  0.17130000000E+03  0.17130000000E+03 0. -1.
       11    1    1    2    0    0 -0.34877431909E-02  0.79534300515E-02  0.31263620506E+00  0.31275722109E+00  0.51109989000E-03 0. -1.
     -623    1    1    2    0    0  0.99083470713E-02  0.10545348651E-02  0.35483863126E-03  0.17130000029E+03  0.17130000000E+03 0. -1.
      622    1    1    2    0    0 -0.64206038799E-02 -0.90079649166E-02  0.36870089235E+01  0.36872424885E+01  0.40000000000E-01 0. -1.
</event>
<event>
 5   0  0.7212170E+07  0.9118800E+02  0.7818608E-02  0.1180000E+00
       11   -1    0    0    0    0  0.00000000000E+00  0.00000000000E+00  0.39999999673E+01  0.40000000000E+01  0.51109989000E-03 0.  1.
     -623   -1    0    0    0    0  0.00000000000E+00  0.00000000000E+00  0.12525980253E-10  0.17130000000E+03  0.17130000000E+03 0. -1.
       11    1    1    2    0    0 -0.18481032003E-04  0.74501453638E-03  0.64425931224E-02  0.65056604159E-02  0.51109989000E-03 0.  1.
     -623    1    1    2    0    0  0.23315072875E-04 -0.43422832281E-03  0.26337834205E-03  0.17130000000E+03  0.17130000000E+03 0. -1.
      622    1    1    2    0    0 -0.48340408784E-05 -0.31078621346E-03  0.39932939969E+01  0.39934943399E+01  0.40000000000E-01 0.  1.
</event>
<event>
 5   0  0.7212170E+07  0.9118800E+02  0.7818608E-02  0.1180000E+00
       11   -1    0    0    0    0  0.00000000000E+00  0.00000000000E+00  0.39999999673E+01  0.40000000000E+01  0.51109989000E-03 0. -1.
     -623   -1    0    0    0    0  0.00000000000E+00  0.00000000000E+00  0.12525980253E-10  0.17130000000E+03  0.17130000000E+03 0. -1.
       11    1    1    2    0    0  0.88502071772E-02  0.22021201862E-02  0.49728988378E+00  0.49737376814E+00  0.51109989000E-03 0. -1.
     -623    1    1    2    0    0 -0.11216346133E-02 -0.38871267902E-03  0.32126023211E-03  0.17130000000E+03  0.17130000000E+03 0. -1.
      622    1    1    2    0    0 -0.77285725639E-02 -0.18134075072E-02  0.35023888230E+01  0.35026262271E+01  0.40000000000E-01 0. -1.
</event>
<event>
 5   0  0.7212170E+07  0.9118800E+02  0.7818608E-02  0.1180000E+00
       11   -1    0    0    0    0  0.00000000000E+00  0.00000000000E+00  0.39999999673E+01  0.40000000000E+01  0.51109989000E-03 0.  1.
     -623   -1    0    0    0    0  0.00000000000E+00  0.00000000000E+00  0.12525980253E-10  0.17130000000E+03  0.17130000000E+03 0. -1.
       11    1    1    2    0    0  0.34686949444E-01 -0.16630904777E-01  0.59065702312E+00  0.59190856696E+00  0.51109989000E-03 0.  1.
     -623    1    1    2    0    0  0.15641453970E-03  0.18095671968E-02  0.16966361555E-02  0.17130000002E+03  0.17130000000E+03 0. -1.
      622    1    1    2    0    0 -0.34843363983E-01  0.14821337580E-01  0.34076463083E+01  0.34080914152E+01  0.40000000000E-01 0.  1.
</event>
<event>
 5   0  0.7212170E+07  0.9118800E+02  0.7818608E-02  0.1180000E+00
       11   -1    0    0    0    0  0.00000000000E+00  0.00000000000E+00  0.39999999673E+01  0.40000000000E+01  0.51109989000E-03 0. -1.
     -623   -1    0    0    0    0  0.00000000000E+00  0.00000000000E+00  0.12525980253E-10  0.17130000000E+03  0.17130000000E+03 0.  1.
       11    1    1    2    0    0  0.13728413518E-01  0.23308406047E-01  0.13249548003E+01  0.13252310120E+01  0.51109989000E-03 0. -1.
     -623    1    1    2    0    0 -0.16329785132E-01 -0.42085063899E-01  0.64841581709E-03  0.17130000595E+03  0.17130000000E+03 0.  1.
      622    1    1    2    0    0  0.26013716153E-02  0.18776657855E-01  0.26743967514E+01  0.26747630388E+01  0.40000000000E-01 0. -1.
</event>
<event>
 5   0  0.7212170E+07  0.9118800E+02  0.7818608E-02  0.1180000E+00
       11   -1    0    0    0    0  0.00000000000E+00  0.00000000000E+00  0.39999999673E+01  0.40000000000E+01  0.51109989000E-03 0.  1.
     -623   -1    0    0    0    0  0.00000000000E+00  0.00000000000E+00  0.12525980253E-10  0.17130000000E+03  0.17130000000E+03 0. -1.
       11    1    1    2    0    0  0.15368157563E-01  0.54328953345E-03  0.27248627327E-01  0.31292560533E-01  0.51109989000E-03 0.  1.
     -623    1    1    2    0    0  0.11608010117E-01 -0.40935202762E-02  0.43392550746E-02  0.17130000050E+03  0.17130000000E+03 0. -1.
      622    1    1    2    0    0 -0.26976167680E-01  0.35502307428E-02  0.39684120850E+01  0.39687069423E+01  0.40000000000E-01 0.  1.
</event>
<event>
 5   0  0.7212170E+07  0.9118800E+02  0.7818608E-02  0.1180000E+00
       11   -1    0    0    0    0  0.00000000000E+00  0.00000000000E+00  0.39999999673E+01  0.40000000000E+01  0.51109989000E-03 0.  1.
     -623   -1    0    0    0    0  0.00000000000E+00  0.00000000000E+00  0.12525980253E-10  0.17130000000E+03  0.17130000000E+03 0.  1.
       11    1    1    2    0    0 -0.14001477500E-02 -0.72272285452E-03  0.96689968600E-02  0.98098657189E-02  0.51109989000E-03 0.  1.
     -623    1    1    2    0    0  0.45575748354E-04  0.32593237130E-03  0.34158327528E-03  0.17130000000E+03  0.17130000000E+03 0.  1.
      622    1    1    2    0    0  0.13545720017E-02  0.39679048326E-03  0.39899893867E+01  0.39901901331E+01  0.40000000000E-01 0.  1.
</event>
<event>
 5   0  0.7212170E+07  0.9118800E+02  0.7818608E-02  0.1180000E+00
       11   -1    0    0    0    0  0.00000000000E+00  0.00000000000E+00  0.39999999673E+01  0.40000000000E+01  0.51109989000E-03 0.  1.
     -623   -1    0    0    0    0  0.00000000000E+00  0.00000000000E+00  0.12525980253E-10  0.17130000000E+03  0.17130000000E+03 0. -1.
       11    1    1    2    0    0 -0.51003619846E-02  0.11326362537E-01  0.11893323396E+01  0.11893973161E+01  0.51109989000E-03 0.  1.
     -623    1    1    2    0    0 -0.77330603028E-03  0.13181423261E-02  0.38418603752E-03  0.17130000001E+03  0.17130000000E+03 0. -1.
      622    1    1    2    0    0  0.58736680151E-02 -0.12644504864E-01  0.28102834429E+01  0.28106026779E+01  0.40000000000E-01 0.  0.
</event>
<event>
 5   0  0.7212170E+07  0.9118800E+02  0.7818608E-02  0.1180000E+00
       11   -1    0    0    0    0  0.00000000000E+00  0.00000000000E+00  0.39999999673E+01  0.40000000000E+01  0.51109989000E-03 0. -1.
     -623   -1    0    0    0    0  0.00000000000E+00  0.00000000000E+00  0.12525980253E-10  0.17130000000E+03  0.17130000000E+03 0.  1.
       11    1    1    2    0    0  0.20896297893E-01 -0.22331881497E-01  0.93458126077E+00  0.93508168756E+00  0.51109989000E-03 0. -1.
     -623    1    1    2    0    0 -0.91616780729E-02  0.10425781874E-03  0.86474589245E-03  0.17130000025E+03  0.17130000000E+03 0.  1.
      622    1    1    2    0    0 -0.11734619820E-01  0.22227623678E-01  0.30645539606E+01  0.30649180652E+01  0.40000000000E-01 0. -1.
</event>
<event>
 5   0  0.7212170E+07  0.9118800E+02  0.7818608E-02  0.1180000E+00
       11   -1    0    0    0    0  0.00000000000E+00  0.00000000000E+00  0.39999999673E+01  0.40000000000E+01  0.51109989000E-03 0.  1.
     -623   -1    0    0    0    0  0.00000000000E+00  0.00000000000E+00  0.12525980253E-10  0.17130000000E+03  0.17130000000E+03 0.  1.
       11    1    1    2    0    0  0.62645137155E-03 -0.10165346977E-02  0.81216013673E-03  0.15318653001E-02  0.51109989000E-03 0.  1.
     -623    1    1    2    0    0  0.57492123083E-03 -0.77138137235E-04  0.92008767516E-03  0.17130000000E+03  0.17130000000E+03 0.  1.
      622    1    1    2    0    0 -0.12013726024E-02  0.10936728349E-02  0.39982677197E+01  0.39984681314E+01  0.40000000000E-01 0.  1.
</event>
<event>
 5   0  0.7212170E+07  0.9118800E+02  0.7818608E-02  0.1180000E+00
       11   -1    0    0    0    0  0.00000000000E+00  0.00000000000E+00  0.39999999673E+01  0.40000000000E+01  0.51109989000E-03 0.  1.
     -623   -1    0    0    0    0  0.00000000000E+00  0.00000000000E+00  0.12525980253E-10  0.17130000000E+03  0.17130000000E+03 0. -1.
       11    1    1    2    0    0  0.13291968083E-01  0.83919628627E-02  0.59012068223E+00  0.59033023155E+00  0.51109989000E-03 0.  1.
     -623    1    1    2    0    0 -0.72756212898E-02  0.23008983530E-02  0.46639830348E-03  0.17130000017E+03  0.17130000000E+03 0. -1.
      622    1    1    2    0    0 -0.60163467927E-02 -0.10692861216E-01  0.34094128870E+01  0.34096695980E+01  0.40000000000E-01 0.  1.
</event>
<event>
 5   0  0.7212170E+07  0.9118800E+02  0.7818608E-02  0.1180000E+00
       11   -1    0    0    0    0  0.00000000000E+00  0.00000000000E+00  0.39999999673E+01  0.40000000000E+01  0.51109989000E-03 0.  1.
     -623   -1    0    0    0    0  0.00000000000E+00  0.00000000000E+00  0.12525980253E-10  0.17130000000E+03  0.17130000000E+03 0. -1.
       11    1    1    2    0    0  0.19205243738E-01 -0.10938193846E-01  0.32917329560E+00  0.32991484542E+00  0.51109989000E-03 0.  1.
     -623    1    1    2    0    0 -0.98959812111E-03  0.12021541717E-02  0.10176348348E-02  0.17130000001E+03  0.17130000000E+03 0. -1.
      622    1    1    2    0    0 -0.18215645617E-01  0.97360396740E-02  0.36698090371E+01  0.36700851446E+01  0.40000000000E-01 0.  1.
</event>
<event>
 5   0  0.7212170E+07  0.9118800E+02  0.7818608E-02  0.1180000E+00
       11   -1    0    0    0    0  0.00000000000E+00  0.00000000000E+00  0.39999999673E+01  0.40000000000E+01  0.51109989000E-03 0. -1.
     -623   -1    0    0    0    0  0.00000000000E+00  0.00000000000E+00  0.12525980253E-10  0.17130000000E+03  0.17130000000E+03 0.  1.
       11    1    1    2    0    0 -0.11472213502E-02 -0.11046674675E-02  0.38412652403E-02  0.41896239430E-02  0.51109989000E-03 0. -1.
     -623    1    1    2    0    0 -0.51237512381E-03  0.92415634136E-03  0.54889365657E-03  0.17130000000E+03  0.17130000000E+03 0.  1.
      622    1    1    2    0    0  0.16595964740E-02  0.18051112617E-03  0.39956098085E+01  0.39958103719E+01  0.40000000000E-01 0. -1.
</event>
<event>
 5   0  0.7212170E+07  0.9118800E+02  0.7818608E-02  0.1180000E+00
       11   -1    0    0    0    0  0.00000000000E+00  0.00000000000E+00  0.39999999673E+01  0.40000000000E+01  0.51109989000E-03 0. -1.
     -623   -1    0    0    0    0  0.00000000000E+00  0.00000000000E+00  0.12525980253E-10  0.17130000000E+03  0.17130000000E+03 0. -1.
       11    1    1    2    0    0  0.40868024550E-02 -0.12824671681E-02  0.58269551497E-01  0.58429004194E-01  0.51109989000E-03 0. -1.
     -623    1    1    2    0    0 -0.26426824102E-02 -0.89790524043E-03  0.36328082071E-03  0.17130000002E+03  0.17130000000E+03 0. -1.
      622    1    1    2    0    0 -0.14441200443E-02  0.21803724087E-02  0.39413671357E+01  0.39415709733E+01  0.40000000000E-01 0. -1.
</event>
<event>
 5   0  0.7212170E+07  0.9118800E+02  0.7818608E-02  0.1180000E+00
       11   -1    0    0    0    0  0.00000000000E+00  0.00000000000E+00  0.39999999673E+01  0.40000000000E+01  0.51109989000E-03 0.  1.
     -623   -1    0    0    0    0  0.00000000000E+00  0.00000000000E+00  0.12525980253E-10  0.17130000000E+03  0.17130000000E+03 0. -1.
       11    1    1    2    0    0  0.53486637292E-03  0.99431981087E-03  0.31434975945E-01  0.31459397478E-01  0.51109989000E-03 0.  1.
     -623    1    1    2    0    0  0.49280027437E-03 -0.14766350778E-03  0.22620375778E-03  0.17130000000E+03  0.17130000000E+03 0. -1.
      622    1    1    2    0    0 -0.10276666475E-02 -0.84665630304E-03  0.39683387890E+01  0.39685406030E+01  0.40000000000E-01 0.  1.
</event>
<event>
 5   0  0.7212170E+07  0.9118800E+02  0.7818608E-02  0.1180000E+00
       11   -1    0    0    0    0  0.00000000000E+00  0.00000000000E+00  0.39999999673E+01  0.40000000000E+01  0.51109989000E-03 0. -1.
     -623   -1    0    0    0    0  0.00000000000E+00  0.00000000000E+00  0.12525980253E-10  0.17130000000E+03  0.17130000000E+03 0. -1.
       11    1    1    2    0    0 -0.17220059767E-01 -0.14866504300E-01  0.24418692946E+01  0.24419753186E+01  0.51109989000E-03 0. -1.
     -623    1    1    2    0    0 -0.15697363121E-01  0.32870847666E-01  0.10754021419E-02  0.17130000388E+03  0.17130000000E+03 0. -1.
      622    1    1    2    0    0  0.32917422891E-01 -0.18004343371E-01  0.15570552712E+01  0.15580208056E+01  0.40000000000E-01 0.  0.
</event>
<event>
 5   0  0.7212170E+07  0.9118800E+02  0.7818608E-02  0.1180000E+00
       11   -1    0    0    0    0  0.00000000000E+00  0.00000000000E+00  0.39999999673E+01  0.40000000000E+01  0.51109989000E-03 0.  1.
     -623   -1    0    0    0    0  0.00000000000E+00  0.00000000000E+00  0.12525980253E-10  0.17130000000E+03  0.17130000000E+03 0. -1.
       11    1    1    2    0    0  0.45168316506E-03  0.52336336497E-03 -0.13566928574E-02  0.16061648422E-02  0.51109989000E-03 0.  1.
     -623    1    1    2    0    0  0.32878393986E-02 -0.43703096864E-02  0.31666264877E-02  0.17130000012E+03  0.17130000000E+03 0. -1.
      622    1    1    2    0    0 -0.37395225637E-02  0.38469463215E-02  0.39981900338E+01  0.39983937187E+01  0.40000000000E-01 0.  1.
</event>
<event>
 5   0  0.7212170E+07  0.9118800E+02  0.7818608E-02  0.1180000E+00
       11   -1    0    0    0    0  0.00000000000E+00  0.00000000000E+00  0.39999999673E+01  0.40000000000E+01  0.51109989000E-03 0.  1.
     -623   -1    0    0    0    0  0.00000000000E+00  0.00000000000E+00  0.12525980253E-10  0.17130000000E+03  0.17130000000E+03 0.  1.
       11    1    1    2    0    0  0.54428693184E-02  0.48316029790E-02  0.19516274022E-01  0.20835435886E-01  0.51109989000E-03 0.  1.
     -623    1    1    2    0    0 -0.45246915143E-02 -0.21874878888E-02  0.15212464900E-02  0.17130000008E+03  0.17130000000E+03 0.  1.
      622    1    1    2    0    0 -0.91817780411E-03 -0.26441150903E-02  0.39789624468E+01  0.39791644836E+01  0.40000000000E-01 0.  1.
</event>
<event>
 5   0  0.7212170E+07  0.9118800E+02  0.7818608E-02  0.1180000E+00
       11   -1    0    0    0    0  0.00000000000E+00  0.00000000000E+00  0.39999999673E+01  0.40000000000E+01  0.51109989000E-03 0.  1.
     -623   -1    0    0    0    0  0.00000000000E+00  0.00000000000E+00  0.12525980253E-10  0.17130000000E+03  0.17130000000E+03 0.  1.
       11    1    1    2    0    0  0.97804891504E-02  0.16779904211E-01  0.50265323703E+00  0.50302858872E+00  0.51109989000E-03 0.  1.
     -623    1    1    2    0    0  0.24890353646E-01  0.17164168411E-02  0.82672485445E-03  0.17130000182E+03  0.17130000000E+03 0.  1.
      622    1    1    2    0    0 -0.34670842800E-01 -0.18496321052E-01  0.34965200061E+01  0.34969695930E+01  0.40000000000E-01 0.  0.
</event>
<event>
 5   0  0.7212170E+07  0.9118800E+02  0.7818608E-02  0.1180000E+00
       11   -1    0    0    0    0  0.00000000000E+00  0.00000000000E+00  0.39999999673E+01  0.40000000000E+01  0.51109989000E-03 0. -1.
     -623   -1    0    0    0    0  0.00000000000E+00  0.00000000000E+00  0.12525980253E-10  0.17130000000E+03  0.17130000000E+03 0.  1.
       11    1    1    2    0    0  0.37142153840E-02 -0.16872808378E-01  0.24193626374E+01  0.24194243777E+01  0.51109989000E-03 0. -1.
     -623    1    1    2    0    0  0.20227999158E-02 -0.45266673636E-02  0.72334015668E-03  0.17130000007E+03  0.17130000000E+03 0.  1.
      622    1    1    2    0    0 -0.57370152998E-02  0.21399475741E-01  0.15799139898E+01  0.15805755490E+01  0.40000000000E-01 0.  0.
</event>
<event>
 5   0  0.7212170E+07  0.9118800E+02  0.7818608E-02  0.1180000E+00
       11   -1    0    0    0    0  0.00000000000E+00  0.00000000000E+00  0.39999999673E+01  0.40000000000E+01  0.51109989000E-03 0. -1.
     -623   -1    0    0    0    0  0.00000000000E+00  0.00000000000E+00  0.12525980253E-10  0.17130000000E+03  0.17130000000E+03 0.  1.
       11    1    1    2    0    0 -0.25161867986E-01 -0.81807318427E-02  0.10859447781E+00  0.11177238392E+00  0.51109989000E-03 0. -1.
     -623    1    1    2    0    0  0.15672156188E-01  0.12398530105E-01  0.33986964209E-02  0.17130000120E+03  0.17130000000E+03 0.  1.
      622    1    1    2    0    0  0.94897117974E-02 -0.42177982627E-02  0.38880067932E+01  0.38882264168E+01  0.40000000000E-01 0. -1.
</event>
<event>
 5   0  0.7212170E+07  0.9118800E+02  0.7818608E-02  0.1180000E+00
       11   -1    0    0    0    0  0.00000000000E+00  0.00000000000E+00  0.39999999673E+01  0.40000000000E+01  0.51109989000E-03 0.  1.
     -623   -1    0    0    0    0  0.00000000000E+00  0.00000000000E+00  0.12525980253E-10  0.17130000000E+03  0.17130000000E+03 0.  1.
       11    1    1    2    0    0  0.22564341348E-02  0.44057263499E-02  0.36267291585E-01  0.36607097422E-01  0.51109989000E-03 0.  1.
     -623    1    1    2    0    0 -0.54477295652E-02 -0.35344913499E-02  0.54313018662E-03  0.17130000012E+03  0.17130000000E+03 0.  1.
      622    1    1    2    0    0  0.31912954314E-02 -0.87123499922E-03  0.39631895464E+01  0.39633927794E+01  0.40000000000E-01 0.  1.
</event>
<event>
 5   0  0.7212170E+07  0.9118800E+02  0.7818608E-02  0.1180000E+00
       11   -1    0    0    0    0  0.00000000000E+00  0.00000000000E+00  0.39999999673E+01  0.40000000000E+01  0.51109989000E-03 0.  1.
     -623   -1    0    0    0    0  0.00000000000E+00  0.00000000000E+00  0.12525980253E-10  0.17130000000E+03  0.17130000000E+03 0.  1.
       11    1    1    2    0    0  0.31390417584E-01  0.25855715275E-01  0.13583904130E+01  0.13589991360E+01  0.51109989000E-03 0.  1.
     -623    1    1    2    0    0  0.14442074816E-02  0.50319260231E-02  0.12965130423E-02  0.17130000008E+03  0.17130000000E+03 0.  1.
      622    1    1    2    0    0 -0.32834625066E-01 -0.30887641298E-01  0.26403130416E+01  0.26410007793E+01  0.40000000000E-01 0.  0.
</event>
<event>
 5   0  0.7212170E+07  0.9118800E+02  0.7818608E-02  0.1180000E+00
       11   -1    0    0    0    0  0.00000000000E+00  0.00000000000E+00  0.39999999673E+01  0.40000000000E+01  0.51109989000E-03 0.  1.
     -623   -1    0    0    0    0  0.00000000000E+00  0.00000000000E+00  0.12525980253E-10  0.17130000000E+03  0.17130000000E+03 0. -1.
       11    1    1    2    0    0  0.10083175957E-03 -0.96432868727E-03  0.16625430407E+00  0.16625791693E+00  0.51109989000E-03 0.  1.
     -623    1    1    2    0    0 -0.66053406177E-03  0.19549438782E-03  0.21237877231E-03  0.17130000000E+03  0.17130000000E+03 0. -1.
      622    1    1    2    0    0  0.55970230244E-03  0.76883429938E-03  0.38335332859E+01  0.38337420830E+01  0.40000000000E-01 0.  1.
</event>
<event>
 5   0  0.7212170E+07  0.9118800E+02  0.7818608E-02  0.1180000E+00
       11   -1    0    0    0    0  0.00000000000E+00  0.00000000000E+00  0.39999999673E+01  0.40000000000E+01  0.51109989000E-03 0.  1.
     -623   -1    0    0    0    0  0.00000000000E+00  0.00000000000E+00  0.12525980253E-10  0.17130000000E+03  0.17130000000E+03 0.  1.
       11    1    1    2    0    0  0.15965516215E-03 -0.45040603750E-03  0.51234392931E-01  0.51239170539E-01  0.51109989000E-03 0.  1.
     -623    1    1    2    0    0  0.49081583096E-04  0.84452795852E-03  0.20737276867E-03  0.17130000000E+03  0.17130000000E+03 0.  1.
      622    1    1    2    0    0 -0.20873674524E-03 -0.39412192098E-03  0.39485582015E+01  0.39487608271E+01  0.40000000000E-01 0.  1.
</event>
<event>
 5   0  0.7212170E+07  0.9118800E+02  0.7818608E-02  0.1180000E+00
       11   -1    0    0    0    0  0.00000000000E+00  0.00000000000E+00  0.39999999673E+01  0.40000000000E+01  0.51109989000E-03 0.  1.
     -623   -1    0    0    0    0  0.00000000000E+00  0.00000000000E+00  0.12525980253E-10  0.17130000000E+03  0.17130000000E+03 0. -1.
       11    1    1    2    0    0  0.21514748364E-01 -0.33785035656E-01  0.90060958578E+00  0.90149997241E+00  0.51109989000E-03 0.  1.
     -623    1    1    2    0    0 -0.11411270793E-01  0.52161827436E-01  0.12278557581E-02  0.17130000833E+03  0.17130000000E+03 0. -1.
      622    1    1    2    0    0 -0.10103477570E-01 -0.18376791786E-01  0.30981625263E+01  0.30984917018E+01  0.40000000000E-01 0.  1.
</event>
<event>
 5   0  0.7212170E+07  0.9118800E+02  0.7818608E-02  0.1180000E+00
       11   -1    0    0    0    0  0.00000000000E+00  0.00000000000E+00  0.39999999673E+01  0.40000000000E+01  0.51109989000E-03 0. -1.
     -623   -1    0    0    0    0  0.00000000000E+00  0.00000000000E+00  0.12525980253E-10  0.17130000000E+03  0.17130000000E+03 0.  1.
       11    1    1    2    0    0 -0.24021245005E-03  0.41047183042E-02  0.11263169612E+00  0.11270788175E+00  0.51109989000E-03 0. -1.
     -623    1    1    2    0    0  0.55122321697E-02  0.34773597822E-02  0.29305140569E-03  0.17130000012E+03  0.17130000000E+03 0.  1.
      622    1    1    2    0    0 -0.52720197216E-02 -0.75820780876E-02  0.38870752212E+01  0.38872919954E+01  0.40000000000E-01 0. -1.
</event>
<event>
 5   0  0.7212170E+07  0.9118800E+02  0.7818608E-02  0.1180000E+00
       11   -1    0    0    0    0  0.00000000000E+00  0.00000000000E+00  0.39999999673E+01  0.40000000000E+01  0.51109989000E-03 0.  1.
     -623   -1    0    0    0    0  0.00000000000E+00  0.00000000000E+00  0.12525980253E-10  0.17130000000E+03  0.17130000000E+03 0. -1.
       11    1    1    2    0    0  0.22809181675E-03  0.69895238167E-03  0.33354860564E-01  0.33366877388E-01  0.51109989000E-03 0.  1.
     -623    1    1    2    0    0 -0.48740778087E-03  0.40483931117E-03  0.21383505487E-03  0.17130000000E+03  0.17130000000E+03 0. -1.
      622    1    1    2    0    0  0.25931596430E-03 -0.11037916930E-02  0.39664312733E+01  0.39666331229E+01  0.40000000000E-01 0.  1.
</event>
<event>
 5   0  0.7212170E+07  0.9118800E+02  0.7818608E-02  0.1180000E+00
       11   -1    0    0    0    0  0.00000000000E+00  0.00000000000E+00  0.39999999673E+01  0.40000000000E+01  0.51109989000E-03 0. -1.
     -623   -1    0    0    0    0  0.00000000000E+00  0.00000000000E+00  0.12525980253E-10  0.17130000000E+03  0.17130000000E+03 0. -1.
       11    1    1    2    0    0 -0.17545866021E-01 -0.36365807724E-01  0.10166128645E+01  0.10174145206E+01  0.51109989000E-03 0. -1.
     -623    1    1    2    0    0  0.26251579149E-01 -0.46685695947E-02  0.13669619369E-02  0.17130000208E+03  0.17130000000E+03 0. -1.
      622    1    1    2    0    0 -0.87057131280E-02  0.41034377319E-01  0.29820201410E+01  0.29825833988E+01  0.40000000000E-01 0. -1.
</event>
<event>
 5   0  0.7212170E+07  0.9118800E+02  0.7818608E-02  0.1180000E+00
       11   -1    0    0    0    0  0.00000000000E+00  0.00000000000E+00  0.39999999673E+01  0.40000000000E+01  0.51109989000E-03 0. -1.
     -623   -1    0    0    0    0  0.00000000000E+00  0.00000000000E+00  0.12525980253E-10  0.17130000000E+03  0.17130000000E+03 0.  1.
       11    1    1    2    0    0  0.43102663906E-02  0.39614952967E-02  0.12524436976E+00  0.12538215671E+00  0.51109989000E-03 0. -1.
     -623    1    1    2    0    0 -0.67853527175E-03  0.28556330869E-02  0.35195688629E-03  0.17130000003E+03  0.17130000000E+03 0.  1.
      622    1    1    2    0    0 -0.36317311186E-02 -0.68171283846E-02  0.38744036421E+01  0.38746178192E+01  0.40000000000E-01 0. -1.
</event>
<event>
 5   0  0.7212170E+07  0.9118800E+02  0.7818608E-02  0.1180000E+00
       11   -1    0    0    0    0  0.00000000000E+00  0.00000000000E+00  0.39999999673E+01  0.40000000000E+01  0.51109989000E-03 0.  1.
     -623   -1    0    0    0    0  0.00000000000E+00  0.00000000000E+00  0.12525980253E-10  0.17130000000E+03  0.17130000000E+03 0.  1.
       11    1    1    2    0    0 -0.16248638703E-02 -0.30619022135E-03  0.18575528354E-01  0.18655975230E-01  0.51109989000E-03 0.  1.
     -623    1    1    2    0    0 -0.11135958654E-02 -0.28323449185E-02  0.28356271591E-03  0.17130000003E+03  0.17130000000E+03 0.  1.
      622    1    1    2    0    0  0.27384597358E-02  0.31385351401E-02  0.39811408767E+01  0.39813439979E+01  0.40000000000E-01 0.  1.
</event>
<event>
 5   0  0.7212170E+07  0.9118800E+02  0.7818608E-02  0.1180000E+00
       11   -1    0    0    0    0  0.00000000000E+00  0.00000000000E+00  0.39999999673E+01  0.40000000000E+01  0.51109989000E-03 0.  1.
     -623   -1    0    0    0    0  0.00000000000E+00  0.00000000000E+00  0.12525980253E-10  0.17130000000E+03  0.17130000000E+03 0.  1.
       11    1    1    2    0    0  0.16008660570E-01 -0.19911441885E-02  0.54930239825E+00  0.54953946885E+00  0.51109989000E-03 0.  1.
     -623    1    1    2    0    0 -0.57532095608E-02  0.39185331601E-02  0.48482099708E-03  0.17130000014E+03  0.17130000000E+03 0.  1.
      622    1    1    2    0    0 -0.10255451007E-01 -0.19273889729E-02  0.34502127495E+01  0.34504603904E+01  0.40000000000E-01 0.  1.
</event>
<event>
 5   0  0.7212170E+07  0.9118800E+02  0.7818608E-02  0.1180000E+00
       11   -1    0    0    0    0  0.00000000000E+00  0.00000000000E+00  0.39999999673E+01  0.40000000000E+01  0.51109989000E-03 0. -1.
     -623   -1    0    0    0    0  0.00000000000E+00  0.00000000000E+00  0.12525980253E-10  0.17130000000E+03  0.17130000000E+03 0. -1.
       11    1    1    2    0    0  0.12473181545E-02 -0.94962395331E-03  0.10216507125E-01  0.10348711474E-01  0.51109989000E-03 0. -1.
     -623    1    1    2    0    0  0.18334457238E-03  0.16998469679E-02  0.33303144820E-03  0.17130000001E+03  0.17130000000E+03 0. -1.
      622    1    1    2    0    0 -0.14306627269E-02 -0.75022301445E-03  0.39894504284E+01  0.39896512793E+01  0.40000000000E-01 0. -1.
</event>
<event>
 5   0  0.7212170E+07  0.9118800E+02  0.7818608E-02  0.1180000E+00
       11   -1    0    0    0    0  0.00000000000E+00  0.00000000000E+00  0.39999999673E+01  0.40000000000E+01  0.51109989000E-03 0.  1.
     -623   -1    0    0    0    0  0.00000000000E+00  0.00000000000E+00  0.12525980253E-10  0.17130000000E+03  0.17130000000E+03 0.  1.
       11    1    1    2    0    0 -0.12133850088E-02 -0.53339207927E-03  0.18915685622E-01  0.18968953475E-01  0.51109989000E-03 0.  1.
     -623    1    1    2    0    0  0.14011768321E-02  0.24485305833E-02  0.25468177884E-03  0.17130000002E+03  0.17130000000E+03 0.  1.
      622    1    1    2    0    0 -0.18779182402E-03 -0.19151385052E-02  0.39808296019E+01  0.39810310251E+01  0.40000000000E-01 0.  1.
</event>
<event>
 5   0  0.7212170E+07  0.9118800E+02  0.7818608E-02  0.1180000E+00
       11   -1    0    0    0    0  0.00000000000E+00  0.00000000000E+00  0.39999999673E+01  0.40000000000E+01  0.51109989000E-03 0. -1.
     -623   -1    0    0    0    0  0.00000000000E+00  0.00000000000E+00  0.12525980253E-10  0.17130000000E+03  0.17130000000E+03 0.  1.
       11    1    1    2    0    0  0.52160412557E-02  0.85538023412E-02  0.29200796907E+00  0.29218023520E+00  0.51109989000E-03 0. -1.
     -623    1    1    2    0    0 -0.51960721640E-02 -0.26535369731E-03  0.39734405882E-03  0.17130000008E+03  0.17130000000E+03 0.  1.
      622    1    1    2    0    0 -0.19969091429E-04 -0.82884486438E-02  0.37075946544E+01  0.37078196855E+01  0.40000000000E-01 0. -1.
</event>
<event>
 5   0  0.7212170E+07  0.9118800E+02  0.7818608E-02  0.1180000E+00
       11   -1    0    0    0    0  0.00000000000E+00  0.00000000000E+00  0.39999999673E+01  0.40000000000E+01  0.51109989000E-03 0.  1.
     -623   -1    0    0    0    0  0.00000000000E+00  0.00000000000E+00  0.12525980253E-10  0.17130000000E+03  0.17130000000E+03 0. -1.
       11    1    1    2    0    0  0.22355895023E-01  0.11784222995E-01  0.18347660523E+00  0.18520955657E+00  0.51109989000E-03 0.  1.
     -623    1    1    2    0    0  0.18533662088E-02 -0.22456147315E-01  0.20358801595E-02  0.17130000149E+03  0.17130000000E+03 0. -1.
      622    1    1    2    0    0 -0.24209261231E-01  0.10671924320E-01  0.38144874819E+01  0.38147889493E+01  0.40000000000E-01 0.  1.
</event>
<event>
 5   0  0.7212170E+07  0.9118800E+02  0.7818608E-02  0.1180000E+00
       11   -1    0    0    0    0  0.00000000000E+00  0.00000000000E+00  0.39999999673E+01  0.40000000000E+01  0.51109989000E-03 0. -1.
     -623   -1    0    0    0    0  0.00000000000E+00  0.00000000000E+00  0.12525980253E-10  0.17130000000E+03  0.17130000000E+03 0. -1.
       11    1    1    2    0    0 -0.38294929640E-02  0.20495470881E-02  0.14868050411E+00  0.14874481230E+00  0.51109989000E-03 0. -1.
     -623    1    1    2    0    0  0.50531483723E-03 -0.64482142936E-03  0.27369870436E-03  0.17130000000E+03  0.17130000000E+03 0. -1.
      622    1    1    2    0    0  0.33241781270E-02 -0.14047256590E-02  0.38510457630E+01  0.38512551840E+01  0.40000000000E-01 0. -1.
</event>
<event>
 5   0  0.7212170E+07  0.9118800E+02  0.7818608E-02  0.1180000E+00
       11   -1    0    0    0    0  0.00000000000E+00  0.00000000000E+00  0.39999999673E+01  0.40000000000E+01  0.51109989000E-03 0. -1.
     -623   -1    0    0    0    0  0.00000000000E+00  0.00000000000E+00  0.12525980253E-10  0.17130000000E+03  0.17130000000E+03 0. -1.
       11    1    1    2    0    0  0.64118337753E-02 -0.78771702151E-03  0.83328389795E+00  0.83330909506E+00  0.51109989000E-03 0. -1.
     -623    1    1    2    0    0  0.10221715772E-03 -0.58759462684E-03  0.28480456493E-03  0.17130000000E+03  0.17130000000E+03 0. -1.
      622    1    1    2    0    0 -0.65140509330E-02  0.13753116483E-02  0.31664312648E+01  0.31666909036E+01  0.40000000000E-01 0. -1.
</event>
<event>
 5   0  0.7212170E+07  0.9118800E+02  0.7818608E-02  0.1180000E+00
       11   -1    0    0    0    0  0.00000000000E+00  0.00000000000E+00  0.39999999673E+01  0.40000000000E+01  0.51109989000E-03 0. -1.
     -623   -1    0    0    0    0  0.00000000000E+00  0.00000000000E+00  0.12525980253E-10  0.17130000000E+03  0.17130000000E+03 0. -1.
       11    1    1    2    0    0 -0.97477094059E-03  0.17291717302E-02  0.12862333050E-01  0.13024632350E-01  0.51109989000E-03 0. -1.
     -623    1    1    2    0    0 -0.31677850370E-03 -0.24998235653E-02  0.36322767573E-03  0.17130000002E+03  0.17130000000E+03 0. -1.
      622    1    1    2    0    0  0.12915494443E-02  0.77065183548E-03  0.39867744073E+01  0.39869753493E+01  0.40000000000E-01 0. -1.
</event>
<event>
 5   0  0.7212170E+07  0.9118800E+02  0.7818608E-02  0.1180000E+00
       11   -1    0    0    0    0  0.00000000000E+00  0.00000000000E+00  0.39999999673E+01  0.40000000000E+01  0.51109989000E-03 0. -1.
     -623   -1    0    0    0    0  0.00000000000E+00  0.00000000000E+00  0.12525980253E-10  0.17130000000E+03  0.17130000000E+03 0.  1.
       11    1    1    2    0    0 -0.18724225926E-01 -0.35077442309E-01  0.59061537813E+00  0.59195254008E+00  0.51109989000E-03 0. -1.
     -623    1    1    2    0    0 -0.17332546960E-03  0.27734885969E-02  0.17774214753E-02  0.17130000003E+03  0.17130000000E+03 0.  1.
      622    1    1    2    0    0  0.18897551396E-01  0.32303953712E-01  0.34076071679E+01  0.34080474283E+01  0.40000000000E-01 0. -1.
</event>
<event>
 5   0  0.7212170E+07  0.9118800E+02  0.7818608E-02  0.1180000E+00
       11   -1    0    0    0    0  0.00000000000E+00  0.00000000000E+00  0.39999999673E+01  0.40000000000E+01  0.51109989000E-03 0. -1.
     -623   -1    0    0    0    0  0.00000000000E+00  0.00000000000E+00  0.12525980253E-10  0.17130000000E+03  0.17130000000E+03 0. -1.
       11    1    1    2    0    0  0.47315211150E-01 -0.21862341395E-01  0.98958641351E+00  0.99095823434E+00  0.51109989000E-03 0. -1.
     -623    1    1    2    0    0  0.43577041159E-02 -0.24252987823E-03  0.21626974178E-02  0.17130000007E+03  0.17130000000E+03 0. -1.
      622    1    1    2    0    0 -0.51672915265E-01  0.22104871273E-01  0.30082508565E+01  0.30090416965E+01  0.40000000000E-01 0. -1.
</event>
<event>
 5   0  0.7212170E+07  0.9118800E+02  0.7818608E-02  0.1180000E+00
       11   -1    0    0    0    0  0.00000000000E+00  0.00000000000E+00  0.39999999673E+01  0.40000000000E+01  0.51109989000E-03 0. -1.
     -623   -1    0    0    0    0  0.00000000000E+00  0.00000000000E+00  0.12525980253E-10  0.17130000000E+03  0.17130000000E+03 0.  1.
       11    1    1    2    0    0 -0.59012269736E-03 -0.39580002037E-03  0.26427118035E-02  0.27838913822E-02  0.51109989000E-03 0. -1.
     -623    1    1    2    0    0  0.94290469266E-04  0.36283279703E-03  0.34132288121E-03  0.17130000000E+03  0.17130000000E+03 0.  1.
      622    1    1    2    0    0  0.49583222810E-03  0.32967223338E-04  0.39970159327E+01  0.39972161079E+01  0.40000000000E-01 0. -1.
</event>
<event>
 5   0  0.7212170E+07  0.9118800E+02  0.7818608E-02  0.1180000E+00
       11   -1    0    0    0    0  0.00000000000E+00  0.00000000000E+00  0.39999999673E+01  0.40000000000E+01  0.51109989000E-03 0. -1.
     -623   -1    0    0    0    0  0.00000000000E+00  0.00000000000E+00  0.12525980253E-10  0.17130000000E+03  0.17130000000E+03 0. -1.
       11    1    1    2    0    0 -0.22683803944E-01 -0.18981508422E-01  0.78073463943E+00  0.78129488098E+00  0.51109989000E-03 0. -1.
     -623    1    1    2    0    0  0.15335624304E-01  0.51081926304E-01  0.98554770626E-03  0.17130000831E+03  0.17130000000E+03 0. -1.
      622    1    1    2    0    0  0.73481796392E-02 -0.32100417884E-01  0.32182797804E+01  0.32186968135E+01  0.40000000000E-01 0.  1.
</event>
<event>
 5   0  0.7212170E+07  0.9118800E+02  0.7818608E-02  0.1180000E+00
       11   -1    0    0    0    0  0.00000000000E+00  0.00000000000E+00  0.39999999673E+01  0.40000000000E+01  0.51109989000E-03 0. -1.
     -623   -1    0    0    0    0  0.00000000000E+00  0.00000000000E+00  0.12525980253E-10  0.17130000000E+03  0.17130000000E+03 0. -1.
       11    1    1    2    0    0  0.37738298667E-02  0.23451237279E-01  0.31803765660E+00  0.31892383818E+00  0.51109989000E-03 0. -1.
     -623    1    1    2    0    0 -0.11785067027E-01 -0.31644948986E-02  0.11685447135E-02  0.17130000044E+03  0.17130000000E+03 0. -1.
      622    1    1    2    0    0  0.80112371604E-02 -0.20286742381E-01  0.36807937660E+01  0.36810757231E+01  0.40000000000E-01 0. -1.
</event>
<event>
 5   0  0.7212170E+07  0.9118800E+02  0.7818608E-02  0.1180000E+00
       11   -1    0    0    0    0  0.00000000000E+00  0.00000000000E+00  0.39999999673E+01  0.40000000000E+01  0.51109989000E-03 0. -1.
     -623   -1    0    0    0    0  0.00000000000E+00  0.00000000000E+00  0.12525980253E-10  0.17130000000E+03  0.17130000000E+03 0.  1.
       11    1    1    2    0    0  0.14094227285E-01 -0.67659123296E-02  0.10851452450E+00  0.10963616221E+00  0.51109989000E-03 0. -1.
     -623    1    1    2    0    0 -0.88042933649E-03  0.26701121633E-02  0.13518732554E-02  0.17130000003E+03  0.17130000000E+03 0.  1.
      622    1    1    2    0    0 -0.13213797949E-01  0.40958001663E-02  0.38901335696E+01  0.38903638094E+01  0.40000000000E-01 0.  0.
</event>
<event>
 5   0  0.7212170E+07  0.9118800E+02  0.7818608E-02  0.1180000E+00
       11   -1    0    0    0    0  0.00000000000E+00  0.00000000000E+00  0.39999999673E+01  0.40000000000E+01  0.51109989000E-03 0.  1.
     -623   -1    0    0    0    0  0.00000000000E+00  0.00000000000E+00  0.12525980253E-10  0.17130000000E+03  0.17130000000E+03 0. -1.
       11    1    1    2    0    0  0.87330079023E-02  0.62986313911E-02  0.67466547298E-01  0.68322283421E-01  0.51109989000E-03 0.  1.
     -623    1    1    2    0    0  0.51146737223E-03 -0.39239334489E-02  0.10708192207E-02  0.17130000005E+03  0.17130000000E+03 0. -1.
      622    1    1    2    0    0 -0.92444752746E-02 -0.23746979419E-02  0.39314626012E+01  0.39316776678E+01  0.40000000000E-01 0.  1.
</event>
<event>
 5   0  0.7212170E+07  0.9118800E+02  0.7818608E-02  0.1180000E+00
       11   -1    0    0    0    0  0.00000000000E+00  0.00000000000E+00  0.39999999673E+01  0.40000000000E+01  0.51109989000E-03 0.  1.
     -623   -1    0    0    0    0  0.00000000000E+00  0.00000000000E+00  0.12525980253E-10  0.17130000000E+03  0.17130000000E+03 0. -1.
       11    1    1    2    0    0  0.52684405918E-03 -0.18523622169E-03  0.53140310837E-02  0.53676835392E-02  0.51109989000E-03 0.  1.
     -623    1    1    2    0    0  0.47421333033E-03  0.13911791924E-03  0.25402018695E-03  0.17130000000E+03  0.17130000000E+03 0. -1.
      622    1    1    2    0    0 -0.10010573898E-02  0.46118302374E-04  0.39944319182E+01  0.39946323177E+01  0.40000000000E-01 0.  1.
</event>
<event>
 5   0  0.7212170E+07  0.9118800E+02  0.7818608E-02  0.1180000E+00
       11   -1    0    0    0    0  0.00000000000E+00  0.00000000000E+00  0.39999999673E+01  0.40000000000E+01  0.51109989000E-03 0.  1.
     -623   -1    0    0    0    0  0.00000000000E+00  0.00000000000E+00  0.12525980253E-10  0.17130000000E+03  0.17130000000E+03 0. -1.
       11    1    1    2    0    0  0.12053776911E-02  0.78108193760E-03  0.93817309462E-02  0.95047947383E-02  0.51109989000E-03 0.  1.
     -623    1    1    2    0    0 -0.22921865544E-02 -0.12170844189E-02  0.32370434967E-03  0.17130000002E+03  0.17130000000E+03 0. -1.
      622    1    1    2    0    0  0.10868088629E-02  0.43600248109E-03  0.39902945315E+01  0.39904951847E+01  0.40000000000E-01 0.  1.
</event>
<event>
 5   0  0.7212170E+07  0.9118800E+02  0.7818608E-02  0.1180000E+00
       11   -1    0    0    0    0  0.00000000000E+00  0.00000000000E+00  0.39999999673E+01  0.40000000000E+01  0.51109989000E-03 0.  1.
     -623   -1    0    0    0    0  0.00000000000E+00  0.00000000000E+00  0.12525980253E-10  0.17130000000E+03  0.17130000000E+03 0.  1.
       11    1    1    2    0    0 -0.19956668364E-01 -0.20897908361E-01  0.79186129173E+00  0.79238851439E+00  0.51109989000E-03 0.  1.
     -623    1    1    2    0    0  0.19912732961E-02 -0.69860190794E-02  0.94829013961E-03  0.17130000016E+03  0.17130000000E+03 0.  1.
      622    1    1    2    0    0  0.17965395068E-01  0.27883927440E-01  0.32071903851E+01  0.32076113285E+01  0.40000000000E-01 0.  1.
</event>
<event>
 5   0  0.7212170E+07  0.9118800E+02  0.7818608E-02  0.1180000E+00
       11   -1    0    0    0    0  0.00000000000E+00  0.00000000000E+00  0.39999999673E+01  0.40000000000E+01  0.51109989000E-03 0.  1.
     -623   -1    0    0    0    0  0.00000000000E+00  0.00000000000E+00  0.12525980253E-10  0.17130000000E+03  0.17130000000E+03 0.  1.
       11    1    1    2    0    0 -0.29908476971E-03 -0.35893670911E-02  0.28217392286E-01  0.28450930712E-01  0.51109989000E-03 0.  1.
     -623    1    1    2    0    0  0.33747956845E-02  0.27315454555E-02  0.43628288848E-03  0.17130000006E+03  0.17130000000E+03 0.  1.
      622    1    1    2    0    0 -0.30757109154E-02  0.85782163514E-03  0.39713462929E+01  0.39715490144E+01  0.40000000000E-01 0.  1.
</event>
<event>
 5   0  0.7212170E+07  0.9118800E+02  0.7818608E-02  0.1180000E+00
       11   -1    0    0    0    0  0.00000000000E+00  0.00000000000E+00  0.39999999673E+01  0.40000000000E+01  0.51109989000E-03 0.  1.
     -623   -1    0    0    0    0  0.00000000000E+00  0.00000000000E+00  0.12525980253E-10  0.17130000000E+03  0.17130000000E+03 0.  1.
       11    1    1    2    0    0  0.90715782016E-03  0.36937013978E-03  0.93580209407E-03  0.14478667990E-02  0.51109989000E-03 0. -1.
     -623    1    1    2    0    0  0.26984473775E-03  0.17338163236E-04  0.71230312338E-03  0.17130000000E+03  0.17130000000E+03 0.  1.
      622    1    1    2    0    0 -0.11770025579E-02 -0.38670830301E-03  0.39983518622E+01  0.39985521315E+01  0.40000000000E-01 0.  1.
</event>
<event>
 5   0  0.7212170E+07  0.9118800E+02  0.7818608E-02  0.1180000E+00
       11   -1    0    0    0    0  0.00000000000E+00  0.00000000000E+00  0.39999999673E+01  0.40000000000E+01  0.51109989000E-03 0.  1.
     -623   -1    0    0    0    0  0.00000000000E+00  0.00000000000E+00  0.12525980253E-10  0.17130000000E+03  0.17130000000E+03 0. -1.
       11    1    1    2    0    0 -0.15575216201E-01 -0.11990631719E-01  0.21130410579E+01  0.21131325411E+01  0.51109989000E-03 0.  1.
     -623    1    1    2    0    0  0.15603406837E-02  0.11969516042E-01  0.56796857794E-03  0.17130000043E+03  0.17130000000E+03 0. -1.
      622    1    1    2    0    0  0.14014875517E-01  0.21115675051E-04  0.18863909415E+01  0.18868670333E+01  0.40000000000E-01 0.  1.
</event>
<event>
 5   0  0.7212170E+07  0.9118800E+02  0.7818608E-02  0.1180000E+00
       11   -1    0    0    0    0  0.00000000000E+00  0.00000000000E+00  0.39999999673E+01  0.40000000000E+01  0.51109989000E-03 0. -1.
     -623   -1    0    0    0    0  0.00000000000E+00  0.00000000000E+00  0.12525980253E-10  0.17130000000E+03  0.17130000000E+03 0.  1.
       11    1    1    2    0    0  0.47162821715E-03 -0.74015781767E-04  0.23313013896E-02  0.24339475709E-02  0.51109989000E-03 0. -1.
     -623    1    1    2    0    0 -0.46525988930E-03  0.18019167769E-03  0.30274273122E-03  0.17130000000E+03  0.17130000000E+03 0.  1.
      622    1    1    2    0    0 -0.63683276941E-05 -0.10617589599E-03  0.39973659246E+01  0.39975660527E+01  0.40000000000E-01 0. -1.
</event>
<event>
 5   0  0.7212170E+07  0.9118800E+02  0.7818608E-02  0.1180000E+00
       11   -1    0    0    0    0  0.00000000000E+00  0.00000000000E+00  0.39999999673E+01  0.40000000000E+01  0.51109989000E-03 0.  1.
     -623   -1    0    0    0    0  0.00000000000E+00  0.00000000000E+00  0.12525980253E-10  0.17130000000E+03  0.17130000000E+03 0.  1.
       11    1    1    2    0    0 -0.10698422120E-01  0.10309778206E-01  0.51569802248E+00  0.51591225937E+00  0.51109989000E-03 0.  1.
     -623    1    1    2    0    0  0.23371625871E-03  0.17600995093E-03  0.47532516969E-03  0.17130000000E+03  0.17130000000E+03 0.  1.
      622    1    1    2    0    0  0.10464705861E-01 -0.10485788157E-01  0.34838266195E+01  0.34840877395E+01  0.40000000000E-01 0.  1.
</event>
<event>
 5   0  0.7212170E+07  0.9118800E+02  0.7818608E-02  0.1180000E+00
       11   -1    0    0    0    0  0.00000000000E+00  0.00000000000E+00  0.39999999673E+01  0.40000000000E+01  0.51109989000E-03 0.  1.
     -623   -1    0    0    0    0  0.00000000000E+00  0.00000000000E+00  0.12525980253E-10  0.17130000000E+03  0.17130000000E+03 0. -1.
       11    1    1    2    0    0  0.45726726812E-03 -0.12125189462E-02  0.10571668669E-01  0.10663052898E-01  0.51109989000E-03 0.  1.
     -623    1    1    2    0    0  0.33286717114E-03  0.14875899300E-03  0.29211192862E-03  0.17130000000E+03  0.17130000000E+03 0. -1.
      622    1    1    2    0    0 -0.79013443920E-03  0.10637599532E-02  0.39891361862E+01  0.39893369459E+01  0.40000000000E-01 0.  1.
</event>
<event>
 5   0  0.7212170E+07  0.9118800E+02  0.7818608E-02  0.1180000E+00
       11   -1    0    0    0    0  0.00000000000E+00  0.00000000000E+00  0.39999999673E+01  0.40000000000E+01  0.51109989000E-03 0.  1.
     -623   -1    0    0    0    0  0.00000000000E+00  0.00000000000E+00  0.12525980253E-10  0.17130000000E+03  0.17130000000E+03 0.  1.
       11    1    1    2    0    0 -0.27656256226E-02 -0.23361790987E-02  0.39599807974E-01  0.39768233963E-01  0.51109989000E-03 0.  1.
     -623    1    1    2    0    0  0.13813476734E-03  0.95727716305E-03  0.37152175813E-03  0.17130000000E+03  0.17130000000E+03 0.  1.
      622    1    1    2    0    0  0.26274908553E-02  0.13789019356E-02  0.39600286379E+01  0.39602317631E+01  0.40000000000E-01 0.  1.
</event>
<event>
 5   0  0.7212170E+07  0.9118800E+02  0.7818608E-02  0.1180000E+00
       11   -1    0    0    0    0  0.00000000000E+00  0.00000000000E+00  0.39999999673E+01  0.40000000000E+01  0.51109989000E-03 0. -1.
     -623   -1    0    0    0    0  0.00000000000E+00  0.00000000000E+00  0.12525980253E-10  0.17130000000E+03  0.17130000000E+03 0. -1.
       11    1    1    2    0    0  0.16455614430E-02  0.46745343325E-02  0.12287110732E+00  0.12297206748E+00  0.51109989000E-03 0. -1.
     -623    1    1    2    0    0 -0.47431151145E-03  0.45219308646E-03  0.31084490716E-03  0.17130000000E+03  0.17130000000E+03 0. -1.
      622    1    1    2    0    0 -0.11712499314E-02 -0.51267274191E-02  0.38768180160E+01  0.38770279319E+01  0.40000000000E-01 0. -1.
</event>
<event>
 5   0  0.7212170E+07  0.9118800E+02  0.7818608E-02  0.1180000E+00
       11   -1    0    0    0    0  0.00000000000E+00  0.00000000000E+00  0.39999999673E+01  0.40000000000E+01  0.51109989000E-03 0. -1.
     -623   -1    0    0    0    0  0.00000000000E+00  0.00000000000E+00  0.12525980253E-10  0.17130000000E+03  0.17130000000E+03 0.  1.
       11    1    1    2    0    0 -0.38627906862E-02 -0.13591476030E-02  0.27822635888E+00  0.27825696116E+00  0.51109989000E-03 0. -1.
     -623    1    1    2    0    0 -0.89229624335E-05 -0.64170941376E-03  0.24808212800E-03  0.17130000000E+03  0.17130000000E+03 0.  1.
      622    1    1    2    0    0  0.38717136487E-02  0.20008570167E-02  0.37215255262E+01  0.37217430373E+01  0.40000000000E-01 0. -1.
</event>
<event>
 5   0  0.7212170E+07  0.9118800E+02  0.7818608E-02  0.1180000E+00
       11   -1    0    0    0    0  0.00000000000E+00  0.00000000000E+00  0.39999999673E+01  0.40000000000E+01  0.51109989000E-03 0.  1.
     -623   -1    0    0    0    0  0.00000000000E+00  0.00000000000E+00  0.12525980253E-10  0.17130000000E+03  0.17130000000E+03 0.  1.
       11    1    1    2    0    0  0.85363616760E-02 -0.12910966252E-01  0.16667430994E+01  0.16668150417E+01  0.51109989000E-03 0.  1.
     -623    1    1    2    0    0  0.27071766396E-02 -0.63073110700E-02  0.52121104060E-03  0.17130000014E+03  0.17130000000E+03 0.  1.
      622    1    1    2    0    0 -0.11243538316E-01  0.19218277323E-01  0.23327356573E+01  0.23331848204E+01  0.40000000000E-01 0.  0.
</event>
<event>
 5   0  0.7212170E+07  0.9118800E+02  0.7818608E-02  0.1180000E+00
       11   -1    0    0    0    0  0.00000000000E+00  0.00000000000E+00  0.39999999673E+01  0.40000000000E+01  0.51109989000E-03 0.  1.
     -623   -1    0    0    0    0  0.00000000000E+00  0.00000000000E+00  0.12525980253E-10  0.17130000000E+03  0.17130000000E+03 0. -1.
       11    1    1    2    0    0 -0.22747002210E-02  0.51296244110E-03  0.74189365248E-01  0.74227761185E-01  0.51109989000E-03 0.  1.
     -623    1    1    2    0    0  0.35764406010E-02  0.30415531534E-02  0.24403976339E-03  0.17130000006E+03  0.17130000000E+03 0. -1.
      622    1    1    2    0    0 -0.13017403808E-02 -0.35545155952E-02  0.39255665632E+01  0.39257721752E+01  0.40000000000E-01 0.  1.
</event>
<event>
 5   0  0.7212170E+07  0.9118800E+02  0.7818608E-02  0.1180000E+00
       11   -1    0    0    0    0  0.00000000000E+00  0.00000000000E+00  0.39999999673E+01  0.40000000000E+01  0.51109989000E-03 0.  1.
     -623   -1    0    0    0    0  0.00000000000E+00  0.00000000000E+00  0.12525980253E-10  0.17130000000E+03  0.17130000000E+03 0. -1.
       11    1    1    2    0    0  0.21020242786E-02  0.53334481493E-03  0.15831088789E+00  0.15832656572E+00  0.51109989000E-03 0.  1.
     -623    1    1    2    0    0  0.98699120958E-03 -0.71160310324E-03  0.22514399212E-03  0.17130000000E+03  0.17130000000E+03 0. -1.
      622    1    1    2    0    0 -0.30890154882E-02  0.17825828836E-03  0.38414639358E+01  0.38416734301E+01  0.40000000000E-01 0.  1.
</event>
<event>
 5   0  0.7212170E+07  0.9118800E+02  0.7818608E-02  0.1180000E+00
       11   -1    0    0    0    0  0.00000000000E+00  0.00000000000E+00  0.39999999673E+01  0.40000000000E+01  0.51109989000E-03 0.  1.
     -623   -1    0    0    0    0  0.00000000000E+00  0.00000000000E+00  0.12525980253E-10  0.17130000000E+03  0.17130000000E+03 0. -1.
       11    1    1    2    0    0 -0.40755976200E-01  0.28019414654E-01  0.85230859242E+00  0.85374254616E+00  0.51109989000E-03 0.  1.
     -623    1    1    2    0    0 -0.94655756667E-02 -0.46266523736E-02  0.21764068562E-02  0.17130000034E+03  0.17130000000E+03 0. -1.
      622    1    1    2    0    0  0.50221551868E-01 -0.23392762280E-01  0.31455149683E+01  0.31462571163E+01  0.40000000000E-01 0.  1.
</event>
<event>
 5   0  0.7212170E+07  0.9118800E+02  0.7818608E-02  0.1180000E+00
       11   -1    0    0    0    0  0.00000000000E+00  0.00000000000E+00  0.39999999673E+01  0.40000000000E+01  0.51109989000E-03 0. -1.
     -623   -1    0    0    0    0  0.00000000000E+00  0.00000000000E+00  0.12525980253E-10  0.17130000000E+03  0.17130000000E+03 0.  1.
       11    1    1    2    0    0 -0.63522456666E-02 -0.21577739919E-02  0.10969591020E+00  0.10990205162E+00  0.51109989000E-03 0. -1.
     -623    1    1    2    0    0  0.27361840120E-02  0.12586147163E-01  0.42790880903E-03  0.17130000048E+03  0.17130000000E+03 0.  1.
      622    1    1    2    0    0  0.36160616547E-02 -0.10428373171E-01  0.38898761482E+01  0.38900974635E+01  0.40000000000E-01 0. -1.
</event>
<event>
 5   0  0.7212170E+07  0.9118800E+02  0.7818608E-02  0.1180000E+00
       11   -1    0    0    0    0  0.00000000000E+00  0.00000000000E+00  0.39999999673E+01  0.40000000000E+01  0.51109989000E-03 0.  1.
     -623   -1    0    0    0    0  0.00000000000E+00  0.00000000000E+00  0.12525980253E-10  0.17130000000E+03  0.17130000000E+03 0. -1.
       11    1    1    2    0    0 -0.15425918515E-02 -0.17235132006E-01  0.15496557259E+01  0.15497524187E+01  0.51109989000E-03 0.  1.
     -623    1    1    2    0    0  0.67427155998E-03 -0.30603580953E-02  0.50742967029E-03  0.17130000003E+03  0.17130000000E+03 0. -1.
      622    1    1    2    0    0  0.86832029161E-03  0.20295490101E-01  0.24498368116E+01  0.24502475516E+01  0.40000000000E-01 0.  0.
</event>
<event>
 5   0  0.7212170E+07  0.9118800E+02  0.7818608E-02  0.1180000E+00
       11   -1    0    0    0    0  0.00000000000E+00  0.00000000000E+00  0.39999999673E+01  0.40000000000E+01  0.51109989000E-03 0.  1.
     -623   -1    0    0    0    0  0.00000000000E+00  0.00000000000E+00  0.12525980253E-10  0.17130000000E+03  0.17130000000E+03 0. -1.
       11    1    1    2    0    0  0.64928714359E-02 -0.55264621424E-02  0.92198602744E-01  0.92593427058E-01  0.51109989000E-03 0.  1.
     -623    1    1    2    0    0 -0.45797284561E-03 -0.22840557837E-03  0.60843703357E-03  0.17130000000E+03  0.17130000000E+03 0. -1.
      622    1    1    2    0    0 -0.60348985902E-02  0.57548677208E-02  0.39071929279E+01  0.39074065714E+01  0.40000000000E-01 0.  1.
</event>
<event>
 5   0  0.7212170E+07  0.9118800E+02  0.7818608E-02  0.1180000E+00
       11   -1    0    0    0    0  0.00000000000E+00  0.00000000000E+00  0.39999999673E+01  0.40000000000E+01  0.51109989000E-03 0. -1.
     -623   -1    0    0    0    0  0.00000000000E+00  0.00000000000E+00  0.12525980253E-10  0.17130000000E+03  0.17130000000E+03 0. -1.
       11    1    1    2    0    0 -0.25138263912E-02  0.60292828549E-02  0.17558750786E+01  0.17558873040E+01  0.51109989000E-03 0. -1.
     -623    1    1    2    0    0 -0.12712405096E-02  0.51988952929E-04  0.38014825904E-03  0.17130000001E+03  0.17130000000E+03 0. -1.
      622    1    1    2    0    0  0.37850669009E-02 -0.60812718078E-02  0.22437447406E+01  0.22441126910E+01  0.40000000000E-01 0.  1.
</event>
<event>
 5   0  0.7212170E+07  0.9118800E+02  0.7818608E-02  0.1180000E+00
       11   -1    0    0    0    0  0.00000000000E+00  0.00000000000E+00  0.39999999673E+01  0.40000000000E+01  0.51109989000E-03 0.  1.
     -623   -1    0    0    0    0  0.00000000000E+00  0.00000000000E+00  0.12525980253E-10  0.17130000000E+03  0.17130000000E+03 0. -1.
       11    1    1    2    0    0  0.14365305133E-02  0.20774094781E-02  0.45954786078E-01  0.46026979443E-01  0.51109989000E-03 0.  1.
     -623    1    1    2    0    0 -0.43592697662E-03 -0.27221659191E-02  0.27469563085E-03  0.17130000002E+03  0.17130000000E+03 0. -1.
      622    1    1    2    0    0 -0.10006035366E-02  0.64475644131E-03  0.39537704861E+01  0.39539729986E+01  0.40000000000E-01 0.  1.
</event>
<event>
 5   0  0.7212170E+07  0.9118800E+02  0.7818608E-02  0.1180000E+00
       11   -1    0    0    0    0  0.00000000000E+00  0.00000000000E+00  0.39999999673E+01  0.40000000000E+01  0.51109989000E-03 0.  1.
     -623   -1    0    0    0    0  0.00000000000E+00  0.00000000000E+00  0.12525980253E-10  0.17130000000E+03  0.17130000000E+03 0. -1.
       11    1    1    2    0    0 -0.98927601662E-04 -0.82969225861E-03  0.10274277221E-02  0.14195093293E-02  0.51109989000E-03 0.  1.
     -623    1    1    2    0    0 -0.17186621909E-02 -0.28466061548E-03  0.59270326450E-03  0.17130000001E+03  0.17130000000E+03 0. -1.
      622    1    1    2    0    0  0.18175897926E-02  0.11143528741E-02  0.39983798365E+01  0.39985804809E+01  0.40000000000E-01 0.  1.
</event>
<event>
 5   0  0.7212170E+07  0.9118800E+02  0.7818608E-02  0.1180000E+00
       11   -1    0    0    0    0  0.00000000000E+00  0.00000000000E+00  0.39999999673E+01  0.40000000000E+01  0.51109989000E-03 0.  1.
     -623   -1    0    0    0    0  0.00000000000E+00  0.00000000000E+00  0.12525980253E-10  0.17130000000E+03  0.17130000000E+03 0.  1.
       11    1    1    2    0    0 -0.50190623109E-04  0.28385792157E-03  0.11638404788E-01  0.11653187698E-01  0.51109989000E-03 0.  1.
     -623    1    1    2    0    0  0.20435034412E-03 -0.11675980435E-03  0.21534645283E-03  0.17130000000E+03  0.17130000000E+03 0.  1.
      622    1    1    2    0    0 -0.15415972112E-03 -0.16709811716E-03  0.39881462182E+01  0.39883468141E+01  0.40000000000E-01 0.  1.
</event>
<event>
 5   0  0.7212170E+07  0.9118800E+02  0.7818608E-02  0.1180000E+00
       11   -1    0    0    0    0  0.00000000000E+00  0.00000000000E+00  0.39999999673E+01  0.40000000000E+01  0.51109989000E-03 0. -1.
     -623   -1    0    0    0    0  0.00000000000E+00  0.00000000000E+00  0.12525980253E-10  0.17130000000E+03  0.17130000000E+03 0. -1.
       11    1    1    2    0    0  0.13803168437E-02 -0.58171120908E-02  0.14811875014E+00  0.14824024229E+00  0.51109989000E-03 0. -1.
     -623    1    1    2    0    0  0.80660898307E-03  0.67041700162E-02  0.33001881938E-03  0.17130000013E+03  0.17130000000E+03 0. -1.
      622    1    1    2    0    0 -0.21869258267E-02 -0.88705792509E-03  0.38515511982E+01  0.38517596241E+01  0.40000000000E-01 0. -1.
</event>
<event>
 5   0  0.7212170E+07  0.9118800E+02  0.7818608E-02  0.1180000E+00
       11   -1    0    0    0    0  0.00000000000E+00  0.00000000000E+00  0.39999999673E+01  0.40000000000E+01  0.51109989000E-03 0. -1.
     -623   -1    0    0    0    0  0.00000000000E+00  0.00000000000E+00  0.12525980253E-10  0.17130000000E+03  0.17130000000E+03 0.  1.
       11    1    1    2    0    0  0.66455738835E-02  0.26247819233E-02  0.53290773782E-01  0.53770074631E-01  0.51109989000E-03 0. -1.
     -623    1    1    2    0    0 -0.93429458050E-02 -0.20101387892E-02  0.68323629731E-03  0.17130000027E+03  0.17130000000E+03 0.  1.
      622    1    1    2    0    0  0.26973719217E-02 -0.61464313408E-03  0.39460259574E+01  0.39462296575E+01  0.40000000000E-01 0. -1.
</event>
<event>
 5   0  0.7212170E+07  0.9118800E+02  0.7818608E-02  0.1180000E+00
       11   -1    0    0    0    0  0.00000000000E+00  0.00000000000E+00  0.39999999673E+01  0.40000000000E+01  0.51109989000E-03 0.  1.
     -623   -1    0    0    0    0  0.00000000000E+00  0.00000000000E+00  0.12525980253E-10  0.17130000000E+03  0.17130000000E+03 0.  1.
       11    1    1    2    0    0  0.63664228239E-02  0.24183407572E-02  0.42476744301E-01  0.43022258671E-01  0.51109989000E-03 0.  1.
     -623    1    1    2    0    0  0.41113139877E-03  0.60471431403E-02  0.76263089869E-03  0.17130000011E+03  0.17130000000E+03 0.  1.
      622    1    1    2    0    0 -0.67775542226E-02 -0.84654838976E-02  0.39567605923E+01  0.39569776325E+01  0.40000000000E-01 0.  1.
</event>
<event>
 5   0  0.7212170E+07  0.9118800E+02  0.7818608E-02  0.1180000E+00
       11   -1    0    0    0    0  0.00000000000E+00  0.00000000000E+00  0.39999999673E+01  0.40000000000E+01  0.51109989000E-03 0. -1.
     -623   -1    0    0    0    0  0.00000000000E+00  0.00000000000E+00  0.12525980253E-10  0.17130000000E+03  0.17130000000E+03 0.  1.
       11    1    1    2    0    0 -0.34029408794E-02  0.19472522380E-02  0.20891138204E-01  0.21262000763E-01  0.51109989000E-03 0. -1.
     -623    1    1    2    0    0  0.44896547384E-02 -0.16154591731E-02  0.57213344270E-03  0.17130000007E+03  0.17130000000E+03 0.  1.
      622    1    1    2    0    0 -0.10867138589E-02 -0.33179306490E-03  0.39785366956E+01  0.39787379317E+01  0.40000000000E-01 0. -1.
</event>
<event>
 5   0  0.7212170E+07  0.9118800E+02  0.7818608E-02  0.1180000E+00
       11   -1    0    0    0    0  0.00000000000E+00  0.00000000000E+00  0.39999999673E+01  0.40000000000E+01  0.51109989000E-03 0.  1.
     -623   -1    0    0    0    0  0.00000000000E+00  0.00000000000E+00  0.12525980253E-10  0.17130000000E+03  0.17130000000E+03 0.  1.
       11    1    1    2    0    0  0.63441301776E-02  0.50382328484E-02  0.98042571879E+00  0.98045932249E+00  0.51109989000E-03 0.  1.
     -623    1    1    2    0    0 -0.38575382487E-02 -0.11758743244E-02  0.30206576248E-03  0.17130000005E+03  0.17130000000E+03 0.  1.
      622    1    1    2    0    0 -0.24865919287E-02 -0.38623585239E-02  0.30192721831E+01  0.30195406300E+01  0.40000000000E-01 0.  1.
</event>
<event>
 5   0  0.7212170E+07  0.9118800E+02  0.7818608E-02  0.1180000E+00
       11   -1    0    0    0    0  0.00000000000E+00  0.00000000000E+00  0.39999999673E+01  0.40000000000E+01  0.51109989000E-03 0.  1.
     -623   -1    0    0    0    0  0.00000000000E+00  0.00000000000E+00  0.12525980253E-10  0.17130000000E+03  0.17130000000E+03 0.  1.
       11    1    1    2    0    0 -0.43680779791E-02 -0.40336046772E-02  0.66323014408E-01  0.66590941841E-01  0.51109989000E-03 0.  1.
     -623    1    1    2    0    0 -0.22961176042E-02 -0.24086679319E-02  0.48224065803E-03  0.17130000003E+03  0.17130000000E+03 0.  1.
      622    1    1    2    0    0  0.66641955841E-02  0.64422726099E-02  0.39331947136E+01  0.39334090264E+01  0.40000000000E-01 0.  1.
</event>
<event>
 5   0  0.7212170E+07  0.9118800E+02  0.7818608E-02  0.1180000E+00
       11   -1    0    0    0    0  0.00000000000E+00  0.00000000000E+00  0.39999999673E+01  0.40000000000E+01  0.51109989000E-03 0. -1.
     -623   -1    0    0    0    0  0.00000000000E+00  0.00000000000E+00  0.12525980253E-10  0.17130000000E+03  0.17130000000E+03 0. -1.
       11    1    1    2    0    0  0.35872704668E-02 -0.21134649689E-01  0.22227484975E+01  0.22228519264E+01  0.51109989000E-03 0. -1.
     -623    1    1    2    0    0  0.40772269105E-02 -0.10320189334E-02  0.70848377952E-03  0.17130000005E+03  0.17130000000E+03 0. -1.
      622    1    1    2    0    0 -0.76644973772E-02  0.22166668622E-01  0.17765429859E+01  0.17771480205E+01  0.40000000000E-01 0. -1.
</event>
<event>
 5   0  0.7212170E+07  0.9118800E+02  0.7818608E-02  0.1180000E+00
       11   -1    0    0    0    0  0.00000000000E+00  0.00000000000E+00  0.39999999673E+01  0.40000000000E+01  0.51109989000E-03 0. -1.
     -623   -1    0    0    0    0  0.00000000000E+00  0.00000000000E+00  0.12525980253E-10  0.17130000000E+03  0.17130000000E+03 0. -1.
       11    1    1    2    0    0  0.25742906593E-02  0.17735061629E-01  0.98504764422E+00  0.98521078049E+00  0.51109989000E-03 0. -1.
     -623    1    1    2    0    0  0.13628148836E-01  0.38871373139E-03  0.52704266402E-03  0.17130000054E+03  0.17130000000E+03 0. -1.
      622    1    1    2    0    0 -0.16202439495E-01 -0.18123775360E-01  0.30144252804E+01  0.30147886761E+01  0.40000000000E-01 0. -1.
</event>
<event>
 5   0  0.7212170E+07  0.9118800E+02  0.7818608E-02  0.1180000E+00
       11   -1    0    0    0    0  0.00000000000E+00  0.00000000000E+00  0.39999999673E+01  0.40000000000E+01  0.51109989000E-03 0.  1.
     -623   -1    0    0    0    0  0.00000000000E+00  0.00000000000E+00  0.12525980253E-10  0.17130000000E+03  0.17130000000E+03 0. -1.
       11    1    1    2    0    0  0.60745516719E-02 -0.13340870675E-02  0.15878268267E+00  0.15890525952E+00  0.51109989000E-03 0.  1.
     -623    1    1    2    0    0 -0.23200039579E-03  0.12678098213E-02  0.33527326030E-03  0.17130000001E+03  0.17130000000E+03 0. -1.
      622    1    1    2    0    0 -0.58425512761E-02  0.66277246154E-04  0.38408820117E+01  0.38410947355E+01  0.40000000000E-01 0.  1.
</event>
<event>
 5   0  0.7212170E+07  0.9118800E+02  0.7818608E-02  0.1180000E+00
       11   -1    0    0    0    0  0.00000000000E+00  0.00000000000E+00  0.39999999673E+01  0.40000000000E+01  0.51109989000E-03 0. -1.
     -623   -1    0    0    0    0  0.00000000000E+00  0.00000000000E+00  0.12525980253E-10  0.17130000000E+03  0.17130000000E+03 0.  1.
       11    1    1    2    0    0  0.12349038786E-02  0.23580688101E-02  0.17157993154E-01  0.17370763606E-01  0.51109989000E-03 0. -1.
     -623    1    1    2    0    0 -0.12080766805E-02 -0.85584208123E-03  0.41390552361E-03  0.17130000001E+03  0.17130000000E+03 0.  1.
      622    1    1    2    0    0 -0.26827197920E-04 -0.15022267287E-02  0.39824280694E+01  0.39826292302E+01  0.40000000000E-01 0. -1.
</event>
<event>
 5   0  0.7212170E+07  0.9118800E+02  0.7818608E-02  0.1180000E+00
       11   -1    0    0    0    0  0.00000000000E+00  0.00000000000E+00  0.39999999673E+01  0.40000000000E+01  0.51109989000E-03 0.  1.
     -623   -1    0    0    0    0  0.00000000000E+00  0.00000000000E+00  0.12525980253E-10  0.17130000000E+03  0.17130000000E+03 0. -1.
       11    1    1    2    0    0  0.15719824314E-02  0.79699119524E-02  0.26342551689E+00  0.26355123752E+00  0.51109989000E-03 0.  1.
     -623    1    1    2    0    0 -0.96158580082E-03  0.36195391066E-02  0.35786708385E-03  0.17130000004E+03  0.17130000000E+03 0. -1.
      622    1    1    2    0    0 -0.61039663044E-03 -0.11589451059E-01  0.37362165838E+01  0.37364487216E+01  0.40000000000E-01 0.  0.
</event>
<event>
 5   0  0.7212170E+07  0.9118800E+02  0.7818608E-02  0.1180000E+00
       11   -1    0    0    0    0  0.00000000000E+00  0.00000000000E+00  0.39999999673E+01  0.40000000000E+01  0.51109989000E-03 0. -1.
     -623   -1    0    0    0    0  0.00000000000E+00  0.00000000000E+00  0.12525980253E-10  0.17130000000E+03  0.17130000000E+03 0. -1.
       11    1    1    2    0    0 -0.33515645909E-02  0.23889909488E-01  0.14679864985E+01  0.14681847914E+01  0.51109989000E-03 0. -1.
     -623    1    1    2    0    0 -0.16764395350E-02 -0.14235170576E-01  0.53826362132E-03  0.17130000060E+03  0.17130000000E+03 0. -1.
      622    1    1    2    0    0  0.50280041259E-02 -0.96547389112E-02  0.25314752054E+01  0.25318146083E+01  0.40000000000E-01 0. -1.
</event>
<event>
 5   0  0.7212170E+07  0.9118800E+02  0.7818608E-02  0.1180000E+00
       11   -1    0    0    0    0  0.00000000000E+00  0.00000000000E+00  0.39999999673E+01  0.40000000000E+01  0.51109989000E-03 0.  1.
     -623   -1    0    0    0    0  0.00000000000E+00  0.00000000000E+00  0.12525980253E-10  0.17130000000E+03  0.17130000000E+03 0.  1.
       11    1    1    2    0    0  0.16522868389E-01  0.13269940410E-01  0.12477024701E+01  0.12478825312E+01  0.51109989000E-03 0.  1.
     -623    1    1    2    0    0  0.61776054027E-02 -0.73591205560E-02  0.57098024291E-03  0.17130000027E+03  0.17130000000E+03 0.  1.
      622    1    1    2    0    0 -0.22700473792E-01 -0.59108198538E-02  0.27517265172E+01  0.27521171986E+01  0.40000000000E-01 0.  1.
</event>
<event>
 5   0  0.7212170E+07  0.9118800E+02  0.7818608E-02  0.1180000E+00
       11   -1    0    0    0    0  0.00000000000E+00  0.00000000000E+00  0.39999999673E+01  0.40000000000E+01  0.51109989000E-03 0. -1.
     -623   -1    0    0    0    0  0.00000000000E+00  0.00000000000E+00  0.12525980253E-10  0.17130000000E+03  0.17130000000E+03 0.  1.
       11    1    1    2    0    0  0.99865150205E-03  0.16238131033E-02  0.27694830775E-01  0.27765067055E-01  0.51109989000E-03 0. -1.
     -623    1    1    2    0    0 -0.47539719361E-03  0.37092539339E-03  0.27214332017E-03  0.17130000000E+03  0.17130000000E+03 0.  1.
      622    1    1    2    0    0 -0.52325430839E-03 -0.19947384968E-02  0.39720329937E+01  0.39722349321E+01  0.40000000000E-01 0. -1.
</event>
<event>
 5   0  0.7212170E+07  0.9118800E+02  0.7818608E-02  0.1180000E+00
       11   -1    0    0    0    0  0.00000000000E+00  0.00000000000E+00  0.39999999673E+01  0.40000000000E+01  0.51109989000E-03 0. -1.
     -623   -1    0    0    0    0  0.00000000000E+00  0.00000000000E+00  0.12525980253E-10  0.17130000000E+03  0.17130000000E+03 0.  1.
       11    1    1    2    0    0  0.26271904486E-02 -0.12674028846E-01  0.11613959987E+00  0.11685974935E+00  0.51109989000E-03 0. -1.
     -623    1    1    2    0    0  0.14215948022E-02  0.53351455059E-02  0.93527891563E-03  0.17130000009E+03  0.17130000000E+03 0.  1.
      622    1    1    2    0    0 -0.40487852508E-02  0.73388833395E-02  0.38829250887E+01  0.38831401592E+01  0.40000000000E-01 0. -1.
</event>
<event>
 5   0  0.7212170E+07  0.9118800E+02  0.7818608E-02  0.1180000E+00
       11   -1    0    0    0    0  0.00000000000E+00  0.00000000000E+00  0.39999999673E+01  0.40000000000E+01  0.51109989000E-03 0. -1.
     -623   -1    0    0    0    0  0.00000000000E+00  0.00000000000E+00  0.12525980253E-10  0.17130000000E+03  0.17130000000E+03 0. -1.
       11    1    1    2    0    0 -0.12941451925E-03 -0.21003233076E-02  0.56800080977E-02  0.60788009674E-02  0.51109989000E-03 0. -1.
     -623    1    1    2    0    0 -0.11466538975E-02 -0.10108540613E-03  0.59988516495E-03  0.17130000000E+03  0.17130000000E+03 0. -1.
      622    1    1    2    0    0  0.12760684168E-02  0.22014087137E-02  0.39937200743E+01  0.39939211943E+01  0.40000000000E-01 0. -1.
</event>
<event>
 5   0  0.7212170E+07  0.9118800E+02  0.7818608E-02  0.1180000E+00
       11   -1    0    0    0    0  0.00000000000E+00  0.00000000000E+00  0.39999999673E+01  0.40000000000E+01  0.51109989000E-03 0.  1.
     -623   -1    0    0    0    0  0.00000000000E+00  0.00000000000E+00  0.12525980253E-10  0.17130000000E+03  0.17130000000E+03 0.  1.
       11    1    1    2    0    0 -0.67700217428E-03  0.30947114070E-02  0.10474935831E-01  0.10955413018E-01  0.51109989000E-03 0.  1.
     -623    1    1    2    0    0  0.14596269280E-01  0.15831590091E-01  0.75154147125E-03  0.17130000136E+03  0.17130000000E+03 0.  1.
      622    1    1    2    0    0 -0.13919267106E-01 -0.18926301498E-01  0.39887734900E+01  0.39890432318E+01  0.40000000000E-01 0.  1.
</event>
<event>
 5   0  0.7212170E+07  0.9118800E+02  0.7818608E-02  0.1180000E+00
       11   -1    0    0    0    0  0.00000000000E+00  0.00000000000E+00  0.39999999673E+01  0.40000000000E+01  0.51109989000E-03 0.  1.
     -623   -1    0    0    0    0  0.00000000000E+00  0.00000000000E+00  0.12525980253E-10  0.17130000000E+03  0.17130000000E+03 0. -1.
       11    1    1    2    0    0  0.16664226548E-03 -0.26982084699E-02  0.84971072808E-01  0.85015601720E-01  0.51109989000E-03 0.  1.
     -623    1    1    2    0    0  0.16102140419E-02 -0.89046587063E-03  0.25090287008E-03  0.17130000001E+03  0.17130000000E+03 0. -1.
      622    1    1    2    0    0 -0.17768563078E-02  0.35886743408E-02  0.39147779927E+01  0.39149843893E+01  0.40000000000E-01 0.  1.
</event>
<event>
 5   0  0.7212170E+07  0.9118800E+02  0.7818608E-02  0.1180000E+00
       11   -1    0    0    0    0  0.00000000000E+00  0.00000000000E+00  0.39999999673E+01  0.40000000000E+01  0.51109989000E-03 0. -1.
     -623   -1    0    0    0    0  0.00000000000E+00  0.00000000000E+00  0.12525980253E-10  0.17130000000E+03  0.17130000000E+03 0.  1.
       11    1    1    2    0    0  0.27223002617E-02  0.24415594434E-01  0.27205093795E+01  0.27206203479E+01  0.51109989000E-03 0. -1.
     -623    1    1    2    0    0  0.40977669042E-02 -0.20987801340E-02  0.94939740844E-03  0.17130000006E+03  0.17130000000E+03 0.  1.
      622    1    1    2    0    0 -0.68200671661E-02 -0.22316814300E-01  0.12785411906E+01  0.12793795878E+01  0.40000000000E-01 0. -1.
</event>
<event>
 5   0  0.7212170E+07  0.9118800E+02  0.7818608E-02  0.1180000E+00
       11   -1    0    0    0    0  0.00000000000E+00  0.00000000000E+00  0.39999999673E+01  0.40000000000E+01  0.51109989000E-03 0.  1.
     -623   -1    0    0    0    0  0.00000000000E+00  0.00000000000E+00  0.12525980253E-10  0.17130000000E+03  0.17130000000E+03 0. -1.
       11    1    1    2    0    0  0.11221524255E-02 -0.78814941002E-03  0.17717646546E-01  0.17777981544E-01  0.51109989000E-03 0.  1.
     -623    1    1    2    0    0  0.40425744848E-04  0.10520319587E-03  0.26142880609E-03  0.17130000000E+03  0.17130000000E+03 0. -1.
      622    1    1    2    0    0 -0.11625781704E-02  0.68294621415E-03  0.39820208919E+01  0.39822220181E+01  0.40000000000E-01 0.  1.
</event>
<event>
 5   0  0.7212170E+07  0.9118800E+02  0.7818608E-02  0.1180000E+00
       11   -1    0    0    0    0  0.00000000000E+00  0.00000000000E+00  0.39999999673E+01  0.40000000000E+01  0.51109989000E-03 0.  1.
     -623   -1    0    0    0    0  0.00000000000E+00  0.00000000000E+00  0.12525980253E-10  0.17130000000E+03  0.17130000000E+03 0. -1.
       11    1    1    2    0    0  0.66298504207E-03 -0.65321049821E-03  0.25085510350E-02  0.27240199180E-02  0.51109989000E-03 0.  1.
     -623    1    1    2    0    0  0.18588220296E-03  0.56272949267E-03  0.41567023862E-03  0.17130000000E+03  0.17130000000E+03 0. -1.
      622    1    1    2    0    0 -0.84886724506E-03  0.90481005468E-04  0.39970757466E+01  0.39972759791E+01  0.40000000000E-01 0.  1.
</event>
<event>
 5   0  0.7212170E+07  0.9118800E+02  0.7818608E-02  0.1180000E+00
       11   -1    0    0    0    0  0.00000000000E+00  0.00000000000E+00  0.39999999673E+01  0.40000000000E+01  0.51109989000E-03 0. -1.
     -623   -1    0    0    0    0  0.00000000000E+00  0.00000000000E+00  0.12525980253E-10  0.17130000000E+03  0.17130000000E+03 0.  1.
       11    1    1    2    0    0 -0.42060484004E-02  0.11240724180E-01  0.14407702723E+01  0.14408203509E+01  0.51109989000E-03 0. -1.
     -623    1    1    2    0    0  0.80687990301E-02 -0.37356400069E-02  0.37681806396E-03  0.17130000023E+03  0.17130000000E+03 0.  1.
      622    1    1    2    0    0 -0.38627506320E-02 -0.75050841719E-02  0.25588528781E+01  0.25591794190E+01  0.40000000000E-01 0. -1.
</event>
<event>
 5   0  0.7212170E+07  0.9118800E+02  0.7818608E-02  0.1180000E+00
       11   -1    0    0    0    0  0.00000000000E+00  0.00000000000E+00  0.39999999673E+01  0.40000000000E+01  0.51109989000E-03 0. -1.
     -623   -1    0    0    0    0  0.00000000000E+00  0.00000000000E+00  0.12525980253E-10  0.17130000000E+03  0.17130000000E+03 0. -1.
       11    1    1    2    0    0 -0.24536343614E-02 -0.47197725634E-01  0.33275581378E+01  0.33278937884E+01  0.51109989000E-03 0. -1.
     -623    1    1    2    0    0  0.11130114031E-01  0.14165547553E-01  0.23977581877E-02  0.17130000096E+03  0.17130000000E+03 0. -1.
      622    1    1    2    0    0 -0.86764796697E-02  0.33032178081E-01  0.67004407144E+00  0.67210524754E+00  0.40000000000E-01 0. -1.
</event>
<event>
 5   0  0.7212170E+07  0.9118800E+02  0.7818608E-02  0.1180000E+00
       11   -1    0    0    0    0  0.00000000000E+00  0.00000000000E+00  0.39999999673E+01  0.40000000000E+01  0.51109989000E-03 0. -1.
     -623   -1    0    0    0    0  0.00000000000E+00  0.00000000000E+00  0.12525980253E-10  0.17130000000E+03  0.17130000000E+03 0. -1.
       11    1    1    2    0    0  0.19510324110E-02  0.23272489678E-02  0.54986320151E-01  0.55072490793E-01  0.51109989000E-03 0. -1.
     -623    1    1    2    0    0 -0.36695975400E-02  0.50876365657E-03  0.29036940395E-03  0.17130000004E+03  0.17130000000E+03 0. -1.
      622    1    1    2    0    0  0.17185651301E-02 -0.28360126245E-02  0.39447232789E+01  0.39449274700E+01  0.40000000000E-01 0. -1.
</event>
<event>
 5   0  0.7212170E+07  0.9118800E+02  0.7818608E-02  0.1180000E+00
       11   -1    0    0    0    0  0.00000000000E+00  0.00000000000E+00  0.39999999673E+01  0.40000000000E+01  0.51109989000E-03 0.  1.
     -623   -1    0    0    0    0  0.00000000000E+00  0.00000000000E+00  0.12525980253E-10  0.17130000000E+03  0.17130000000E+03 0. -1.
       11    1    1    2    0    0  0.51486484356E-02 -0.52109464456E-02  0.91110425922E-01  0.91405872231E-01  0.51109989000E-03 0.  1.
     -623    1    1    2    0    0 -0.51907684319E-02  0.51940325252E-03  0.50299241804E-03  0.17130000008E+03  0.17130000000E+03 0. -1.
      622    1    1    2    0    0  0.42119996939E-04  0.46915431930E-02  0.39083865495E+01  0.39085940480E+01  0.40000000000E-01 0.  1.
</event>
<event>
 5   0  0.7212170E+07  0.9118800E+02  0.7818608E-02  0.1180000E+00
       11   -1    0    0    0    0  0.00000000000E+00  0.00000000000E+00  0.39999999673E+01  0.40000000000E+01  0.51109989000E-03 0.  1.
     -623   -1    0    0    0    0  0.00000000000E+00  0.00000000000E+00  0.12525980253E-10  0.17130000000E+03  0.17130000000E+03 0. -1.
       11    1    1    2    0    0  0.20952823367E-02  0.20614785176E-02  0.87482410445E-01  0.87533269459E-01  0.51109989000E-03 0.  1.
     -623    1    1    2    0    0 -0.82126906956E-03 -0.25380350834E-03  0.25593370733E-03  0.17130000000E+03  0.17130000000E+03 0. -1.
      622    1    1    2    0    0 -0.12740132670E-02 -0.18076750092E-02  0.39122616238E+01  0.39124667288E+01  0.40000000000E-01 0.  1.
</event>
<event>
 5   0  0.7212170E+07  0.9118800E+02  0.7818608E-02  0.1180000E+00
       11   -1    0    0    0    0  0.00000000000E+00  0.00000000000E+00  0.39999999673E+01  0.40000000000E+01  0.51109989000E-03 0.  1.
     -623   -1    0    0    0    0  0.00000000000E+00  0.00000000000E+00  0.12525980253E-10  0.17130000000E+03  0.17130000000E+03 0.  1.
       11    1    1    2    0    0 -0.32400779360E-02 -0.99614369593E-02  0.99925535253E+00  0.99931038677E+00  0.51109989000E-03 0.  1.
     -623    1    1    2    0    0  0.76962451067E-03  0.53251932830E-03  0.33745413386E-03  0.17130000000E+03  0.17130000000E+03 0.  1.
      622    1    1    2    0    0  0.24704534255E-02  0.94289176312E-02  0.30004071598E+01  0.30006896095E+01  0.40000000000E-01 0.  1.
</event>
<event>
 5   0  0.7212170E+07  0.9118800E+02  0.7818608E-02  0.1180000E+00
       11   -1    0    0    0    0  0.00000000000E+00  0.00000000000E+00  0.39999999673E+01  0.40000000000E+01  0.51109989000E-03 0. -1.
     -623   -1    0    0    0    0  0.00000000000E+00  0.00000000000E+00  0.12525980253E-10  0.17130000000E+03  0.17130000000E+03 0.  1.
       11    1    1    2    0    0 -0.12934661888E-01 -0.25910261471E-01  0.26505614543E+01  0.26507197007E+01  0.51109989000E-03 0. -1.
     -623    1    1    2    0    0  0.62314070815E-02  0.94747447326E-03  0.99907019024E-03  0.17130000012E+03  0.17130000000E+03 0.  1.
      622    1    1    2    0    0  0.67032548064E-02  0.24962786998E-01  0.13484394428E+01  0.13492801804E+01  0.40000000000E-01 0. -1.
</event>
<event>
 5   0  0.7212170E+07  0.9118800E+02  0.7818608E-02  0.1180000E+00
       11   -1    0    0    0    0  0.00000000000E+00  0.00000000000E+00  0.39999999673E+01  0.40000000000E+01  0.51109989000E-03 0. -1.
     -623   -1    0    0    0    0  0.00000000000E+00  0.00000000000E+00  0.12525980253E-10  0.17130000000E+03  0.17130000000E+03 0. -1.
       11    1    1    2    0    0  0.18727124952E-02  0.30464407449E-02  0.48163846312E-01  0.48299121814E-01  0.51109989000E-03 0. -1.
     -623    1    1    2    0    0 -0.73830869944E-03  0.10495875196E-02  0.33998342045E-03  0.17130000001E+03  0.17130000000E+03 0. -1.
      622    1    1    2    0    0 -0.11344037958E-02 -0.40960282644E-02  0.39514961373E+01  0.39517008727E+01  0.40000000000E-01 0. -1.
</event>
<event>
 5   0  0.7212170E+07  0.9118800E+02  0.7818608E-02  0.1180000E+00
       11   -1    0    0    0    0  0.00000000000E+00  0.00000000000E+00  0.39999999673E+01  0.40000000000E+01  0.51109989000E-03 0. -1.
     -623   -1    0    0    0    0  0.00000000000E+00  0.00000000000E+00  0.12525980253E-10  0.17130000000E+03  0.17130000000E+03 0.  1.
       11    1    1    2    0    0  0.35527527037E-03  0.48439900681E-02  0.43792750669E-01  0.44064233734E-01  0.51109989000E-03 0. -1.
     -623    1    1    2    0    0 -0.45210366611E-03  0.36789847249E-03  0.47711965916E-03  0.17130000000E+03  0.17130000000E+03 0.  1.
      622    1    1    2    0    0  0.96828395728E-04 -0.52118885406E-02  0.39557300969E+01  0.39559357645E+01  0.40000000000E-01 0. -1.
</event>
<event>
 5   0  0.7212170E+07  0.9118800E+02  0.7818608E-02  0.1180000E+00
       11   -1    0    0    0    0  0.00000000000E+00  0.00000000000E+00  0.39999999673E+01  0.40000000000E+01  0.51109989000E-03 0. -1.
     -623   -1    0    0    0    0  0.00000000000E+00  0.00000000000E+00  0.12525980253E-10  0.17130000000E+03  0.17130000000E+03 0.  1.
       11    1    1    2    0    0  0.33523719451E-02  0.25460466850E-03  0.41065502078E+00  0.41066910103E+00  0.51109989000E-03 0. -1.
     -623    1    1    2    0    0 -0.18566009273E-04 -0.18877800229E-03  0.23848649799E-03  0.17130000000E+03  0.17130000000E+03 0.  1.
      622    1    1    2    0    0 -0.33338059358E-02 -0.65826666166E-04  0.35891064610E+01  0.35893308997E+01  0.40000000000E-01 0. -1.
</event>
<event>
 5   0  0.7212170E+07  0.9118800E+02  0.7818608E-02  0.1180000E+00
       11   -1    0    0    0    0  0.00000000000E+00  0.00000000000E+00  0.39999999673E+01  0.40000000000E+01  0.51109989000E-03 0. -1.
     -623   -1    0    0    0    0  0.00000000000E+00  0.00000000000E+00  0.12525980253E-10  0.17130000000E+03  0.17130000000E+03 0.  1.
       11    1    1    2    0    0 -0.10772460904E-02  0.20183122805E-02  0.77998312714E-02  0.81444849169E-02  0.51109989000E-03 0. -1.
     -623    1    1    2    0    0 -0.59167661258E-03 -0.14362909268E-02  0.54543332627E-03  0.17130000001E+03  0.17130000000E+03 0.  1.
      622    1    1    2    0    0  0.16689227030E-02 -0.58202135381E-03  0.39916547026E+01  0.39918555070E+01  0.40000000000E-01 0. -1.
</event>
<event>
 5   0  0.7212170E+07  0.9118800E+02  0.7818608E-02  0.1180000E+00
       11   -1    0    0    0    0  0.00000000000E+00  0.00000000000E+00  0.39999999673E+01  0.40000000000E+01  0.51109989000E-03 0. -1.
     -623   -1    0    0    0    0  0.00000000000E+00  0.00000000000E+00  0.12525980253E-10  0.17130000000E+03  0.17130000000E+03 0.  1.
       11    1    1    2    0    0  0.16791532649E-01  0.15697169939E-02  0.31463190517E+00  0.31508398333E+00  0.51109989000E-03 0. -1.
     -623    1    1    2    0    0 -0.35208251879E-02 -0.13748972712E-01  0.71376905691E-03  0.17130000059E+03  0.17130000000E+03 0.  1.
      622    1    1    2    0    0 -0.13270707461E-01  0.12179255718E-01  0.36846542930E+01  0.36849154271E+01  0.40000000000E-01 0. -1.
</event>
<event>
 5   0  0.7212170E+07  0.9118800E+02  0.7818608E-02  0.1180000E+00
       11   -1    0    0    0    0  0.00000000000E+00  0.00000000000E+00  0.39999999673E+01  0.40000000000E+01  0.51109989000E-03 0. -1.
     -623   -1    0    0    0    0  0.00000000000E+00  0.00000000000E+00  0.12525980253E-10  0.17130000000E+03  0.17130000000E+03 0.  1.
       11    1    1    2    0    0 -0.12996946437E-01  0.24782867554E-01  0.20678398556E+01  0.20680292650E+01  0.51109989000E-03 0. -1.
     -623    1    1    2    0    0  0.30717136547E-02 -0.18918248337E-02  0.76469456646E-03  0.17130000004E+03  0.17130000000E+03 0.  1.
      622    1    1    2    0    0  0.99252327820E-02 -0.22891042720E-01  0.19313954177E+01  0.19319706959E+01  0.40000000000E-01 0.  0.
</event>
<event>
 5   0  0.7212170E+07  0.9118800E+02  0.7818608E-02  0.1180000E+00
       11   -1    0    0    0    0  0.00000000000E+00  0.00000000000E+00  0.39999999673E+01  0.40000000000E+01  0.51109989000E-03 0.  1.
     -623   -1    0    0    0    0  0.00000000000E+00  0.00000000000E+00  0.12525980253E-10  0.17130000000E+03  0.17130000000E+03 0.  1.
       11    1    1    2    0    0  0.27424666604E-02  0.26318778953E-02  0.32637941871E-01  0.32862507167E-01  0.51109989000E-03 0.  1.
     -623    1    1    2    0    0  0.59868467806E-03 -0.52071118700E-03  0.42816570526E-03  0.17130000000E+03  0.17130000000E+03 0.  1.
      622    1    1    2    0    0 -0.33411513385E-02 -0.21111667083E-02  0.39669338603E+01  0.39671374909E+01  0.40000000000E-01 0.  1.
</event>
<event>
 5   0  0.7212170E+07  0.9118800E+02  0.7818608E-02  0.1180000E+00
       11   -1    0    0    0    0  0.00000000000E+00  0.00000000000E+00  0.39999999673E+01  0.40000000000E+01  0.51109989000E-03 0. -1.
     -623   -1    0    0    0    0  0.00000000000E+00  0.00000000000E+00  0.12525980253E-10  0.17130000000E+03  0.17130000000E+03 0. -1.
       11    1    1    2    0    0 -0.14012758386E-01  0.16805851607E-01  0.37690732761E+00  0.37754230077E+00  0.51109989000E-03 0. -1.
     -623    1    1    2    0    0 -0.29288353956E-02 -0.19756106968E-02  0.92580938965E-03  0.17130000004E+03  0.17130000000E+03 0. -1.
      622    1    1    2    0    0  0.16941593781E-01 -0.14830240910E-01  0.36221668303E+01  0.36224576603E+01  0.40000000000E-01 0. -1.
</event>
<event>
 5   0  0.7212170E+07  0.9118800E+02  0.7818608E-02  0.1180000E+00
       11   -1    0    0    0    0  0.00000000000E+00  0.00000000000E+00  0.39999999673E+01  0.40000000000E+01  0.51109989000E-03 0.  1.
     -623   -1    0    0    0    0  0.00000000000E+00  0.00000000000E+00  0.12525980253E-10  0.17130000000E+03  0.17130000000E+03 0.  1.
       11    1    1    2    0    0  0.11870458543E-02  0.18978216873E-04  0.31306150605E-02  0.33869472667E-02  0.51109989000E-03 0.  1.
     -623    1    1    2    0    0 -0.23009897149E-03 -0.97405928691E-03  0.45670629882E-03  0.17130000000E+03  0.17130000000E+03 0.  1.
      622    1    1    2    0    0 -0.95694688283E-03  0.95508107013E-03  0.39964126464E+01  0.39966130496E+01  0.40000000000E-01 0.  1.
</event>
<event>
 5   0  0.7212170E+07  0.9118800E+02  0.7818608E-02  0.1180000E+00
       11   -1    0    0    0    0  0.00000000000E+00  0.00000000000E+00  0.39999999673E+01  0.40000000000E+01  0.51109989000E-03 0.  1.
     -623   -1    0    0    0    0  0.00000000000E+00  0.00000000000E+00  0.12525980253E-10  0.17130000000E+03  0.17130000000E+03 0.  1.
       11    1    1    2    0    0  0.15100445592E-02  0.25302183506E-02  0.89814011978E-01  0.89863786979E-01  0.51109989000E-03 0.  1.
     -623    1    1    2    0    0  0.70325353638E-03  0.13037379624E-03  0.25587751983E-03  0.17130000000E+03  0.17130000000E+03 0.  1.
      622    1    1    2    0    0 -0.22132980956E-02 -0.26605921469E-02  0.39099300783E+01  0.39101362118E+01  0.40000000000E-01 0.  1.
</event>
<event>
 5   0  0.7212170E+07  0.9118800E+02  0.7818608E-02  0.1180000E+00
       11   -1    0    0    0    0  0.00000000000E+00  0.00000000000E+00  0.39999999673E+01  0.40000000000E+01  0.51109989000E-03 0. -1.
     -623   -1    0    0    0    0  0.00000000000E+00  0.00000000000E+00  0.12525980253E-10  0.17130000000E+03  0.17130000000E+03 0.  1.
       11    1    1    2    0    0 -0.16263277778E-02  0.89122003503E-03  0.16367737315E+00  0.16368867683E+00  0.51109989000E-03 0.  1.
     -623    1    1    2    0    0 -0.44785745159E-02 -0.22142380787E-02  0.22496927798E-03  0.17130000007E+03  0.17130000000E+03 0.  1.
      622    1    1    2    0    0  0.61049022935E-02  0.13230180435E-02  0.38360976247E+01  0.38363112499E+01  0.40000000000E-01 0. -1.
</event>
<event>
 5   0  0.7212170E+07  0.9118800E+02  0.7818608E-02  0.1180000E+00
       11   -1    0    0    0    0  0.00000000000E+00  0.00000000000E+00  0.39999999673E+01  0.40000000000E+01  0.51109989000E-03 0.  1.
     -623   -1    0    0    0    0  0.00000000000E+00  0.00000000000E+00  0.12525980253E-10  0.17130000000E+03  0.17130000000E+03 0.  1.
       11    1    1    2    0    0  0.17255574090E-01  0.20037472447E-01  0.29990250627E+01  0.29991416844E+01  0.51109989000E-03 0.  1.
     -623    1    1    2    0    0 -0.47668416829E-02  0.97326633707E-03  0.12150327827E-02  0.17130000007E+03  0.17130000000E+03 0.  1.
      622    1    1    2    0    0 -0.12488732407E-01 -0.21010738785E-01  0.99975987228E+00  0.10008582426E+01  0.40000000000E-01 0. -1.
</event>
<event>
 5   0  0.7212170E+07  0.9118800E+02  0.7818608E-02  0.1180000E+00
       11   -1    0    0    0    0  0.00000000000E+00  0.00000000000E+00  0.39999999673E+01  0.40000000000E+01  0.51109989000E-03 0. -1.
     -623   -1    0    0    0    0  0.00000000000E+00  0.00000000000E+00  0.12525980253E-10  0.17130000000E+03  0.17130000000E+03 0. -1.
       11    1    1    2    0    0  0.12024448307E-01 -0.15021903976E-01  0.12266154361E+01  0.12267664547E+01  0.51109989000E-03 0. -1.
     -623    1    1    2    0    0 -0.10616955370E-02 -0.11117770410E-03  0.50244173603E-03  0.17130000000E+03  0.17130000000E+03 0. -1.
      622    1    1    2    0    0 -0.10962752770E-01  0.15133081680E-01  0.27728820900E+01  0.27732335417E+01  0.40000000000E-01 0. -1.
</event>
<event>
 5   0  0.7212170E+07  0.9118800E+02  0.7818608E-02  0.1180000E+00
       11   -1    0    0    0    0  0.00000000000E+00  0.00000000000E+00  0.39999999673E+01  0.40000000000E+01  0.51109989000E-03 0.  1.
     -623   -1    0    0    0    0  0.00000000000E+00  0.00000000000E+00  0.12525980253E-10  0.17130000000E+03  0.17130000000E+03 0. -1.
       11    1    1    2    0    0  0.22375121277E-02  0.45034463707E-02  0.52285028460E-01  0.52528781767E-01  0.51109989000E-03 0.  1.
     -623    1    1    2    0    0  0.54832555703E-03 -0.23223742708E-03  0.44968282312E-03  0.17130000000E+03  0.17130000000E+03 0. -1.
      622    1    1    2    0    0 -0.27858376847E-02 -0.42712089436E-02  0.39472652555E+01  0.39474712161E+01  0.40000000000E-01 0.  1.
</event>
<event>
 5   0  0.7212170E+07  0.9118800E+02  0.7818608E-02  0.1180000E+00
       11   -1    0    0    0    0  0.00000000000E+00  0.00000000000E+00  0.39999999673E+01  0.40000000000E+01  0.51109989000E-03 0.  1.
     -623   -1    0    0    0    0  0.00000000000E+00  0.00000000000E+00  0.12525980253E-10  0.17130000000E+03  0.17130000000E+03 0. -1.
       11    1    1    2    0    0  0.35369150849E-02 -0.63837220420E-02  0.33139487440E-01  0.33937420738E-01  0.51109989000E-03 0.  1.
     -623    1    1    2    0    0  0.23356673359E-02 -0.16516373025E-02  0.10121324385E-02  0.17130000003E+03  0.17130000000E+03 0. -1.
      622    1    1    2    0    0 -0.58725824210E-02  0.80353593447E-02  0.39658483478E+01  0.39660625527E+01  0.40000000000E-01 0.  1.
</event>
<event>
 5   0  0.7212170E+07  0.9118800E+02  0.7818608E-02  0.1180000E+00
       11   -1    0    0    0    0  0.00000000000E+00  0.00000000000E+00  0.39999999673E+01  0.40000000000E+01  0.51109989000E-03 0.  1.
     -623   -1    0    0    0    0  0.00000000000E+00  0.00000000000E+00  0.12525980253E-10  0.17130000000E+03  0.17130000000E+03 0. -1.
       11    1    1    2    0    0 -0.20063724867E-02  0.23359748882E-02  0.27035868492E+00  0.27037670396E+00  0.51109989000E-03 0.  1.
     -623    1    1    2    0    0  0.20125869140E-03 -0.22349255214E-05  0.23365876578E-03  0.17130000000E+03  0.17130000000E+03 0. -1.
      622    1    1    2    0    0  0.18051137954E-02 -0.23337399627E-02  0.37294076229E+01  0.37296232950E+01  0.40000000000E-01 0.  1.
</event>
<event>
 5   0  0.7212170E+07  0.9118800E+02  0.7818608E-02  0.1180000E+00
       11   -1    0    0    0    0  0.00000000000E+00  0.00000000000E+00  0.39999999673E+01  0.40000000000E+01  0.51109989000E-03 0. -1.
     -623   -1    0    0    0    0  0.00000000000E+00  0.00000000000E+00  0.12525980253E-10  0.17130000000E+03  0.17130000000E+03 0. -1.
       11    1    1    2    0    0 -0.50003096844E-02  0.17968787988E-02  0.21316845414E-01  0.21975008348E-01  0.51109989000E-03 0. -1.
     -623    1    1    2    0    0  0.14805427284E-02  0.71570212821E-03  0.86160101833E-03  0.17130000001E+03  0.17130000000E+03 0. -1.
      622    1    1    2    0    0  0.35197669559E-02 -0.25125809271E-02  0.39778215215E+01  0.39780249821E+01  0.40000000000E-01 0. -1.
</event>
<event>
 5   0  0.7212170E+07  0.9118800E+02  0.7818608E-02  0.1180000E+00
       11   -1    0    0    0    0  0.00000000000E+00  0.00000000000E+00  0.39999999673E+01  0.40000000000E+01  0.51109989000E-03 0.  1.
     -623   -1    0    0    0    0  0.00000000000E+00  0.00000000000E+00  0.12525980253E-10  0.17130000000E+03  0.17130000000E+03 0. -1.
       11    1    1    2    0    0  0.82325103813E-02 -0.11513248547E-02  0.40365112133E-02  0.92549674214E-02  0.51109989000E-03 0.  1.
     -623    1    1    2    0    0 -0.47836908298E-02 -0.44897161135E-02  0.54245813712E-02  0.17130000021E+03  0.17130000000E+03 0. -1.
      622    1    1    2    0    0 -0.34488195514E-02  0.56410409683E-02  0.39905388748E+01  0.39907448211E+01  0.40000000000E-01 0.  1.
</event>
<event>
 5   0  0.7212170E+07  0.9118800E+02  0.7818608E-02  0.1180000E+00
       11   -1    0    0    0    0  0.00000000000E+00  0.00000000000E+00  0.39999999673E+01  0.40000000000E+01  0.51109989000E-03 0. -1.
     -623   -1    0    0    0    0  0.00000000000E+00  0.00000000000E+00  0.12525980253E-10  0.17130000000E+03  0.17130000000E+03 0. -1.
       11    1    1    2    0    0 -0.80749787676E-03  0.47417432270E-03  0.68859772557E-02  0.69681274366E-02  0.51109989000E-03 0. -1.
     -623    1    1    2    0    0 -0.63221028295E-04 -0.30902898292E-03  0.28257045945E-03  0.17130000000E+03  0.17130000000E+03 0. -1.
      622    1    1    2    0    0  0.87071890506E-03 -0.16514533979E-03  0.39928314196E+01  0.39930318720E+01  0.40000000000E-01 0. -1.
</event>
<event>
 5   0  0.7212170E+07  0.9118800E+02  0.7818608E-02  0.1180000E+00
       11   -1    0    0    0    0  0.00000000000E+00  0.00000000000E+00  0.39999999673E+01  0.40000000000E+01  0.51109989000E-03 0.  1.
     -623   -1    0    0    0    0  0.00000000000E+00  0.00000000000E+00  0.12525980253E-10  0.17130000000E+03  0.17130000000E+03 0.  1.
       11    1    1    2    0    0 -0.48120331905E-02  0.18911271771E-02  0.21546531440E-01  0.22164076016E-01  0.51109989000E-03 0.  1.
     -623    1    1    2    0    0  0.32851055941E-02 -0.35560809273E-02  0.81934330684E-03  0.17130000007E+03  0.17130000000E+03 0.  1.
      622    1    1    2    0    0  0.15269275966E-02  0.16649537499E-02  0.39776340923E+01  0.39778358533E+01  0.40000000000E-01 0.  1.
</event>
<event>
 5   0  0.7212170E+07  0.9118800E+02  0.7818608E-02  0.1180000E+00
       11   -1    0    0    0    0  0.00000000000E+00  0.00000000000E+00  0.39999999673E+01  0.40000000000E+01  0.51109989000E-03 0.  1.
     -623   -1    0    0    0    0  0.00000000000E+00  0.00000000000E+00  0.12525980253E-10  0.17130000000E+03  0.17130000000E+03 0.  1.
       11    1    1    2    0    0  0.63508406575E-02  0.37938835420E-02  0.57244414120E-01  0.57722706975E-01  0.51109989000E-03 0.  1.
     -623    1    1    2    0    0  0.23982878745E-02 -0.42210791695E-03  0.69236355310E-03  0.17130000002E+03  0.17130000000E+03 0.  1.
      622    1    1    2    0    0 -0.87491285324E-02 -0.33717756250E-02  0.39420631902E+01  0.39422772749E+01  0.40000000000E-01 0.  1.
</event>
<event>
 5   0  0.7212170E+07  0.9118800E+02  0.7818608E-02  0.1180000E+00
       11   -1    0    0    0    0  0.00000000000E+00  0.00000000000E+00  0.39999999673E+01  0.40000000000E+01  0.51109989000E-03 0. -1.
     -623   -1    0    0    0    0  0.00000000000E+00  0.00000000000E+00  0.12525980253E-10  0.17130000000E+03  0.17130000000E+03 0. -1.
       11    1    1    2    0    0 -0.12831478129E-01 -0.92991674576E-02  0.13111652552E+00  0.13207166931E+00  0.51109989000E-03 0. -1.
     -623    1    1    2    0    0  0.11200042315E-02  0.62708722273E-03  0.11894081007E-02  0.17130000001E+03  0.17130000000E+03 0. -1.
      622    1    1    2    0    0  0.11711473898E-01  0.86720802349E-02  0.38676940335E+01  0.38679283215E+01  0.40000000000E-01 0. -1.
</event>
<event>
 5   0  0.7212170E+07  0.9118800E+02  0.7818608E-02  0.1180000E+00
       11   -1    0    0    0    0  0.00000000000E+00  0.00000000000E+00  0.39999999673E+01  0.40000000000E+01  0.51109989000E-03 0.  1.
     -623   -1    0    0    0    0  0.00000000000E+00  0.00000000000E+00  0.12525980253E-10  0.17130000000E+03  0.17130000000E+03 0. -1.
       11    1    1    2    0    0  0.71034509823E-02 -0.22970197047E-02  0.20428023196E+00  0.20441724415E+00  0.51109989000E-03 0.  1.
     -623    1    1    2    0    0 -0.55362246416E-03  0.46893843740E-04  0.35407666201E-03  0.17130000000E+03  0.17130000000E+03 0. -1.
      622    1    1    2    0    0 -0.65498285181E-02  0.22501258609E-02  0.37953656589E+01  0.37955827548E+01  0.40000000000E-01 0.  0.
</event>
<event>
 5   0  0.7212170E+07  0.9118800E+02  0.7818608E-02  0.1180000E+00
       11   -1    0    0    0    0  0.00000000000E+00  0.00000000000E+00  0.39999999673E+01  0.40000000000E+01  0.51109989000E-03 0. -1.
     -623   -1    0    0    0    0  0.00000000000E+00  0.00000000000E+00  0.12525980253E-10  0.17130000000E+03  0.17130000000E+03 0.  1.
       11    1    1    2    0    0  0.23250981592E-01  0.84638228352E-02  0.29676535372E+00  0.29779553528E+00  0.51109989000E-03 0. -1.
     -623    1    1    2    0    0  0.10808172429E-01  0.10417995044E-02  0.14154764715E-02  0.17130000035E+03  0.17130000000E+03 0.  1.
      622    1    1    2    0    0 -0.34059154021E-01 -0.95056223395E-02  0.37018191371E+01  0.37022041147E+01  0.40000000000E-01 0. -1.
</event>
<event>
 5   0  0.7212170E+07  0.9118800E+02  0.7818608E-02  0.1180000E+00
       11   -1    0    0    0    0  0.00000000000E+00  0.00000000000E+00  0.39999999673E+01  0.40000000000E+01  0.51109989000E-03 0.  1.
     -623   -1    0    0    0    0  0.00000000000E+00  0.00000000000E+00  0.12525980253E-10  0.17130000000E+03  0.17130000000E+03 0.  1.
       11    1    1    2    0    0  0.28183667382E-01 -0.11003670569E-02  0.56743429091E+00  0.56813507693E+00  0.51109989000E-03 0.  1.
     -623    1    1    2    0    0 -0.12171737330E-01 -0.27559730078E-03  0.97193789732E-03  0.17130000044E+03  0.17130000000E+03 0.  1.
      622    1    1    2    0    0 -0.16011930050E-01  0.13759643577E-02  0.34315937389E+01  0.34318644880E+01  0.40000000000E-01 0.  0.
</event>
<event>
 5   0  0.7212170E+07  0.9118800E+02  0.7818608E-02  0.1180000E+00
       11   -1    0    0    0    0  0.00000000000E+00  0.00000000000E+00  0.39999999673E+01  0.40000000000E+01  0.51109989000E-03 0.  1.
     -623   -1    0    0    0    0  0.00000000000E+00  0.00000000000E+00  0.12525980253E-10  0.17130000000E+03  0.17130000000E+03 0. -1.
       11    1    1    2    0    0 -0.33416556722E-03  0.41975951229E-02  0.20639542876E-01  0.21070914187E-01  0.51109989000E-03 0.  1.
     -623    1    1    2    0    0  0.62304773049E-03 -0.90462422622E-03  0.63378076161E-03  0.17130000000E+03  0.17130000000E+03 0. -1.
      622    1    1    2    0    0 -0.28888216338E-03 -0.32929708965E-02  0.39787266445E+01  0.39789290819E+01  0.40000000000E-01 0.  1.
</event>
<event>
 5   0  0.7212170E+07  0.9118800E+02  0.7818608E-02  0.1180000E+00
       11   -1    0    0    0    0  0.00000000000E+00  0.00000000000E+00  0.39999999673E+01  0.40000000000E+01  0.51109989000E-03 0. -1.
     -623   -1    0    0    0    0  0.00000000000E+00  0.00000000000E+00  0.12525980253E-10  0.17130000000E+03  0.17130000000E+03 0.  1.
       11    1    1    2    0    0  0.46622234873E-02 -0.45028694473E-03  0.19152776283E+00  0.19158570992E+00  0.51109989000E-03 0. -1.
     -623    1    1    2    0    0  0.22230983425E-03  0.35757202828E-03  0.27111581605E-03  0.17130000000E+03  0.17130000000E+03 0.  1.
      622    1    1    2    0    0 -0.48845333216E-02  0.92714916356E-04  0.38082010898E+01  0.38084142905E+01  0.40000000000E-01 0. -1.
</event>
<event>
 5   0  0.7212170E+07  0.9118800E+02  0.7818608E-02  0.1180000E+00
       11   -1    0    0    0    0  0.00000000000E+00  0.00000000000E+00  0.39999999673E+01  0.40000000000E+01  0.51109989000E-03 0.  1.
     -623   -1    0    0    0    0  0.00000000000E+00  0.00000000000E+00  0.12525980253E-10  0.17130000000E+03  0.17130000000E+03 0.  1.
       11    1    1    2    0    0  0.11736120385E-03  0.39412528514E-02  0.30202473717E-01  0.30463057782E-01  0.51109989000E-03 0.  1.
     -623    1    1    2    0    0  0.45239897353E-03 -0.34874736687E-03  0.46375958014E-03  0.17130000000E+03  0.17130000000E+03 0.  1.
      622    1    1    2    0    0 -0.56976017743E-03 -0.35925054845E-02  0.39693337345E+01  0.39695369410E+01  0.40000000000E-01 0.  1.
</event>
<event>
 5   0  0.7212170E+07  0.9118800E+02  0.7818608E-02  0.1180000E+00
       11   -1    0    0    0    0  0.00000000000E+00  0.00000000000E+00  0.39999999673E+01  0.40000000000E+01  0.51109989000E-03 0.  1.
     -623   -1    0    0    0    0  0.00000000000E+00  0.00000000000E+00  0.12525980253E-10  0.17130000000E+03  0.17130000000E+03 0. -1.
       11    1    1    2    0    0 -0.14536410982E-02  0.14576757087E-02  0.14896803246E-01  0.15047054893E-01  0.51109989000E-03 0.  1.
     -623    1    1    2    0    0  0.18217655643E-02  0.29347819740E-02  0.35345239544E-03  0.17130000004E+03  0.17130000000E+03 0. -1.
      622    1    1    2    0    0 -0.36812446641E-03 -0.43924576834E-02  0.39847497126E+01  0.39849529108E+01  0.40000000000E-01 0.  1.
</event>
<event>
 5   0  0.7212170E+07  0.9118800E+02  0.7818608E-02  0.1180000E+00
       11   -1    0    0    0    0  0.00000000000E+00  0.00000000000E+00  0.39999999673E+01  0.40000000000E+01  0.51109989000E-03 0.  1.
     -623   -1    0    0    0    0  0.00000000000E+00  0.00000000000E+00  0.12525980253E-10  0.17130000000E+03  0.17130000000E+03 0.  1.
       11    1    1    2    0    0 -0.87328925748E-03  0.23202920212E-02  0.18352357850E-01  0.18526107279E-01  0.51109989000E-03 0.  1.
     -623    1    1    2    0    0  0.80326549644E-03  0.17932862030E-03  0.37544016695E-03  0.17130000000E+03  0.17130000000E+03 0.  1.
      622    1    1    2    0    0  0.70023761137E-04 -0.24996206414E-02  0.39812721689E+01  0.39814738898E+01  0.40000000000E-01 0.  1.
</event>
<event>
 5   0  0.7212170E+07  0.9118800E+02  0.7818608E-02  0.1180000E+00
       11   -1    0    0    0    0  0.00000000000E+00  0.00000000000E+00  0.39999999673E+01  0.40000000000E+01  0.51109989000E-03 0. -1.
     -623   -1    0    0    0    0  0.00000000000E+00  0.00000000000E+00  0.12525980253E-10  0.17130000000E+03  0.17130000000E+03 0. -1.
       11    1    1    2    0    0  0.34583625580E-02  0.30238724346E-01  0.12534738255E+01  0.12538433847E+01  0.51109989000E-03 0. -1.
     -623    1    1    2    0    0  0.15860382174E-02  0.61202321307E-02  0.90634252278E-03  0.17130000012E+03  0.17130000000E+03 0. -1.
      622    1    1    2    0    0 -0.50444007757E-02 -0.36358956478E-01  0.27456198000E+01  0.27461564969E+01  0.40000000000E-01 0. -1.
</event>
<event>
 5   0  0.7212170E+07  0.9118800E+02  0.7818608E-02  0.1180000E+00
       11   -1    0    0    0    0  0.00000000000E+00  0.00000000000E+00  0.39999999673E+01  0.40000000000E+01  0.51109989000E-03 0. -1.
     -623   -1    0    0    0    0  0.00000000000E+00  0.00000000000E+00  0.12525980253E-10  0.17130000000E+03  0.17130000000E+03 0. -1.
       11    1    1    2    0    0 -0.13145404092E-03 -0.66911092822E-02  0.14873633401E+01  0.14873784841E+01  0.51109989000E-03 0. -1.
     -623    1    1    2    0    0 -0.99776005503E-03  0.62145008578E-04  0.34252672824E-03  0.17130000000E+03  0.17130000000E+03 0. -1.
      622    1    1    2    0    0  0.11292140961E-02  0.66289642736E-02  0.25122941012E+01  0.25126215133E+01  0.40000000000E-01 0.  1.
</event>
<event>
 5   0  0.7212170E+07  0.9118800E+02  0.7818608E-02  0.1180000E+00
       11   -1    0    0    0    0  0.00000000000E+00  0.00000000000E+00  0.39999999673E+01  0.40000000000E+01  0.51109989000E-03 0. -1.
     -623   -1    0    0    0    0  0.00000000000E+00  0.00000000000E+00  0.12525980253E-10  0.17130000000E+03  0.17130000000E+03 0.  1.
       11    1    1    2    0    0  0.54763541193E-03  0.41449554776E-03  0.27417678224E-02  0.28723204893E-02  0.51109989000E-03 0. -1.
     -623    1    1    2    0    0  0.22471274787E-02  0.90169333482E-03  0.33187999017E-03  0.17130000002E+03  0.17130000000E+03 0.  1.
      622    1    1    2    0    0 -0.27947628913E-02 -0.13161888828E-02  0.39969263207E+01  0.39971276632E+01  0.40000000000E-01 0. -1.
</event>
<event>
 5   0  0.7212170E+07  0.9118800E+02  0.7818608E-02  0.1180000E+00
       11   -1    0    0    0    0  0.00000000000E+00  0.00000000000E+00  0.39999999673E+01  0.40000000000E+01  0.51109989000E-03 0. -1.
     -623   -1    0    0    0    0  0.00000000000E+00  0.00000000000E+00  0.12525980253E-10  0.17130000000E+03  0.17130000000E+03 0.  1.
       11    1    1    2    0    0 -0.96938717335E-02 -0.16005980784E-02  0.11414513395E+01  0.11414937384E+01  0.51109989000E-03 0. -1.
     -623    1    1    2    0    0 -0.35228528606E-02 -0.10169791405E-01  0.37737886538E-03  0.17130000034E+03  0.17130000000E+03 0.  1.
      622    1    1    2    0    0  0.13216724593E-01  0.11770389481E-01  0.28581712480E+01  0.28585059221E+01  0.40000000000E-01 0.  0.
</event>
<event>
 5   0  0.7212170E+07  0.9118800E+02  0.7818608E-02  0.1180000E+00
       11   -1    0    0    0    0  0.00000000000E+00  0.00000000000E+00  0.39999999673E+01  0.40000000000E+01  0.51109989000E-03 0. -1.
     -623   -1    0    0    0    0  0.00000000000E+00  0.00000000000E+00  0.12525980253E-10  0.17130000000E+03  0.17130000000E+03 0. -1.
       11    1    1    2    0    0 -0.15130640719E-01  0.20345748660E-01  0.35941640145E+01  0.35942534844E+01  0.51109989000E-03 0. -1.
     -623    1    1    2    0    0  0.63421896711E-02 -0.26270324175E-02  0.25507955439E-02  0.17130000016E+03  0.17130000000E+03 0. -1.
      622    1    1    2    0    0  0.87884510479E-02 -0.17718716243E-01  0.40328515734E+00  0.40574635908E+00  0.40000000000E-01 0.  0.
</event>
<event>
 5   0  0.7212170E+07  0.9118800E+02  0.7818608E-02  0.1180000E+00
       11   -1    0    0    0    0  0.00000000000E+00  0.00000000000E+00  0.39999999673E+01  0.40000000000E+01  0.51109989000E-03 0. -1.
     -623   -1    0    0    0    0  0.00000000000E+00  0.00000000000E+00  0.12525980253E-10  0.17130000000E+03  0.17130000000E+03 0.  1.
       11    1    1    2    0    0 -0.82676305259E-04 -0.26180188028E-02  0.72930610500E-01  0.72979421954E-01  0.51109989000E-03 0. -1.
     -623    1    1    2    0    0 -0.62436271299E-03 -0.28329555529E-03  0.25363790750E-03  0.17130000000E+03  0.17130000000E+03 0.  1.
      622    1    1    2    0    0  0.70703901822E-03  0.29013143581E-02  0.39268157188E+01  0.39270205763E+01  0.40000000000E-01 0. -1.
</event>
<event>
 5   0  0.7212170E+07  0.9118800E+02  0.7818608E-02  0.1180000E+00
       11   -1    0    0    0    0  0.00000000000E+00  0.00000000000E+00  0.39999999673E+01  0.40000000000E+01  0.51109989000E-03 0.  1.
     -623   -1    0    0    0    0  0.00000000000E+00  0.00000000000E+00  0.12525980253E-10  0.17130000000E+03  0.17130000000E+03 0. -1.
       11    1    1    2    0    0  0.97787022624E-03 -0.81679963862E-02  0.32703352706E+00  0.32713737396E+00  0.51109989000E-03 0.  1.
     -623    1    1    2    0    0 -0.68631252577E-03  0.35405834918E-02  0.32459951444E-03  0.17130000004E+03  0.17130000000E+03 0. -1.
      622    1    1    2    0    0 -0.29155770054E-03  0.46274128947E-02  0.36726418404E+01  0.36728625874E+01  0.40000000000E-01 0.  0.
</event>
<event>
 5   0  0.7212170E+07  0.9118800E+02  0.7818608E-02  0.1180000E+00
       11   -1    0    0    0    0  0.00000000000E+00  0.00000000000E+00  0.39999999673E+01  0.40000000000E+01  0.51109989000E-03 0. -1.
     -623   -1    0    0    0    0  0.00000000000E+00  0.00000000000E+00  0.12525980253E-10  0.17130000000E+03  0.17130000000E+03 0.  1.
       11    1    1    2    0    0 -0.24299162188E-01  0.11875122175E-01  0.29426790780E+00  0.29550859648E+00  0.51109989000E-03 0. -1.
     -623    1    1    2    0    0 -0.25233990242E-02 -0.47605658436E-02  0.15606526768E-02  0.17130000009E+03  0.17130000000E+03 0.  1.
      622    1    1    2    0    0  0.26822561212E-01 -0.71145563308E-02  0.37041714070E+01  0.37044913118E+01  0.40000000000E-01 0. -1.
</event>
<event>
 5   0  0.7212170E+07  0.9118800E+02  0.7818608E-02  0.1180000E+00
       11   -1    0    0    0    0  0.00000000000E+00  0.00000000000E+00  0.39999999673E+01  0.40000000000E+01  0.51109989000E-03 0. -1.
     -623   -1    0    0    0    0  0.00000000000E+00  0.00000000000E+00  0.12525980253E-10  0.17130000000E+03  0.17130000000E+03 0. -1.
       11    1    1    2    0    0 -0.82223842073E-03  0.82966388110E-03  0.13089783124E-01  0.13151732338E-01  0.51109989000E-03 0. -1.
     -623    1    1    2    0    0 -0.86313110266E-04 -0.19795565277E-02  0.26286240630E-03  0.17130000001E+03  0.17130000000E+03 0. -1.
      622    1    1    2    0    0  0.90855153099E-03  0.11498926465E-02  0.39866473218E+01  0.39868482559E+01  0.40000000000E-01 0. -1.
</event>
<event>
 5   0  0.7212170E+07  0.9118800E+02  0.7818608E-02  0.1180000E+00
       11   -1    0    0    0    0  0.00000000000E+00  0.00000000000E+00  0.39999999673E+01  0.40000000000E+01  0.51109989000E-03 0. -1.
     -623   -1    0    0    0    0  0.00000000000E+00  0.00000000000E+00  0.12525980253E-10  0.17130000000E+03  0.17130000000E+03 0. -1.
       11    1    1    2    0    0  0.14152961245E-01 -0.28666434795E-01  0.49559870377E+00  0.49662904386E+00  0.51109989000E-03 0. -1.
     -623    1    1    2    0    0 -0.38346029061E-01 -0.27697788478E-02  0.14875847099E-02  0.17130000432E+03  0.17130000000E+03 0. -1.
      622    1    1    2    0    0  0.24193067819E-01  0.31436213643E-01  0.35029136792E+01  0.35033666357E+01  0.40000000000E-01 0. -1.
</event>
<event>
 5   0  0.7212170E+07  0.9118800E+02  0.7818608E-02  0.1180000E+00
       11   -1    0    0    0    0  0.00000000000E+00  0.00000000000E+00  0.39999999673E+01  0.40000000000E+01  0.51109989000E-03 0.  1.
     -623   -1    0    0    0    0  0.00000000000E+00  0.00000000000E+00  0.12525980253E-10  0.17130000000E+03  0.17130000000E+03 0. -1.
       11    1    1    2    0    0 -0.99493203323E-03  0.25500658992E-02  0.53150565716E-01  0.53223458971E-01  0.51109989000E-03 0.  1.
     -623    1    1    2    0    0  0.23415150131E-03 -0.25731385710E-02  0.27565598405E-03  0.17130000002E+03  0.17130000000E+03 0. -1.
      622    1    1    2    0    0  0.76078053191E-03  0.23072671776E-04  0.39465737458E+01  0.39467765214E+01  0.40000000000E-01 0.  1.
</event>
<event>
 5   0  0.7212170E+07  0.9118800E+02  0.7818608E-02  0.1180000E+00
       11   -1    0    0    0    0  0.00000000000E+00  0.00000000000E+00  0.39999999673E+01  0.40000000000E+01  0.51109989000E-03 0.  1.
     -623   -1    0    0    0    0  0.00000000000E+00  0.00000000000E+00  0.12525980253E-10  0.17130000000E+03  0.17130000000E+03 0. -1.
       11    1    1    2    0    0  0.42011638772E-03  0.29037097613E-02  0.49882539588E-02  0.58096410226E-02  0.51109989000E-03 0.  1.
     -623    1    1    2    0    0  0.85097039688E-03 -0.19662361412E-03  0.10227753101E-02  0.17130000001E+03  0.17130000000E+03 0. -1.
      622    1    1    2    0    0 -0.12710867846E-02 -0.27070861472E-02  0.39939889383E+01  0.39941903539E+01  0.40000000000E-01 0.  1.
</event>
<event>
 5   0  0.7212170E+07  0.9118800E+02  0.7818608E-02  0.1180000E+00
       11   -1    0    0    0    0  0.00000000000E+00  0.00000000000E+00  0.39999999673E+01  0.40000000000E+01  0.51109989000E-03 0.  1.
     -623   -1    0    0    0    0  0.00000000000E+00  0.00000000000E+00  0.12525980253E-10  0.17130000000E+03  0.17130000000E+03 0. -1.
       11    1    1    2    0    0  0.68080142287E-03  0.23477008765E-02  0.14508920015E+00  0.14511069021E+00  0.51109989000E-03 0.  1.
     -623    1    1    2    0    0  0.28854023837E-03 -0.10160365199E-02  0.22934697678E-03  0.17130000000E+03  0.17130000000E+03 0. -1.
      622    1    1    2    0    0 -0.96934166120E-03 -0.13316643568E-02  0.38546814196E+01  0.38548893058E+01  0.40000000000E-01 0.  1.
</event>
<event>
 5   0  0.7212170E+07  0.9118800E+02  0.7818608E-02  0.1180000E+00
       11   -1    0    0    0    0  0.00000000000E+00  0.00000000000E+00  0.39999999673E+01  0.40000000000E+01  0.51109989000E-03 0.  1.
     -623   -1    0    0    0    0  0.00000000000E+00  0.00000000000E+00  0.12525980253E-10  0.17130000000E+03  0.17130000000E+03 0. -1.
       11    1    1    2    0    0  0.55576596535E-02 -0.12911288672E-01  0.62687877877E+00  0.62703656469E+00  0.51109989000E-03 0.  1.
     -623    1    1    2    0    0 -0.64039937461E-02 -0.45954791729E-02  0.44066627602E-03  0.17130000018E+03  0.17130000000E+03 0. -1.
      622    1    1    2    0    0  0.84633409286E-03  0.17506767846E-01  0.33726805225E+01  0.33729632536E+01  0.40000000000E-01 0.  1.
</event>
<event>
 5   0  0.7212170E+07  0.9118800E+02  0.7818608E-02  0.1180000E+00
       11   -1    0    0    0    0  0.00000000000E+00  0.00000000000E+00  0.39999999673E+01  0.40000000000E+01  0.51109989000E-03 0. -1.
     -623   -1    0    0    0    0  0.00000000000E+00  0.00000000000E+00  0.12525980253E-10  0.17130000000E+03  0.17130000000E+03 0. -1.
       11    1    1    2    0    0  0.39943839178E-02 -0.28374072269E-01  0.55522189637E+00  0.55596102247E+00  0.51109989000E-03 0. -1.
     -623    1    1    2    0    0  0.25313565604E-01 -0.12870528497E-03  0.12159325333E-02  0.17130000187E+03  0.17130000000E+03 0. -1.
      622    1    1    2    0    0 -0.29307949524E-01  0.28502777554E-01  0.34435621388E+01  0.34440371032E+01  0.40000000000E-01 0. -1.
</event>
<event>
 5   0  0.7212170E+07  0.9118800E+02  0.7818608E-02  0.1180000E+00
       11   -1    0    0    0    0  0.00000000000E+00  0.00000000000E+00  0.39999999673E+01  0.40000000000E+01  0.51109989000E-03 0.  1.
     -623   -1    0    0    0    0  0.00000000000E+00  0.00000000000E+00  0.12525980253E-10  0.17130000000E+03  0.17130000000E+03 0. -1.
       11    1    1    2    0    0  0.33135661219E-02 -0.25929095743E-04  0.76230611464E-02  0.83278254726E-02  0.51109989000E-03 0.  1.
     -623    1    1    2    0    0 -0.76898821554E-03  0.68994303951E-03  0.90602581034E-03  0.17130000001E+03  0.17130000000E+03 0. -1.
      622    1    1    2    0    0 -0.25445779062E-02 -0.66401394386E-03  0.39914708809E+01  0.39916721696E+01  0.40000000000E-01 0.  1.
</event>
<event>
 5   0  0.7212170E+07  0.9118800E+02  0.7818608E-02  0.1180000E+00
       11   -1    0    0    0    0  0.00000000000E+00  0.00000000000E+00  0.39999999673E+01  0.40000000000E+01  0.51109989000E-03 0.  1.
     -623   -1    0    0    0    0  0.00000000000E+00  0.00000000000E+00  0.12525980253E-10  0.17130000000E+03  0.17130000000E+03 0. -1.
       11    1    1    2    0    0 -0.20496904502E-02  0.10955208694E-02  0.75018505321E-01  0.75056237320E-01  0.51109989000E-03 0.  1.
     -623    1    1    2    0    0  0.59711334009E-03 -0.73480358519E-03  0.24181739704E-03  0.17130000000E+03  0.17130000000E+03 0. -1.
      622    1    1    2    0    0  0.14525771102E-02 -0.36071728435E-03  0.39247396439E+01  0.39249437591E+01  0.40000000000E-01 0.  1.
</event>
<event>
 5   0  0.7212170E+07  0.9118800E+02  0.7818608E-02  0.1180000E+00
       11   -1    0    0    0    0  0.00000000000E+00  0.00000000000E+00  0.39999999673E+01  0.40000000000E+01  0.51109989000E-03 0. -1.
     -623   -1    0    0    0    0  0.00000000000E+00  0.00000000000E+00  0.12525980253E-10  0.17130000000E+03  0.17130000000E+03 0.  1.
       11    1    1    2    0    0  0.55772308897E-02  0.39368360064E-02  0.10884652524E+01  0.10884867804E+01  0.51109989000E-03 0. -1.
     -623    1    1    2    0    0  0.50703563962E-02 -0.15200615406E-01  0.33829114976E-03  0.17130000075E+03  0.17130000000E+03 0.  1.
      622    1    1    2    0    0 -0.10647587286E-01  0.11263779399E-01  0.29111964237E+01  0.29115124697E+01  0.40000000000E-01 0. -1.
</event>
<event>
 5   0  0.7212170E+07  0.9118800E+02  0.7818608E-02  0.1180000E+00
       11   -1    0    0    0    0  0.00000000000E+00  0.00000000000E+00  0.39999999673E+01  0.40000000000E+01  0.51109989000E-03 0.  1.
     -623   -1    0    0    0    0  0.00000000000E+00  0.00000000000E+00  0.12525980253E-10  0.17130000000E+03  0.17130000000E+03 0.  1.
       11    1    1    2    0    0 -0.16495362100E-02  0.21266277501E-02  0.77010747576E-02  0.81738173955E-02  0.51109989000E-03 0.  1.
     -623    1    1    2    0    0  0.14805045436E-02 -0.45943407058E-03  0.67348464449E-03  0.17130000001E+03  0.17130000000E+03 0.  1.
      622    1    1    2    0    0  0.16903166631E-03 -0.16671936795E-02  0.39916254084E+01  0.39918261747E+01  0.40000000000E-01 0.  0.
</event>
<event>
 5   0  0.7212170E+07  0.9118800E+02  0.7818608E-02  0.1180000E+00
       11   -1    0    0    0    0  0.00000000000E+00  0.00000000000E+00  0.39999999673E+01  0.40000000000E+01  0.51109989000E-03 0. -1.
     -623   -1    0    0    0    0  0.00000000000E+00  0.00000000000E+00  0.12525980253E-10  0.17130000000E+03  0.17130000000E+03 0. -1.
       11    1    1    2    0    0 -0.11988192118E-02 -0.29385778252E-02  0.98577395324E+00  0.98577919461E+00  0.51109989000E-03 0. -1.
     -623    1    1    2    0    0 -0.50850384921E-03  0.34125335780E-02  0.27118477517E-03  0.17130000003E+03  0.17130000000E+03 0. -1.
      622    1    1    2    0    0  0.17073230610E-02 -0.47395575284E-03  0.30139548294E+01  0.30142207705E+01  0.40000000000E-01 0. -1.
</event>
<event>
 5   0  0.7212170E+07  0.9118800E+02  0.7818608E-02  0.1180000E+00
       11   -1    0    0    0    0  0.00000000000E+00  0.00000000000E+00  0.39999999673E+01  0.40000000000E+01  0.51109989000E-03 0. -1.
     -623   -1    0    0    0    0  0.00000000000E+00  0.00000000000E+00  0.12525980253E-10  0.17130000000E+03  0.17130000000E+03 0. -1.
       11    1    1    2    0    0 -0.22774163615E-02  0.66283053317E-02  0.20901648860E+00  0.20913458534E+00  0.51109989000E-03 0. -1.
     -623    1    1    2    0    0  0.69203545297E-04 -0.15945749441E-02  0.33309675879E-03  0.17130000001E+03  0.17130000000E+03 0. -1.
      622    1    1    2    0    0  0.22082128162E-02 -0.50337303880E-02  0.37906503812E+01  0.37908654061E+01  0.40000000000E-01 0. -1.
</event>
<event>
 5   0  0.7212170E+07  0.9118800E+02  0.7818608E-02  0.1180000E+00
       11   -1    0    0    0    0  0.00000000000E+00  0.00000000000E+00  0.39999999673E+01  0.40000000000E+01  0.51109989000E-03 0. -1.
     -623   -1    0    0    0    0  0.00000000000E+00  0.00000000000E+00  0.12525980253E-10  0.17130000000E+03  0.17130000000E+03 0. -1.
       11    1    1    2    0    0  0.11104378747E-01  0.50265043848E-02  0.27217440859E+00  0.27244768835E+00  0.51109989000E-03 0. -1.
     -623    1    1    2    0    0  0.10207834485E-01 -0.11611530544E-01  0.55531701981E-03  0.17130000070E+03  0.17130000000E+03 0. -1.
      622    1    1    2    0    0 -0.21312213233E-01  0.65850261612E-02  0.37272702423E+01  0.37275516136E+01  0.40000000000E-01 0. -1.
</event>
<event>
 5   0  0.7212170E+07  0.9118800E+02  0.7818608E-02  0.1180000E+00
       11   -1    0    0    0    0  0.00000000000E+00  0.00000000000E+00  0.39999999673E+01  0.40000000000E+01  0.51109989000E-03 0. -1.
     -623   -1    0    0    0    0  0.00000000000E+00  0.00000000000E+00  0.12525980253E-10  0.17130000000E+03  0.17130000000E+03 0. -1.
       11    1    1    2    0    0 -0.87913288075E-02  0.11984503269E-01  0.18277989082E+00  0.18338392921E+00  0.51109989000E-03 0. -1.
     -623    1    1    2    0    0  0.42951144168E-03  0.20682141678E-02  0.84866936507E-03  0.17130000002E+03  0.17130000000E+03 0. -1.
      622    1    1    2    0    0  0.83618173659E-02 -0.14052717437E-01  0.38163714068E+01  0.38166160552E+01  0.40000000000E-01 0. -1.
</event>
<event>
 5   0  0.7212170E+07  0.9118800E+02  0.7818608E-02  0.1180000E+00
       11   -1    0    0    0    0  0.00000000000E+00  0.00000000000E+00  0.39999999673E+01  0.40000000000E+01  0.51109989000E-03 0.  1.
     -623   -1    0    0    0    0  0.00000000000E+00  0.00000000000E+00  0.12525980253E-10  0.17130000000E+03  0.17130000000E+03 0.  1.
       11    1    1    2    0    0  0.10919618923E-01 -0.10318540233E-03  0.22145975997E+01  0.22146245818E+01  0.51109989000E-03 0.  1.
     -623    1    1    2    0    0 -0.70700901277E-02 -0.43266477325E-02  0.48494018830E-03  0.17130000020E+03  0.17130000000E+03 0.  1.
      622    1    1    2    0    0 -0.38495287955E-02  0.44298331346E-02  0.17849174273E+01  0.17853752168E+01  0.40000000000E-01 0.  1.
</event>
<event>
 5   0  0.7212170E+07  0.9118800E+02  0.7818608E-02  0.1180000E+00
       11   -1    0    0    0    0  0.00000000000E+00  0.00000000000E+00  0.39999999673E+01  0.40000000000E+01  0.51109989000E-03 0.  1.
     -623   -1    0    0    0    0  0.00000000000E+00  0.00000000000E+00  0.12525980253E-10  0.17130000000E+03  0.17130000000E+03 0. -1.
       11    1    1    2    0    0  0.10631193941E-01 -0.24135735680E-02  0.10538943079E+01  0.10539508153E+01  0.51109989000E-03 0.  1.
     -623    1    1    2    0    0 -0.63604063938E-02 -0.30024094008E-02  0.33625683270E-03  0.17130000014E+03  0.17130000000E+03 0. -1.
      622    1    1    2    0    0 -0.42707875480E-02  0.54159829685E-02  0.29457694022E+01  0.29460490396E+01  0.40000000000E-01 0.  1.
</event>
<event>
 5   0  0.7212170E+07  0.9118800E+02  0.7818608E-02  0.1180000E+00
       11   -1    0    0    0    0  0.00000000000E+00  0.00000000000E+00  0.39999999673E+01  0.40000000000E+01  0.51109989000E-03 0. -1.
     -623   -1    0    0    0    0  0.00000000000E+00  0.00000000000E+00  0.12525980253E-10  0.17130000000E+03  0.17130000000E+03 0. -1.
       11    1    1    2    0    0 -0.27102261813E-03 -0.20039185751E-02  0.84472553250E+00  0.84472810752E+00  0.51109989000E-03 0. -1.
     -623    1    1    2    0    0  0.22462027655E-03 -0.19730371868E-02  0.25861503923E-03  0.17130000001E+03  0.17130000000E+03 0. -1.
      622    1    1    2    0    0  0.46402341570E-04  0.39769557620E-02  0.31550158201E+01  0.31552718811E+01  0.40000000000E-01 0. -1.
</event>
<event>
 5   0  0.7212170E+07  0.9118800E+02  0.7818608E-02  0.1180000E+00
       11   -1    0    0    0    0  0.00000000000E+00  0.00000000000E+00  0.39999999673E+01  0.40000000000E+01  0.51109989000E-03 0. -1.
     -623   -1    0    0    0    0  0.00000000000E+00  0.00000000000E+00  0.12525980253E-10  0.17130000000E+03  0.17130000000E+03 0.  1.
       11    1    1    2    0    0 -0.27372107564E-02 -0.26447581890E-03  0.16670750743E-01  0.16903769510E-01  0.51109989000E-03 0. -1.
     -623    1    1    2    0    0  0.23869787355E-02 -0.10413257901E-02  0.43408976604E-03  0.17130000002E+03  0.17130000000E+03 0.  1.
      622    1    1    2    0    0  0.35023202091E-03  0.13058016090E-02  0.39828951268E+01  0.39830962101E+01  0.40000000000E-01 0. -1.
</event>
<event>
 5   0  0.7212170E+07  0.9118800E+02  0.7818608E-02  0.1180000E+00
       11   -1    0    0    0    0  0.00000000000E+00  0.00000000000E+00  0.39999999673E+01  0.40000000000E+01  0.51109989000E-03 0. -1.
     -623   -1    0    0    0    0  0.00000000000E+00  0.00000000000E+00  0.12525980253E-10  0.17130000000E+03  0.17130000000E+03 0. -1.
       11    1    1    2    0    0 -0.11895424335E-01 -0.46386841900E-02  0.53889135551E+00  0.53904283019E+00  0.51109989000E-03 0. -1.
     -623    1    1    2    0    0 -0.21147186105E-02  0.94301751542E-03  0.41294804965E-03  0.17130000002E+03  0.17130000000E+03 0. -1.
      622    1    1    2    0    0  0.14010142945E-01  0.36956666747E-02  0.34606956632E+01  0.34609571531E+01  0.40000000000E-01 0. -1.
</event>
<event>
 5   0  0.7212170E+07  0.9118800E+02  0.7818608E-02  0.1180000E+00
       11   -1    0    0    0    0  0.00000000000E+00  0.00000000000E+00  0.39999999673E+01  0.40000000000E+01  0.51109989000E-03 0.  1.
     -623   -1    0    0    0    0  0.00000000000E+00  0.00000000000E+00  0.12525980253E-10  0.17130000000E+03  0.17130000000E+03 0.  1.
       11    1    1    2    0    0  0.15291483029E-02  0.25770834441E-01  0.17728954232E+00  0.17916003249E+00  0.51109989000E-03 0.  1.
     -623    1    1    2    0    0 -0.94328706225E-02 -0.12978734041E-01  0.21101960890E-02  0.17130000076E+03  0.17130000000E+03 0.  1.
      622    1    1    2    0    0  0.79037223199E-02 -0.12792100399E-01  0.38206002290E+01  0.38208392032E+01  0.40000000000E-01 0.  1.
</event>
<event>
 5   0  0.7212170E+07  0.9118800E+02  0.7818608E-02  0.1180000E+00
       11   -1    0    0    0    0  0.00000000000E+00  0.00000000000E+00  0.39999999673E+01  0.40000000000E+01  0.51109989000E-03 0. -1.
     -623   -1    0    0    0    0  0.00000000000E+00  0.00000000000E+00  0.12525980253E-10  0.17130000000E+03  0.17130000000E+03 0.  1.
       11    1    1    2    0    0  0.44923585398E-03 -0.67629817897E-02  0.42679192192E-01  0.43217061501E-01  0.51109989000E-03 0. -1.
     -623    1    1    2    0    0  0.52355201802E-02 -0.38019368186E-03  0.75064038100E-03  0.17130000008E+03  0.17130000000E+03 0.  1.
      622    1    1    2    0    0 -0.56847560343E-02  0.71431754715E-02  0.39565701349E+01  0.39567828566E+01  0.40000000000E-01 0. -1.
</event>
<event>
 5   0  0.7212170E+07  0.9118800E+02  0.7818608E-02  0.1180000E+00
       11   -1    0    0    0    0  0.00000000000E+00  0.00000000000E+00  0.39999999673E+01  0.40000000000E+01  0.51109989000E-03 0.  1.
     -623   -1    0    0    0    0  0.00000000000E+00  0.00000000000E+00  0.12525980253E-10  0.17130000000E+03  0.17130000000E+03 0. -1.
       11    1    1    2    0    0 -0.24499561912E-02 -0.12138017231E-02  0.10726671511E-01  0.11081439652E-01  0.51109989000E-03 0.  1.
     -623    1    1    2    0    0  0.38631608794E-02  0.17745327595E-02  0.55563957375E-03  0.17130000005E+03  0.17130000000E+03 0. -1.
      622    1    1    2    0    0 -0.14132046880E-02 -0.56073103633E-03  0.39887176561E+01  0.39889185065E+01  0.40000000000E-01 0.  1.
</event>
<event>
 5   0  0.7212170E+07  0.9118800E+02  0.7818608E-02  0.1180000E+00
       11   -1    0    0    0    0  0.00000000000E+00  0.00000000000E+00  0.39999999673E+01  0.40000000000E+01  0.51109989000E-03 0.  1.
     -623   -1    0    0    0    0  0.00000000000E+00  0.00000000000E+00  0.12525980253E-10  0.17130000000E+03  0.17130000000E+03 0.  1.
       11    1    1    2    0    0  0.40937997482E-03 -0.20469235725E-03  0.31684781962E-02  0.32419080959E-02  0.51109989000E-03 0.  1.
     -623    1    1    2    0    0 -0.63024092697E-03  0.59613361500E-03  0.27359218659E-03  0.17130000000E+03  0.17130000000E+03 0.  1.
      622    1    1    2    0    0  0.22086095223E-03 -0.39144125782E-03  0.39965578975E+01  0.39967580900E+01  0.40000000000E-01 0.  1.
</event>
<event>
 5   0  0.7212170E+07  0.9118800E+02  0.7818608E-02  0.1180000E+00
       11   -1    0    0    0    0  0.00000000000E+00  0.00000000000E+00  0.39999999673E+01  0.40000000000E+01  0.51109989000E-03 0. -1.
     -623   -1    0    0    0    0  0.00000000000E+00  0.00000000000E+00  0.12525980253E-10  0.17130000000E+03  0.17130000000E+03 0.  1.
       11    1    1    2    0    0 -0.10246334333E-02 -0.65087545830E-02  0.30603988337E-01  0.31309408891E-01  0.51109989000E-03 0. -1.
     -623    1    1    2    0    0  0.24314740203E-02  0.11214728739E-01  0.91039727546E-03  0.17130000039E+03  0.17130000000E+03 0.  1.
      622    1    1    2    0    0 -0.14068405872E-02 -0.47059741571E-02  0.39684855820E+01  0.39686902046E+01  0.40000000000E-01 0. -1.
</event>
<event>
 5   0  0.7212170E+07  0.9118800E+02  0.7818608E-02  0.1180000E+00
       11   -1    0    0    0    0  0.00000000000E+00  0.00000000000E+00  0.39999999673E+01  0.40000000000E+01  0.51109989000E-03 0. -1.
     -623   -1    0    0    0    0  0.00000000000E+00  0.00000000000E+00  0.12525980253E-10  0.17130000000E+03  0.17130000000E+03 0.  1.
       11    1    1    2    0    0 -0.15354146636E-02  0.75009078097E-03  0.98841630760E-01  0.98857722656E-01  0.51109989000E-03 0. -1.
     -623    1    1    2    0    0 -0.88508835315E-03 -0.72936760852E-03  0.22188777901E-03  0.17130000000E+03  0.17130000000E+03 0.  1.
      622    1    1    2    0    0  0.24205030170E-02 -0.20723172245E-04  0.39009364500E+01  0.39011422745E+01  0.40000000000E-01 0. -1.
</event>
<event>
 5   0  0.7212170E+07  0.9118800E+02  0.7818608E-02  0.1180000E+00
       11   -1    0    0    0    0  0.00000000000E+00  0.00000000000E+00  0.39999999673E+01  0.40000000000E+01  0.51109989000E-03 0.  1.
     -623   -1    0    0    0    0  0.00000000000E+00  0.00000000000E+00  0.12525980253E-10  0.17130000000E+03  0.17130000000E+03 0. -1.
       11    1    1    2    0    0 -0.76856339681E-02 -0.22814458528E-02  0.38722142890E-01  0.39546675433E-01  0.51109989000E-03 0.  1.
     -623    1    1    2    0    0  0.80726126616E-02  0.49044517895E-03  0.10271200285E-02  0.17130000019E+03  0.17130000000E+03 0. -1.
      622    1    1    2    0    0 -0.38697869365E-03  0.17910006738E-02  0.39602507045E+01  0.39604531307E+01  0.40000000000E-01 0.  1.
</event>
<event>
 5   0  0.7212170E+07  0.9118800E+02  0.7818608E-02  0.1180000E+00
       11   -1    0    0    0    0  0.00000000000E+00  0.00000000000E+00  0.39999999673E+01  0.40000000000E+01  0.51109989000E-03 0.  1.
     -623   -1    0    0    0    0  0.00000000000E+00  0.00000000000E+00  0.12525980253E-10  0.17130000000E+03  0.17130000000E+03 0.  1.
       11    1    1    2    0    0 -0.17340414113E-02 -0.54322190520E-02  0.10319925250E+00  0.10335793556E+00  0.51109989000E-03 0.  1.
     -623    1    1    2    0    0 -0.62403734158E-02  0.96591391178E-02  0.37480014329E-03  0.17130000039E+03  0.17130000000E+03 0.  1.
      622    1    1    2    0    0  0.79744148290E-02 -0.42269200687E-02  0.38964259159E+01  0.38966416792E+01  0.40000000000E-01 0.  1.
</event>
<event>
 5   0  0.7212170E+07  0.9118800E+02  0.7818608E-02  0.1180000E+00
       11   -1    0    0    0    0  0.00000000000E+00  0.00000000000E+00  0.39999999673E+01  0.40000000000E+01  0.51109989000E-03 0.  1.
     -623   -1    0    0    0    0  0.00000000000E+00  0.00000000000E+00  0.12525980253E-10  0.17130000000E+03  0.17130000000E+03 0.  1.
       11    1    1    2    0    0 -0.24965842637E-01  0.40054304058E-01  0.63861281216E+00  0.64035476546E+00  0.51109989000E-03 0.  1.
     -623    1    1    2    0    0 -0.16404061338E-01  0.25084450928E-03  0.24774022053E-02  0.17130000080E+03  0.17130000000E+03 0.  1.
      622    1    1    2    0    0  0.41369903976E-01 -0.40305148568E-01  0.33589097531E+01  0.33596444311E+01  0.40000000000E-01 0.  1.
</event>
<event>
 5   0  0.7212170E+07  0.9118800E+02  0.7818608E-02  0.1180000E+00
       11   -1    0    0    0    0  0.00000000000E+00  0.00000000000E+00  0.39999999673E+01  0.40000000000E+01  0.51109989000E-03 0.  1.
     -623   -1    0    0    0    0  0.00000000000E+00  0.00000000000E+00  0.12525980253E-10  0.17130000000E+03  0.17130000000E+03 0.  1.
       11    1    1    2    0    0  0.67830519676E-03 -0.11081800509E-04  0.11671908533E-01  0.11702772862E-01  0.51109989000E-03 0.  1.
     -623    1    1    2    0    0 -0.42871631928E-03 -0.90482267950E-04  0.23143340829E-03  0.17130000000E+03  0.17130000000E+03 0.  1.
      622    1    1    2    0    0 -0.24958887737E-03  0.10156406848E-03  0.39880966264E+01  0.39882972274E+01  0.40000000000E-01 0.  1.
</event>
<event>
 5   0  0.7212170E+07  0.9118800E+02  0.7818608E-02  0.1180000E+00
       11   -1    0    0    0    0  0.00000000000E+00  0.00000000000E+00  0.39999999673E+01  0.40000000000E+01  0.51109989000E-03 0.  1.
     -623   -1    0    0    0    0  0.00000000000E+00  0.00000000000E+00  0.12525980253E-10  0.17130000000E+03  0.17130000000E+03 0. -1.
       11    1    1    2    0    0 -0.58190129212E-02  0.13139877652E-01  0.31099155690E+01  0.31099488138E+01  0.51109989000E-03 0.  1.
     -623    1    1    2    0    0 -0.16705931736E-02  0.29533937902E-02  0.11097304733E-02  0.17130000004E+03  0.17130000000E+03 0. -1.
      622    1    1    2    0    0  0.74896060949E-02 -0.16093271443E-01  0.88897466805E+00  0.89005114910E+00  0.40000000000E-01 0. -1.
</event>
<event>
 5   0  0.7212170E+07  0.9118800E+02  0.7818608E-02  0.1180000E+00
       11   -1    0    0    0    0  0.00000000000E+00  0.00000000000E+00  0.39999999673E+01  0.40000000000E+01  0.51109989000E-03 0. -1.
     -623   -1    0    0    0    0  0.00000000000E+00  0.00000000000E+00  0.12525980253E-10  0.17130000000E+03  0.17130000000E+03 0. -1.
       11    1    1    2    0    0  0.44399608827E-01 -0.72432513181E-02  0.48330210867E+00  0.48539157329E+00  0.51109989000E-03 0. -1.
     -623    1    1    2    0    0  0.68166458619E-02  0.10638777099E-02  0.26958697905E-02  0.17130000016E+03  0.17130000000E+03 0. -1.
      622    1    1    2    0    0 -0.51216254689E-01  0.61793736082E-02  0.35140019890E+01  0.35146082667E+01  0.40000000000E-01 0. -1.
</event>
<event>
 5   0  0.7212170E+07  0.9118800E+02  0.7818608E-02  0.1180000E+00
       11   -1    0    0    0    0  0.00000000000E+00  0.00000000000E+00  0.39999999673E+01  0.40000000000E+01  0.51109989000E-03 0. -1.
     -623   -1    0    0    0    0  0.00000000000E+00  0.00000000000E+00  0.12525980253E-10  0.17130000000E+03  0.17130000000E+03 0.  1.
       11    1    1    2    0    0  0.27590054685E-01 -0.11990942612E-01  0.26846733536E+01  0.26848419452E+01  0.51109989000E-03 0. -1.
     -623    1    1    2    0    0 -0.30384856280E-01  0.31798270546E-02  0.81221991487E-03  0.17130000273E+03  0.17130000000E+03 0.  1.
      622    1    1    2    0    0  0.27948015978E-02  0.88111155571E-02  0.13145143942E+01  0.13151553289E+01  0.40000000000E-01 0. -1.
</event>
<event>
 5   0  0.7212170E+07  0.9118800E+02  0.7818608E-02  0.1180000E+00
       11   -1    0    0    0    0  0.00000000000E+00  0.00000000000E+00  0.39999999673E+01  0.40000000000E+01  0.51109989000E-03 0. -1.
     -623   -1    0    0    0    0  0.00000000000E+00  0.00000000000E+00  0.12525980253E-10  0.17130000000E+03  0.17130000000E+03 0. -1.
       11    1    1    2    0    0  0.34343930599E-01 -0.63424890010E-01  0.51403163477E+00  0.51906743782E+00  0.51109989000E-03 0. -1.
     -623    1    1    2    0    0 -0.39954943651E-01  0.29717532219E-01  0.54406648641E-02  0.17130000732E+03  0.17130000000E+03 0. -1.
      622    1    1    2    0    0  0.56110130524E-02  0.33707357791E-01  0.34805276678E+01  0.34809252384E+01  0.40000000000E-01 0. -1.
</event>
<event>
 5   0  0.7212170E+07  0.9118800E+02  0.7818608E-02  0.1180000E+00
       11   -1    0    0    0    0  0.00000000000E+00  0.00000000000E+00  0.39999999673E+01  0.40000000000E+01  0.51109989000E-03 0.  1.
     -623   -1    0    0    0    0  0.00000000000E+00  0.00000000000E+00  0.12525980253E-10  0.17130000000E+03  0.17130000000E+03 0.  1.
       11    1    1    2    0    0 -0.53738400072E-02 -0.69409674533E-03  0.28789521761E+00  0.28794665734E+00  0.51109989000E-03 0.  1.
     -623    1    1    2    0    0 -0.94337665769E-03 -0.67130503208E-03  0.27255842505E-03  0.17130000000E+03  0.17130000000E+03 0.  1.
      622    1    1    2    0    0  0.63172166653E-02  0.13654017777E-02  0.37118321928E+01  0.37120533400E+01  0.40000000000E-01 0.  1.
</event>
<event>
 5   0  0.7212170E+07  0.9118800E+02  0.7818608E-02  0.1180000E+00
       11   -1    0    0    0    0  0.00000000000E+00  0.00000000000E+00  0.39999999673E+01  0.40000000000E+01  0.51109989000E-03 0. -1.
     -623   -1    0    0    0    0  0.00000000000E+00  0.00000000000E+00  0.12525980253E-10  0.17130000000E+03  0.17130000000E+03 0. -1.
       11    1    1    2    0    0  0.12556472696E-01  0.41687862425E-02  0.55765079236E+00  0.55780795193E+00  0.51109989000E-03 0. -1.
     -623    1    1    2    0    0 -0.38091080697E-02 -0.24986864553E-02  0.40112629595E-03  0.17130000006E+03  0.17130000000E+03 0. -1.
      622    1    1    2    0    0 -0.87473646253E-02 -0.16700997868E-02  0.34419480492E+01  0.34421919876E+01  0.40000000000E-01 0. -1.
</event>
<event>
 5   0  0.7212170E+07  0.9118800E+02  0.7818608E-02  0.1180000E+00
       11   -1    0    0    0    0  0.00000000000E+00  0.00000000000E+00  0.39999999673E+01  0.40000000000E+01  0.51109989000E-03 0.  1.
     -623   -1    0    0    0    0  0.00000000000E+00  0.00000000000E+00  0.12525980253E-10  0.17130000000E+03  0.17130000000E+03 0. -1.
       11    1    1    2    0    0  0.11708324916E-01 -0.76137162167E-02  0.29720785915E+00  0.29753626050E+00  0.51109989000E-03 0.  1.
     -623    1    1    2    0    0 -0.14916605614E-02  0.10351007056E-02  0.56439968282E-03  0.17130000001E+03  0.17130000000E+03 0. -1.
      622    1    1    2    0    0 -0.10216664355E-01  0.65786155112E-02  0.37022277080E+01  0.37024637285E+01  0.40000000000E-01 0.  0.
</event>
<event>
 5   0  0.7212170E+07  0.9118800E+02  0.7818608E-02  0.1180000E+00
       11   -1    0    0    0    0  0.00000000000E+00  0.00000000000E+00  0.39999999673E+01  0.40000000000E+01  0.51109989000E-03 0.  1.
     -623   -1    0    0    0    0  0.00000000000E+00  0.00000000000E+00  0.12525980253E-10  0.17130000000E+03  0.17130000000E+03 0.  1.
       11    1    1    2    0    0 -0.56652524947E-01  0.11281700480E-01  0.34850900417E+00  0.35326416824E+00  0.51109989000E-03 0.  1.
     -623    1    1    2    0    0  0.26314656924E-01 -0.32945716925E-02  0.51115921717E-02  0.17130000213E+03  0.17130000000E+03 0.  1.
      622    1    1    2    0    0  0.30337868022E-01 -0.79871287870E-02  0.36463793711E+01  0.36467337027E+01  0.40000000000E-01 0.  1.
</event>
<event>
 5   0  0.7212170E+07  0.9118800E+02  0.7818608E-02  0.1180000E+00
       11   -1    0    0    0    0  0.00000000000E+00  0.00000000000E+00  0.39999999673E+01  0.40000000000E+01  0.51109989000E-03 0. -1.
     -623   -1    0    0    0    0  0.00000000000E+00  0.00000000000E+00  0.12525980253E-10  0.17130000000E+03  0.17130000000E+03 0.  1.
       11    1    1    2    0    0  0.23406204090E-02 -0.87102187856E-02  0.44373008142E+00  0.44382202829E+00  0.51109989000E-03 0. -1.
     -623    1    1    2    0    0 -0.89707335599E-02  0.17208495739E-01  0.33431752475E-03  0.17130000110E+03  0.17130000000E+03 0.  1.
      622    1    1    2    0    0  0.66301131516E-02 -0.84982769552E-02  0.35559355687E+01  0.35561768724E+01  0.40000000000E-01 0. -1.
</event>
<event>
 5   0  0.7212170E+07  0.9118800E+02  0.7818608E-02  0.1180000E+00
       11   -1    0    0    0    0  0.00000000000E+00  0.00000000000E+00  0.39999999673E+01  0.40000000000E+01  0.51109989000E-03 0.  1.
     -623   -1    0    0    0    0  0.00000000000E+00  0.00000000000E+00  0.12525980253E-10  0.17130000000E+03  0.17130000000E+03 0. -1.
       11    1    1    2    0    0 -0.27747348817E-03 -0.11217493712E-03  0.85755183994E-02  0.85959475143E-02  0.51109989000E-03 0.  1.
     -623    1    1    2    0    0  0.14377196404E-03  0.12851588601E-03  0.22083475410E-03  0.17130000000E+03  0.17130000000E+03 0. -1.
      622    1    1    2    0    0  0.13370152408E-03 -0.16340948920E-04  0.39912036154E+01  0.39914040534E+01  0.40000000000E-01 0.  1.
</event>
<event>
 5   0  0.7212170E+07  0.9118800E+02  0.7818608E-02  0.1180000E+00
       11   -1    0    0    0    0  0.00000000000E+00  0.00000000000E+00  0.39999999673E+01  0.40000000000E+01  0.51109989000E-03 0. -1.
     -623   -1    0    0    0    0  0.00000000000E+00  0.00000000000E+00  0.12525980253E-10  0.17130000000E+03  0.17130000000E+03 0. -1.
       11    1    1    2    0    0  0.17616239933E-02 -0.24883569589E-02  0.24448260785E-01  0.24642928356E-01  0.51109989000E-03 0. -1.
     -623    1    1    2    0    0 -0.14914648027E-02 -0.56130158695E-03  0.39706668057E-03  0.17130000001E+03  0.17130000000E+03 0. -1.
      622    1    1    2    0    0 -0.27015919052E-03  0.30496585459E-02  0.39751546399E+01  0.39753570638E+01  0.40000000000E-01 0. -1.
</event>
<event>
 5   0  0.7212170E+07  0.9118800E+02  0.7818608E-02  0.1180000E+00
       11   -1    0    0    0    0  0.00000000000E+00  0.00000000000E+00  0.39999999673E+01  0.40000000000E+01  0.51109989000E-03 0.  1.
     -623   -1    0    0    0    0  0.00000000000E+00  0.00000000000E+00  0.12525980253E-10  0.17130000000E+03  0.17130000000E+03 0. -1.
       11    1    1    2    0    0 -0.43851039279E-04 -0.80176752405E-03  0.45281677511E-02  0.46271244154E-02  0.51109989000E-03 0. -1.
     -623    1    1    2    0    0  0.40485940059E-03 -0.90256416839E-04  0.29927732374E-03  0.17130000000E+03  0.17130000000E+03 0. -1.
      622    1    1    2    0    0 -0.36100836136E-03  0.89202394090E-03  0.39951725227E+01  0.39953728753E+01  0.40000000000E-01 0.  1.
</event>
<event>
 5   0  0.7212170E+07  0.9118800E+02  0.7818608E-02  0.1180000E+00
       11   -1    0    0    0    0  0.00000000000E+00  0.00000000000E+00  0.39999999673E+01  0.40000000000E+01  0.51109989000E-03 0. -1.
     -623   -1    0    0    0    0  0.00000000000E+00  0.00000000000E+00  0.12525980253E-10  0.17130000000E+03  0.17130000000E+03 0. -1.
       11    1    1    2    0    0 -0.12666091262E-01  0.10055347162E-01  0.32125680486E+00  0.32166401068E+00  0.51109989000E-03 0. -1.
     -623    1    1    2    0    0  0.11739262285E-01  0.65171693300E-03  0.64077499723E-03  0.17130000040E+03  0.17130000000E+03 0. -1.
      622    1    1    2    0    0  0.92682897508E-03 -0.10707064095E-01  0.36781023881E+01  0.36783355852E+01  0.40000000000E-01 0. -1.
</event>
<event>
 5   0  0.7212170E+07  0.9118800E+02  0.7818608E-02  0.1180000E+00
       11   -1    0    0    0    0  0.00000000000E+00  0.00000000000E+00  0.39999999673E+01  0.40000000000E+01  0.51109989000E-03 0. -1.
     -623   -1    0    0    0    0  0.00000000000E+00  0.00000000000E+00  0.12525980253E-10  0.17130000000E+03  0.17130000000E+03 0.  1.
       11    1    1    2    0    0  0.92081009505E-03 -0.35017951124E-01  0.12054620461E+01  0.12059710239E+01  0.51109989000E-03 0. -1.
     -623    1    1    2    0    0  0.18619613207E-01  0.54396068748E-01  0.94048283584E-03  0.17130000965E+03  0.17130000000E+03 0.  1.
      622    1    1    2    0    0 -0.19540423305E-01 -0.19378117634E-01  0.27935974392E+01  0.27940193257E+01  0.40000000000E-01 0. -1.
</event>
<event>
 5   0  0.7212170E+07  0.9118800E+02  0.7818608E-02  0.1180000E+00
       11   -1    0    0    0    0  0.00000000000E+00  0.00000000000E+00  0.39999999673E+01  0.40000000000E+01  0.51109989000E-03 0.  1.
     -623   -1    0    0    0    0  0.00000000000E+00  0.00000000000E+00  0.12525980253E-10  0.17130000000E+03  0.17130000000E+03 0. -1.
       11    1    1    2    0    0  0.36062273774E-03  0.71583653835E-03  0.11599872903E-01  0.11638760466E-01  0.51109989000E-03 0.  1.
     -623    1    1    2    0    0  0.40225934347E-03  0.34646411961E-03  0.23965903678E-03  0.17130000000E+03  0.17130000000E+03 0. -1.
      622    1    1    2    0    0 -0.76288208121E-03 -0.10623006580E-02  0.39881604353E+01  0.39883612385E+01  0.40000000000E-01 0.  1.
</event>
<event>
 5   0  0.7212170E+07  0.9118800E+02  0.7818608E-02  0.1180000E+00
       11   -1    0    0    0    0  0.00000000000E+00  0.00000000000E+00  0.39999999673E+01  0.40000000000E+01  0.51109989000E-03 0.  1.
     -623   -1    0    0    0    0  0.00000000000E+00  0.00000000000E+00  0.12525980253E-10  0.17130000000E+03  0.17130000000E+03 0.  1.
       11    1    1    2    0    0  0.34662737005E-02  0.10598953852E-01  0.32540731604E-01  0.34402228307E-01  0.51109989000E-03 0.  1.
     -623    1    1    2    0    0 -0.20377657050E-02  0.16603976956E-02  0.20824448104E-02  0.17130000003E+03  0.17130000000E+03 0.  1.
      622    1    1    2    0    0 -0.14285079955E-02 -0.12259351548E-01  0.39653767909E+01  0.39655977389E+01  0.40000000000E-01 0.  1.
</event>
<event>
 5   0  0.7212170E+07  0.9118800E+02  0.7818608E-02  0.1180000E+00
       11   -1    0    0    0    0  0.00000000000E+00  0.00000000000E+00  0.39999999673E+01  0.40000000000E+01  0.51109989000E-03 0.  1.
     -623   -1    0    0    0    0  0.00000000000E+00  0.00000000000E+00  0.12525980253E-10  0.17130000000E+03  0.17130000000E+03 0. -1.
       11    1    1    2    0    0  0.15657820827E-03 -0.93017022011E-02  0.20138520715E+00  0.20160061771E+00  0.51109989000E-03 0.  1.
     -623    1    1    2    0    0  0.79193403906E-03  0.14958401984E-02  0.43414727222E-03  0.17130000001E+03  0.17130000000E+03 0. -1.
      622    1    1    2    0    0 -0.94851224737E-03  0.78058620026E-02  0.37981806131E+01  0.37983993736E+01  0.40000000000E-01 0.  1.
</event>
<event>
 5   0  0.7212170E+07  0.9118800E+02  0.7818608E-02  0.1180000E+00
       11   -1    0    0    0    0  0.00000000000E+00  0.00000000000E+00  0.39999999673E+01  0.40000000000E+01  0.51109989000E-03 0. -1.
     -623   -1    0    0    0    0  0.00000000000E+00  0.00000000000E+00  0.12525980253E-10  0.17130000000E+03  0.17130000000E+03 0. -1.
       11    1    1    2    0    0  0.15691956731E-02 -0.14562516261E-01  0.41536786921E-01  0.44046511164E-01  0.51109989000E-03 0. -1.
     -623    1    1    2    0    0  0.29855092807E-01  0.39901161053E-01  0.29251735619E-02  0.17130000727E+03  0.17130000000E+03 0. -1.
      622    1    1    2    0    0 -0.31424288481E-01 -0.25338644793E-01  0.39555380070E+01  0.39559462152E+01  0.40000000000E-01 0. -1.
</event>
<event>
 5   0  0.7212170E+07  0.9118800E+02  0.7818608E-02  0.1180000E+00
       11   -1    0    0    0    0  0.00000000000E+00  0.00000000000E+00  0.39999999673E+01  0.40000000000E+01  0.51109989000E-03 0. -1.
     -623   -1    0    0    0    0  0.00000000000E+00  0.00000000000E+00  0.12525980253E-10  0.17130000000E+03  0.17130000000E+03 0. -1.
       11    1    1    2    0    0  0.69761592847E-02 -0.17250777835E-02  0.70834930470E-01  0.71200360178E-01  0.51109989000E-03 0. -1.
     -623    1    1    2    0    0 -0.85643511019E-02  0.55543189564E-02  0.57151921508E-03  0.17130000031E+03  0.17130000000E+03 0. -1.
      622    1    1    2    0    0  0.15881918178E-02 -0.38292411732E-02  0.39285935179E+01  0.39287993350E+01  0.40000000000E-01 0. -1.
</event>
<event>
 5   0  0.7212170E+07  0.9118800E+02  0.7818608E-02  0.1180000E+00
       11   -1    0    0    0    0  0.00000000000E+00  0.00000000000E+00  0.39999999673E+01  0.40000000000E+01  0.51109989000E-03 0.  1.
     -623   -1    0    0    0    0  0.00000000000E+00  0.00000000000E+00  0.12525980253E-10  0.17130000000E+03  0.17130000000E+03 0.  1.
       11    1    1    2    0    0 -0.15204869140E-02  0.33720988948E-02  0.16854226884E+00  0.16858363071E+00  0.51109989000E-03 0.  1.
     -623    1    1    2    0    0 -0.10114845729E-02 -0.10462264479E-01  0.25785499844E-03  0.17130000032E+03  0.17130000000E+03 0.  1.
      622    1    1    2    0    0  0.25319714866E-02  0.70901655810E-02  0.38311998424E+01  0.38314160455E+01  0.40000000000E-01 0.  1.
</event>
<event>
 5   0  0.7212170E+07  0.9118800E+02  0.7818608E-02  0.1180000E+00
       11   -1    0    0    0    0  0.00000000000E+00  0.00000000000E+00  0.39999999673E+01  0.40000000000E+01  0.51109989000E-03 0.  1.
     -623   -1    0    0    0    0  0.00000000000E+00  0.00000000000E+00  0.12525980253E-10  0.17130000000E+03  0.17130000000E+03 0. -1.
       11    1    1    2    0    0 -0.10727627778E-01 -0.12153434801E-01  0.49102642980E+00  0.49129421324E+00  0.51109989000E-03 0.  1.
     -623    1    1    2    0    0  0.11780830050E-01  0.12509283667E-01  0.49680125645E-03  0.17130000086E+03  0.17130000000E+03 0. -1.
      622    1    1    2    0    0 -0.10532022741E-02 -0.35584886828E-03  0.35084767372E+01  0.35087049251E+01  0.40000000000E-01 0.  1.
</event>
<event>
 5   0  0.7212170E+07  0.9118800E+02  0.7818608E-02  0.1180000E+00
       11   -1    0    0    0    0  0.00000000000E+00  0.00000000000E+00  0.39999999673E+01  0.40000000000E+01  0.51109989000E-03 0.  1.
     -623   -1    0    0    0    0  0.00000000000E+00  0.00000000000E+00  0.12525980253E-10  0.17130000000E+03  0.17130000000E+03 0.  1.
       11    1    1    2    0    0  0.28287774735E-02  0.24453110620E-02  0.16357983853E-01  0.16787685576E-01  0.51109989000E-03 0.  1.
     -623    1    1    2    0    0 -0.45780372992E-02  0.10850951264E-04  0.63172084029E-03  0.17130000006E+03  0.17130000000E+03 0.  1.
      622    1    1    2    0    0  0.17492598257E-02 -0.24561620133E-02  0.39830102627E+01  0.39832122521E+01  0.40000000000E-01 0.  1.
</event>
<event>
 5   0  0.7212170E+07  0.9118800E+02  0.7818608E-02  0.1180000E+00
       11   -1    0    0    0    0  0.00000000000E+00  0.00000000000E+00  0.39999999673E+01  0.40000000000E+01  0.51109989000E-03 0. -1.
     -623   -1    0    0    0    0  0.00000000000E+00  0.00000000000E+00  0.12525980253E-10  0.17130000000E+03  0.17130000000E+03 0. -1.
       11    1    1    2    0    0  0.16040999322E-01  0.69829680648E-03  0.15104262657E+00  0.15189449477E+00  0.51109989000E-03 0. -1.
     -623    1    1    2    0    0  0.25796821161E-02 -0.37994464414E-02  0.11061052042E-02  0.17130000007E+03  0.17130000000E+03 0. -1.
      622    1    1    2    0    0 -0.18620681438E-01  0.31011496351E-02  0.38478512358E+01  0.38481054403E+01  0.40000000000E-01 0. -1.
</event>
<event>
 5   0  0.7212170E+07  0.9118800E+02  0.7818608E-02  0.1180000E+00
       11   -1    0    0    0    0  0.00000000000E+00  0.00000000000E+00  0.39999999673E+01  0.40000000000E+01  0.51109989000E-03 0. -1.
     -623   -1    0    0    0    0  0.00000000000E+00  0.00000000000E+00  0.12525980253E-10  0.17130000000E+03  0.17130000000E+03 0.  1.
       11    1    1    2    0    0 -0.11432383777E-01 -0.10251216829E-01  0.15919979291E+01  0.15920720632E+01  0.51109989000E-03 0. -1.
     -623    1    1    2    0    0 -0.22595488399E-02 -0.12242104185E-02  0.47266179504E-03  0.17130000002E+03  0.17130000000E+03 0.  1.
      622    1    1    2    0    0  0.13691932617E-01  0.11475427247E-01  0.24075293766E+01  0.24079279170E+01  0.40000000000E-01 0.  0.
</event>
<event>
 5   0  0.7212170E+07  0.9118800E+02  0.7818608E-02  0.1180000E+00
       11   -1    0    0    0    0  0.00000000000E+00  0.00000000000E+00  0.39999999673E+01  0.40000000000E+01  0.51109989000E-03 0.  1.
     -623   -1    0    0    0    0  0.00000000000E+00  0.00000000000E+00  0.12525980253E-10  0.17130000000E+03  0.17130000000E+03 0. -1.
       11    1    1    2    0    0  0.73982541813E-02  0.78625784929E-02  0.99115334554E-02  0.14664720387E-01  0.51109989000E-03 0.  1.
     -623    1    1    2    0    0 -0.98783831745E-02 -0.66036232567E-02  0.49553497018E-02  0.17130000048E+03  0.17130000000E+03 0. -1.
      622    1    1    2    0    0  0.24801289934E-02 -0.12589552360E-02  0.39851330843E+01  0.39853347959E+01  0.40000000000E-01 0.  1.
</event>
<event>
 5   0  0.7212170E+07  0.9118800E+02  0.7818608E-02  0.1180000E+00
       11   -1    0    0    0    0  0.00000000000E+00  0.00000000000E+00  0.39999999673E+01  0.40000000000E+01  0.51109989000E-03 0. -1.
     -623   -1    0    0    0    0  0.00000000000E+00  0.00000000000E+00  0.12525980253E-10  0.17130000000E+03  0.17130000000E+03 0. -1.
       11    1    1    2    0    0  0.61016610524E-02 -0.83186980595E-02  0.11266644058E+00  0.11313893698E+00  0.51109989000E-03 0. -1.
     -623    1    1    2    0    0  0.23947113757E-02  0.15715918899E-01  0.69535599430E-03  0.17130000074E+03  0.17130000000E+03 0. -1.
      622    1    1    2    0    0 -0.84963724283E-02 -0.73972208401E-02  0.38866381710E+01  0.38868603241E+01  0.40000000000E-01 0. -1.
</event>
<event>
 5   0  0.7212170E+07  0.9118800E+02  0.7818608E-02  0.1180000E+00
       11   -1    0    0    0    0  0.00000000000E+00  0.00000000000E+00  0.39999999673E+01  0.40000000000E+01  0.51109989000E-03 0.  1.
     -623   -1    0    0    0    0  0.00000000000E+00  0.00000000000E+00  0.12525980253E-10  0.17130000000E+03  0.17130000000E+03 0.  1.
       11    1    1    2    0    0  0.30949600488E-02 -0.15268912669E-02  0.11959676863E+00  0.11964764295E+00  0.51109989000E-03 0.  1.
     -623    1    1    2    0    0 -0.18977575309E-03 -0.22446350102E-03  0.25849730165E-03  0.17130000000E+03  0.17130000000E+03 0.  1.
      622    1    1    2    0    0 -0.29051842957E-02  0.17513547680E-02  0.38801447018E+01  0.38803523570E+01  0.40000000000E-01 0.  1.
</event>
<event>
 5   0  0.7212170E+07  0.9118800E+02  0.7818608E-02  0.1180000E+00
       11   -1    0    0    0    0  0.00000000000E+00  0.00000000000E+00  0.39999999673E+01  0.40000000000E+01  0.51109989000E-03 0.  1.
     -623   -1    0    0    0    0  0.00000000000E+00  0.00000000000E+00  0.12525980253E-10  0.17130000000E+03  0.17130000000E+03 0.  1.
       11    1    1    2    0    0 -0.28769709682E-02 -0.34121036295E-02  0.19459041621E+00  0.19464226344E+00  0.51109989000E-03 0.  1.
     -623    1    1    2    0    0 -0.13903220439E-02 -0.20396100273E-02  0.26836647979E-03  0.17130000002E+03  0.17130000000E+03 0.  1.
      622    1    1    2    0    0  0.42672930120E-02  0.54517136566E-02  0.38051411842E+01  0.38053577181E+01  0.40000000000E-01 0.  0.
</event>
<event>
 5   0  0.7212170E+07  0.9118800E+02  0.7818608E-02  0.1180000E+00
       11   -1    0    0    0    0  0.00000000000E+00  0.00000000000E+00  0.39999999673E+01  0.40000000000E+01  0.51109989000E-03 0.  1.
     -623   -1    0    0    0    0  0.00000000000E+00  0.00000000000E+00  0.12525980253E-10  0.17130000000E+03  0.17130000000E+03 0.  1.
       11    1    1    2    0    0  0.28780610443E-02 -0.35064032366E-02  0.17811593628E-03  0.45684841486E-02  0.51109989000E-03 0.  1.
     -623    1    1    2    0    0 -0.25714509259E-02 -0.14304040720E-02  0.45937180575E-02  0.17130000009E+03  0.17130000000E+03 0.  1.
      622    1    1    2    0    0 -0.30661011835E-03  0.49368073086E-02  0.39952281334E+01  0.39954314290E+01  0.40000000000E-01 0.  1.
</event>
<event>
 5   0  0.7212170E+07  0.9118800E+02  0.7818608E-02  0.1180000E+00
       11   -1    0    0    0    0  0.00000000000E+00  0.00000000000E+00  0.39999999673E+01  0.40000000000E+01  0.51109989000E-03 0. -1.
     -623   -1    0    0    0    0  0.00000000000E+00  0.00000000000E+00  0.12525980253E-10  0.17130000000E+03  0.17130000000E+03 0. -1.
       11    1    1    2    0    0  0.11477077655E-02  0.39941363980E-03  0.12690648727E-01  0.12758940104E-01  0.51109989000E-03 0. -1.
     -623    1    1    2    0    0 -0.39096450885E-04 -0.50989528665E-03  0.26906040583E-03  0.17130000000E+03  0.17130000000E+03 0. -1.
      622    1    1    2    0    0 -0.11086113146E-02  0.11048164700E-03  0.39870402594E+01  0.39872410601E+01  0.40000000000E-01 0. -1.
</event>
<event>
 5   0  0.7212170E+07  0.9118800E+02  0.7818608E-02  0.1180000E+00
       11   -1    0    0    0    0  0.00000000000E+00  0.00000000000E+00  0.39999999673E+01  0.40000000000E+01  0.51109989000E-03 0. -1.
     -623   -1    0    0    0    0  0.00000000000E+00  0.00000000000E+00  0.12525980253E-10  0.17130000000E+03  0.17130000000E+03 0.  1.
       11    1    1    2    0    0 -0.29243843897E-03 -0.36611089663E-03  0.93645170424E-02  0.93901522865E-02  0.51109989000E-03 0. -1.
     -623    1    1    2    0    0 -0.77756631453E-03  0.92501976221E-04  0.22623302922E-03  0.17130000000E+03  0.17130000000E+03 0.  1.
      622    1    1    2    0    0  0.10700047535E-02  0.27360892041E-03  0.39904092174E+01  0.39906098459E+01  0.40000000000E-01 0. -1.
</event>
<event>
 5   0  0.7212170E+07  0.9118800E+02  0.7818608E-02  0.1180000E+00
       11   -1    0    0    0    0  0.00000000000E+00  0.00000000000E+00  0.39999999673E+01  0.40000000000E+01  0.51109989000E-03 0. -1.
     -623   -1    0    0    0    0  0.00000000000E+00  0.00000000000E+00  0.12525980253E-10  0.17130000000E+03  0.17130000000E+03 0. -1.
       11    1    1    2    0    0 -0.40339759148E-01  0.11250988030E-01  0.20728428914E+01  0.20732659729E+01  0.51109989000E-03 0. -1.
     -623    1    1    2    0    0  0.10053267917E-01 -0.21443102617E-01  0.11050159189E-02  0.17130000164E+03  0.17130000000E+03 0. -1.
      622    1    1    2    0    0  0.30286491230E-01  0.10192114590E-01  0.19260520604E+01  0.19267323867E+01  0.40000000000E-01 0.  1.
</event>
<event>
 5   0  0.7212170E+07  0.9118800E+02  0.7818608E-02  0.1180000E+00
       11   -1    0    0    0    0  0.00000000000E+00  0.00000000000E+00  0.39999999673E+01  0.40000000000E+01  0.51109989000E-03 0. -1.
     -623   -1    0    0    0    0  0.00000000000E+00  0.00000000000E+00  0.12525980253E-10  0.17130000000E+03  0.17130000000E+03 0. -1.
       11    1    1    2    0    0  0.20659709627E-02 -0.18065145247E-02  0.17333971379E-01  0.17557320912E-01  0.51109989000E-03 0. -1.
     -623    1    1    2    0    0 -0.58599913060E-03 -0.37910527118E-03  0.42508043520E-03  0.17130000000E+03  0.17130000000E+03 0. -1.
      622    1    1    2    0    0 -0.14799718319E-02  0.21856197960E-02  0.39822409169E+01  0.39824426785E+01  0.40000000000E-01 0. -1.
</event>
<event>
 5   0  0.7212170E+07  0.9118800E+02  0.7818608E-02  0.1180000E+00
       11   -1    0    0    0    0  0.00000000000E+00  0.00000000000E+00  0.39999999673E+01  0.40000000000E+01  0.51109989000E-03 0.  1.
     -623   -1    0    0    0    0  0.00000000000E+00  0.00000000000E+00  0.12525980253E-10  0.17130000000E+03  0.17130000000E+03 0. -1.
       11    1    1    2    0    0 -0.54421354402E-02 -0.14484236449E-01  0.97457760028E+00  0.97470055408E+00  0.51109989000E-03 0.  1.
     -623    1    1    2    0    0 -0.48207143348E-02  0.93102706298E-03  0.43521127188E-03  0.17130000007E+03  0.17130000000E+03 0. -1.
      622    1    1    2    0    0  0.10262849776E-01  0.13553209385E-01  0.30249871564E+01  0.30252993756E+01  0.40000000000E-01 0.  1.
</event>
<event>
 5   0  0.7212170E+07  0.9118800E+02  0.7818608E-02  0.1180000E+00
       11   -1    0    0    0    0  0.00000000000E+00  0.00000000000E+00  0.39999999673E+01  0.40000000000E+01  0.51109989000E-03 0. -1.
     -623   -1    0    0    0    0  0.00000000000E+00  0.00000000000E+00  0.12525980253E-10  0.17130000000E+03  0.17130000000E+03 0.  1.
       11    1    1    2    0    0  0.11188317394E-01  0.67331486971E-02  0.10386940363E+01  0.10387762396E+01  0.51109989000E-03 0. -1.
     -623    1    1    2    0    0  0.12461239956E-01 -0.53824850486E-02  0.44763580969E-03  0.17130000054E+03  0.17130000000E+03 0.  1.
      622    1    1    2    0    0 -0.23649557352E-01 -0.13506636473E-02  0.29608582961E+01  0.29612232229E+01  0.40000000000E-01 0.  0.
</event>
<event>
 5   0  0.7212170E+07  0.9118800E+02  0.7818608E-02  0.1180000E+00
       11   -1    0    0    0    0  0.00000000000E+00  0.00000000000E+00  0.39999999673E+01  0.40000000000E+01  0.51109989000E-03 0. -1.
     -623   -1    0    0    0    0  0.00000000000E+00  0.00000000000E+00  0.12525980253E-10  0.17130000000E+03  0.17130000000E+03 0.  1.
       11    1    1    2    0    0 -0.16281920401E-02  0.14154522303E-02  0.25116831736E+00  0.25117810292E+00  0.51109989000E-03 0. -1.
     -623    1    1    2    0    0  0.68758032433E-03 -0.21014546971E-02  0.22335455891E-03  0.17130000001E+03  0.17130000000E+03 0.  1.
      622    1    1    2    0    0  0.94061171555E-03  0.68600246746E-03  0.37486082967E+01  0.37488218839E+01  0.40000000000E-01 0. -1.
</event>
<event>
 5   0  0.7212170E+07  0.9118800E+02  0.7818608E-02  0.1180000E+00
       11   -1    0    0    0    0  0.00000000000E+00  0.00000000000E+00  0.39999999673E+01  0.40000000000E+01  0.51109989000E-03 0. -1.
     -623   -1    0    0    0    0  0.00000000000E+00  0.00000000000E+00  0.12525980253E-10  0.17130000000E+03  0.17130000000E+03 0. -1.
       11    1    1    2    0    0 -0.12761552093E-02  0.24894987757E-02  0.31252511041E-02  0.42254696583E-02  0.51109989000E-03 0. -1.
     -623    1    1    2    0    0  0.11534725442E-03 -0.39127653349E-02  0.13008742073E-02  0.17130000005E+03  0.17130000000E+03 0. -1.
      622    1    1    2    0    0  0.11608079548E-02  0.14232665591E-02  0.39955738419E+01  0.39957744806E+01  0.40000000000E-01 0. -1.
</event>
<event>
 5   0  0.7212170E+07  0.9118800E+02  0.7818608E-02  0.1180000E+00
       11   -1    0    0    0    0  0.00000000000E+00  0.00000000000E+00  0.39999999673E+01  0.40000000000E+01  0.51109989000E-03 0. -1.
     -623   -1    0    0    0    0  0.00000000000E+00  0.00000000000E+00  0.12525980253E-10  0.17130000000E+03  0.17130000000E+03 0. -1.
       11    1    1    2    0    0 -0.17955513607E-02  0.87861384550E-02  0.62584298858E+00  0.62590744349E+00  0.51109989000E-03 0. -1.
     -623    1    1    2    0    0 -0.42070227002E-03  0.18030161824E-04  0.31374748918E-03  0.17130000000E+03  0.17130000000E+03 0. -1.
      622    1    1    2    0    0  0.22162536308E-02 -0.88041686168E-02  0.33738432325E+01  0.33740925569E+01  0.40000000000E-01 0. -1.
</event>
<event>
 5   0  0.7212170E+07  0.9118800E+02  0.7818608E-02  0.1180000E+00
       11   -1    0    0    0    0  0.00000000000E+00  0.00000000000E+00  0.39999999673E+01  0.40000000000E+01  0.51109989000E-03 0. -1.
     -623   -1    0    0    0    0  0.00000000000E+00  0.00000000000E+00  0.12525980253E-10  0.17130000000E+03  0.17130000000E+03 0.  1.
       11    1    1    2    0    0 -0.35792800855E-03 -0.53579809976E-03  0.19184764737E-01  0.19202385611E-01  0.51109989000E-03 0. -1.
     -623    1    1    2    0    0  0.39591758497E-03  0.42614868931E-03  0.21856087669E-03  0.17130000000E+03  0.17130000000E+03 0.  1.
      622    1    1    2    0    0 -0.37989576357E-04  0.10964941052E-03  0.39805966411E+01  0.39807976126E+01  0.40000000000E-01 0. -1.
</event>
<event>
 5   0  0.7212170E+07  0.9118800E+02  0.7818608E-02  0.1180000E+00
       11   -1    0    0    0    0  0.00000000000E+00  0.00000000000E+00  0.39999999673E+01  0.40000000000E+01  0.51109989000E-03 0.  1.
     -623   -1    0    0    0    0  0.00000000000E+00  0.00000000000E+00  0.12525980253E-10  0.17130000000E+03  0.17130000000E+03 0.  1.
       11    1    1    2    0    0 -0.72875389645E-02  0.37980034905E-02  0.42629291803E+00  0.42637242669E+00  0.51109989000E-03 0.  1.
     -623    1    1    2    0    0  0.32655933909E-02 -0.47098869513E-02  0.30582109481E-03  0.17130000010E+03  0.17130000000E+03 0.  1.
      622    1    1    2    0    0  0.40219455739E-02  0.91188346032E-03  0.35734012278E+01  0.35736274767E+01  0.40000000000E-01 0.  0.
</event>
<event>
 5   0  0.7212170E+07  0.9118800E+02  0.7818608E-02  0.1180000E+00
       11   -1    0    0    0    0  0.00000000000E+00  0.00000000000E+00  0.39999999673E+01  0.40000000000E+01  0.51109989000E-03 0.  1.
     -623   -1    0    0    0    0  0.00000000000E+00  0.00000000000E+00  0.12525980253E-10  0.17130000000E+03  0.17130000000E+03 0.  1.
       11    1    1    2    0    0 -0.10218316284E-01  0.11458377387E-01  0.40881750951E+00  0.40910600791E+00  0.51109989000E-03 0.  1.
     -623    1    1    2    0    0  0.53397810182E-02  0.50371633795E-02  0.55262124970E-03  0.17130000016E+03  0.17130000000E+03 0.  1.
      622    1    1    2    0    0  0.48785352666E-02 -0.16495540766E-01  0.35906298361E+01  0.35908938334E+01  0.40000000000E-01 0.  1.
</event>
<event>
 5   0  0.7212170E+07  0.9118800E+02  0.7818608E-02  0.1180000E+00
       11   -1    0    0    0    0  0.00000000000E+00  0.00000000000E+00  0.39999999673E+01  0.40000000000E+01  0.51109989000E-03 0. -1.
     -623   -1    0    0    0    0  0.00000000000E+00  0.00000000000E+00  0.12525980253E-10  0.17130000000E+03  0.17130000000E+03 0.  1.
       11    1    1    2    0    0 -0.16312323970E-01 -0.62449811159E-02  0.27142131996E+00  0.27198324554E+00  0.51109989000E-03 0. -1.
     -623    1    1    2    0    0  0.85332485069E-02 -0.59578704942E-02  0.80489801280E-03  0.17130000032E+03  0.17130000000E+03 0.  1.
      622    1    1    2    0    0  0.77790754621E-02  0.12202851610E-01  0.37277737496E+01  0.37280164367E+01  0.40000000000E-01 0. -1.
</event>
<event>
 5   0  0.7212170E+07  0.9118800E+02  0.7818608E-02  0.1180000E+00
       11   -1    0    0    0    0  0.00000000000E+00  0.00000000000E+00  0.39999999673E+01  0.40000000000E+01  0.51109989000E-03 0. -1.
     -623   -1    0    0    0    0  0.00000000000E+00  0.00000000000E+00  0.12525980253E-10  0.17130000000E+03  0.17130000000E+03 0. -1.
       11    1    1    2    0    0  0.14107754415E-02  0.20040020227E-02  0.47057669088E-01  0.47124216223E-01  0.51109989000E-03 0. -1.
     -623    1    1    2    0    0  0.14699309294E-03 -0.54390476095E-03  0.26948175274E-03  0.17130000000E+03  0.17130000000E+03 0. -1.
      622    1    1    2    0    0 -0.15577685344E-02 -0.14600972619E-02  0.39526728158E+01  0.39528757819E+01  0.40000000000E-01 0. -1.
</event>
<event>
 5   0  0.7212170E+07  0.9118800E+02  0.7818608E-02  0.1180000E+00
       11   -1    0    0    0    0  0.00000000000E+00  0.00000000000E+00  0.39999999673E+01  0.40000000000E+01  0.51109989000E-03 0. -1.
     -623   -1    0    0    0    0  0.00000000000E+00  0.00000000000E+00  0.12525980253E-10  0.17130000000E+03  0.17130000000E+03 0.  1.
       11    1    1    2    0    0 -0.11129214821E-02  0.86220170842E-02  0.15113155219E-01  0.17442661970E-01  0.51109989000E-03 0. -1.
     -623    1    1    2    0    0  0.27527691610E-02 -0.23906160725E-02  0.25356256284E-02  0.17130000006E+03  0.17130000000E+03 0.  1.
      622    1    1    2    0    0 -0.16398476790E-02 -0.62314010116E-02  0.39823511867E+01  0.39825572806E+01  0.40000000000E-01 0. -1.
</event>
<event>
 5   0  0.7212170E+07  0.9118800E+02  0.7818608E-02  0.1180000E+00
       11   -1    0    0    0    0  0.00000000000E+00  0.00000000000E+00  0.39999999673E+01  0.40000000000E+01  0.51109989000E-03 0. -1.
     -623   -1    0    0    0    0  0.00000000000E+00  0.00000000000E+00  0.12525980253E-10  0.17130000000E+03  0.17130000000E+03 0.  1.
       11    1    1    2    0    0 -0.39321941090E-02  0.55404771821E-02  0.25174730146E-01  0.26080400667E-01  0.51109989000E-03 0. -1.
     -623    1    1    2    0    0 -0.38531766003E-02 -0.96385488170E-02  0.11170134995E-02  0.17130000032E+03  0.17130000000E+03 0.  1.
      622    1    1    2    0    0  0.77853707091E-02  0.40980716344E-02  0.39737082235E+01  0.39739192810E+01  0.40000000000E-01 0. -1.
</event>
<event>
 5   0  0.7212170E+07  0.9118800E+02  0.7818608E-02  0.1180000E+00
       11   -1    0    0    0    0  0.00000000000E+00  0.00000000000E+00  0.39999999673E+01  0.40000000000E+01  0.51109989000E-03 0.  1.
     -623   -1    0    0    0    0  0.00000000000E+00  0.00000000000E+00  0.12525980253E-10  0.17130000000E+03  0.17130000000E+03 0. -1.
       11    1    1    2    0    0  0.40790359824E-02 -0.58172959667E-02  0.75265390208E+00  0.75268760917E+00  0.51109989000E-03 0.  1.
     -623    1    1    2    0    0 -0.58954143615E-03  0.36098844941E-04  0.28706418140E-03  0.17130000000E+03  0.17130000000E+03 0. -1.
      622    1    1    2    0    0 -0.34894945463E-02  0.57811971217E-02  0.32470590010E+01  0.32473123894E+01  0.40000000000E-01 0.  1.
</event>
<event>
 5   0  0.7212170E+07  0.9118800E+02  0.7818608E-02  0.1180000E+00
       11   -1    0    0    0    0  0.00000000000E+00  0.00000000000E+00  0.39999999673E+01  0.40000000000E+01  0.51109989000E-03 0.  1.
     -623   -1    0    0    0    0  0.00000000000E+00  0.00000000000E+00  0.12525980253E-10  0.17130000000E+03  0.17130000000E+03 0.  1.
       11    1    1    2    0    0  0.22585725450E-01  0.28861681379E-02  0.53666587765E+00  0.53714892759E+00  0.51109989000E-03 0.  1.
     -623    1    1    2    0    0  0.15792214369E-03 -0.87750135773E-03  0.78933003727E-03  0.17130000000E+03  0.17130000000E+03 0.  1.
      622    1    1    2    0    0 -0.22743647593E-01 -0.20086667802E-02  0.34625447596E+01  0.34628510682E+01  0.40000000000E-01 0.  1.
</event>
<event>
 5   0  0.7212170E+07  0.9118800E+02  0.7818608E-02  0.1180000E+00
       11   -1    0    0    0    0  0.00000000000E+00  0.00000000000E+00  0.39999999673E+01  0.40000000000E+01  0.51109989000E-03 0. -1.
     -623   -1    0    0    0    0  0.00000000000E+00  0.00000000000E+00  0.12525980253E-10  0.17130000000E+03  0.17130000000E+03 0.  1.
       11    1    1    2    0    0 -0.23308512227E-03  0.29717996466E-02  0.14651847030E-01  0.14960740834E-01  0.51109989000E-03 0. -1.
     -623    1    1    2    0    0  0.20248049697E-02 -0.14421853973E-02  0.51033225200E-03  0.17130000002E+03  0.17130000000E+03 0.  1.
      622    1    1    2    0    0 -0.17917198474E-02 -0.15296142494E-02  0.39848377879E+01  0.39850392402E+01  0.40000000000E-01 0. -1.
</event>
<event>
 5   0  0.7212170E+07  0.9118800E+02  0.7818608E-02  0.1180000E+00
       11   -1    0    0    0    0  0.00000000000E+00  0.00000000000E+00  0.39999999673E+01  0.40000000000E+01  0.51109989000E-03 0. -1.
     -623   -1    0    0    0    0  0.00000000000E+00  0.00000000000E+00  0.12525980253E-10  0.17130000000E+03  0.17130000000E+03 0.  1.
       11    1    1    2    0    0 -0.34965831262E-01 -0.45932991176E-01  0.20400299206E+01  0.20408465859E+01  0.51109989000E-03 0. -1.
     -623    1    1    2    0    0  0.47360031319E-02  0.64893944396E-03  0.19819707392E-02  0.17130000008E+03  0.17130000000E+03 0.  1.
      622    1    1    2    0    0  0.30229828130E-01  0.45284051732E-01  0.19579880763E+01  0.19591533362E+01  0.40000000000E-01 0. -1.
</event>
<event>
 5   0  0.7212170E+07  0.9118800E+02  0.7818608E-02  0.1180000E+00
       11   -1    0    0    0    0  0.00000000000E+00  0.00000000000E+00  0.39999999673E+01  0.40000000000E+01  0.51109989000E-03 0.  1.
     -623   -1    0    0    0    0  0.00000000000E+00  0.00000000000E+00  0.12525980253E-10  0.17130000000E+03  0.17130000000E+03 0.  1.
       11    1    1    2    0    0  0.25295343816E-02  0.76119002486E-02  0.32183760472E-02  0.86578713932E-02  0.51109989000E-03 0.  1.
     -623    1    1    2    0    0  0.94156598702E-02 -0.31611718566E-01  0.57332086076E-02  0.17130000327E+03  0.17130000000E+03 0.  1.
      622    1    1    2    0    0 -0.11945194252E-01  0.23999818318E-01  0.39910483828E+01  0.39913388571E+01  0.40000000000E-01 0.  1.
</event>
<event>
 5   0  0.7212170E+07  0.9118800E+02  0.7818608E-02  0.1180000E+00
       11   -1    0    0    0    0  0.00000000000E+00  0.00000000000E+00  0.39999999673E+01  0.40000000000E+01  0.51109989000E-03 0. -1.
     -623   -1    0    0    0    0  0.00000000000E+00  0.00000000000E+00  0.12525980253E-10  0.17130000000E+03  0.17130000000E+03 0.  1.
       11    1    1    2    0    0  0.24076888140E-03 -0.82983011249E-04  0.54838896313E-03  0.79171294472E-03  0.51109989000E-03 0.  1.
     -623    1    1    2    0    0  0.14792030639E-02  0.11431325974E-03  0.44371294017E-03  0.17130000001E+03  0.17130000000E+03 0.  1.
      622    1    1    2    0    0 -0.17199719456E-02 -0.31330248520E-04  0.39990078664E+01  0.39992082810E+01  0.40000000000E-01 0. -1.
</event>
<event>
 5   0  0.7212170E+07  0.9118800E+02  0.7818608E-02  0.1180000E+00
       11   -1    0    0    0    0  0.00000000000E+00  0.00000000000E+00  0.39999999673E+01  0.40000000000E+01  0.51109989000E-03 0. -1.
     -623   -1    0    0    0    0  0.00000000000E+00  0.00000000000E+00  0.12525980253E-10  0.17130000000E+03  0.17130000000E+03 0. -1.
       11    1    1    2    0    0 -0.56540992002E-02  0.73737813314E-02  0.92207070761E-01  0.92675490883E-01  0.51109989000E-03 0. -1.
     -623    1    1    2    0    0  0.40238906544E-02  0.58188257952E-02  0.69589698391E-03  0.17130000015E+03  0.17130000000E+03 0. -1.
      622    1    1    2    0    0  0.16302085453E-02 -0.13192607127E-01  0.39070970000E+01  0.39073243620E+01  0.40000000000E-01 0. -1.
</event>
<event>
 5   0  0.7212170E+07  0.9118800E+02  0.7818608E-02  0.1180000E+00
       11   -1    0    0    0    0  0.00000000000E+00  0.00000000000E+00  0.39999999673E+01  0.40000000000E+01  0.51109989000E-03 0. -1.
     -623   -1    0    0    0    0  0.00000000000E+00  0.00000000000E+00  0.12525980253E-10  0.17130000000E+03  0.17130000000E+03 0. -1.
       11    1    1    2    0    0 -0.53829234048E-03 -0.39288215366E-02  0.60580684505E-02  0.72585682995E-02  0.51109989000E-03 0. -1.
     -623    1    1    2    0    0 -0.38123637202E-02  0.43584381940E-02  0.14033330090E-02  0.17130000010E+03  0.17130000000E+03 0. -1.
      622    1    1    2    0    0  0.43506560610E-02 -0.42961665777E-03  0.39925385662E+01  0.39927413284E+01  0.40000000000E-01 0. -1.
</event>
<event>
 5   0  0.7212170E+07  0.9118800E+02  0.7818608E-02  0.1180000E+00
       11   -1    0    0    0    0  0.00000000000E+00  0.00000000000E+00  0.39999999673E+01  0.40000000000E+01  0.51109989000E-03 0. -1.
     -623   -1    0    0    0    0  0.00000000000E+00  0.00000000000E+00  0.12525980253E-10  0.17130000000E+03  0.17130000000E+03 0. -1.
       11    1    1    2    0    0 -0.21948080462E-02  0.70555322791E-02  0.14837228489E+00  0.14855703909E+00  0.51109989000E-03 0. -1.
     -623    1    1    2    0    0  0.35576758067E-02 -0.17993492174E-02  0.39631635671E-03  0.17130000005E+03  0.17130000000E+03 0. -1.
      622    1    1    2    0    0 -0.13628677607E-02 -0.52561830615E-02  0.38512313665E+01  0.38514429144E+01  0.40000000000E-01 0. -1.
</event>
<event>
 5   0  0.7212170E+07  0.9118800E+02  0.7818608E-02  0.1180000E+00
       11   -1    0    0    0    0  0.00000000000E+00  0.00000000000E+00  0.39999999673E+01  0.40000000000E+01  0.51109989000E-03 0.  1.
     -623   -1    0    0    0    0  0.00000000000E+00  0.00000000000E+00  0.12525980253E-10  0.17130000000E+03  0.17130000000E+03 0. -1.
       11    1    1    2    0    0  0.93950009272E-02 -0.13651086603E-01  0.14769487353E+01  0.14770417889E+01  0.51109989000E-03 0.  1.
     -623    1    1    2    0    0  0.64642257261E-02  0.55446520583E-02  0.47321857643E-03  0.17130000021E+03  0.17130000000E+03 0. -1.
      622    1    1    2    0    0 -0.15859226653E-01  0.81064345447E-02  0.25225780135E+01  0.25229579988E+01  0.40000000000E-01 0.  1.
</event>
<event>
 5   0  0.7212170E+07  0.9118800E+02  0.7818608E-02  0.1180000E+00
       11   -1    0    0    0    0  0.00000000000E+00  0.00000000000E+00  0.39999999673E+01  0.40000000000E+01  0.51109989000E-03 0.  1.
     -623   -1    0    0    0    0  0.00000000000E+00  0.00000000000E+00  0.12525980253E-10  0.17130000000E+03  0.17130000000E+03 0.  1.
       11    1    1    2    0    0 -0.10096876609E-01 -0.41114246125E-02  0.11501632482E+00  0.11553296901E+00  0.51109989000E-03 0.  1.
     -623    1    1    2    0    0  0.18933873414E-02  0.16769719088E-02  0.73201142057E-03  0.17130000002E+03  0.17130000000E+03 0.  1.
      622    1    1    2    0    0  0.82034892670E-02  0.24344527036E-02  0.38842516312E+01  0.38844670108E+01  0.40000000000E-01 0.  0.
</event>
<event>
 5   0  0.7212170E+07  0.9118800E+02  0.7818608E-02  0.1180000E+00
       11   -1    0    0    0    0  0.00000000000E+00  0.00000000000E+00  0.39999999673E+01  0.40000000000E+01  0.51109989000E-03 0.  1.
     -623   -1    0    0    0    0  0.00000000000E+00  0.00000000000E+00  0.12525980253E-10  0.17130000000E+03  0.17130000000E+03 0.  1.
       11    1    1    2    0    0  0.25125721511E-03  0.27662562929E-03  0.78522907400E-02  0.78777753770E-02  0.51109989000E-03 0.  1.
     -623    1    1    2    0    0 -0.45472497014E-03  0.89828891178E-03  0.22603288832E-03  0.17130000000E+03  0.17130000000E+03 0.  1.
      622    1    1    2    0    0  0.20346775523E-03 -0.11749145414E-02  0.39919216454E+01  0.39921222232E+01  0.40000000000E-01 0.  1.
</event>
<event>
 5   0  0.7212170E+07  0.9118800E+02  0.7818608E-02  0.1180000E+00
       11   -1    0    0    0    0  0.00000000000E+00  0.00000000000E+00  0.39999999673E+01  0.40000000000E+01  0.51109989000E-03 0. -1.
     -623   -1    0    0    0    0  0.00000000000E+00  0.00000000000E+00  0.12525980253E-10  0.17130000000E+03  0.17130000000E+03 0. -1.
       11    1    1    2    0    0 -0.26389032656E-02 -0.26089918793E-01  0.64540827679E+00  0.64594098233E+00  0.51109989000E-03 0. -1.
     -623    1    1    2    0    0  0.15523034219E-01  0.19110491398E-01  0.80498011839E-03  0.17130000177E+03  0.17130000000E+03 0. -1.
      622    1    1    2    0    0 -0.12884130954E-01  0.69794273948E-02  0.33537867105E+01  0.33540572465E+01  0.40000000000E-01 0. -1.
</event>
<event>
 5   0  0.7212170E+07  0.9118800E+02  0.7818608E-02  0.1180000E+00
       11   -1    0    0    0    0  0.00000000000E+00  0.00000000000E+00  0.39999999673E+01  0.40000000000E+01  0.51109989000E-03 0.  1.
     -623   -1    0    0    0    0  0.00000000000E+00  0.00000000000E+00  0.12525980253E-10  0.17130000000E+03  0.17130000000E+03 0. -1.
       11    1    1    2    0    0 -0.56739535463E-03 -0.17037532729E-02  0.16026003424E-02  0.24605413344E-02  0.51109989000E-03 0.  1.
     -623    1    1    2    0    0 -0.61773860641E-03  0.27995975133E-03  0.10584703291E-02  0.17130000000E+03  0.17130000000E+03 0. -1.
      622    1    1    2    0    0  0.11851339610E-02  0.14237935216E-02  0.39973388966E+01  0.39975394540E+01  0.40000000000E-01 0.  1.
</event>
<event>
 5   0  0.7212170E+07  0.9118800E+02  0.7818608E-02  0.1180000E+00
       11   -1    0    0    0    0  0.00000000000E+00  0.00000000000E+00  0.39999999673E+01  0.40000000000E+01  0.51109989000E-03 0.  1.
     -623   -1    0    0    0    0  0.00000000000E+00  0.00000000000E+00  0.12525980253E-10  0.17130000000E+03  0.17130000000E+03 0. -1.
       11    1    1    2    0    0  0.80020632621E-04 -0.76758344367E-04  0.16103652918E-03  0.54722116769E-03  0.51109989000E-03 0. -1.
     -623    1    1    2    0    0 -0.60307834015E-03 -0.37611730584E-03  0.58624669016E-03  0.17130000000E+03  0.17130000000E+03 0. -1.
      622    1    1    2    0    0  0.52305770755E-03  0.45287565022E-03  0.39992526843E+01  0.39994527765E+01  0.40000000000E-01 0.  1.
</event>
<event>
 5   0  0.7212170E+07  0.9118800E+02  0.7818608E-02  0.1180000E+00
       11   -1    0    0    0    0  0.00000000000E+00  0.00000000000E+00  0.39999999673E+01  0.40000000000E+01  0.51109989000E-03 0.  1.
     -623   -1    0    0    0    0  0.00000000000E+00  0.00000000000E+00  0.12525980253E-10  0.17130000000E+03  0.17130000000E+03 0. -1.
       11    1    1    2    0    0  0.13003929597E-01  0.37869978858E-02  0.12617604073E+01  0.12618332022E+01  0.51109989000E-03 0.  1.
     -623    1    1    2    0    0 -0.21196283400E-01 -0.35941821692E-01  0.57111241892E-03  0.17130000508E+03  0.17130000000E+03 0. -1.
      622    1    1    2    0    0  0.81923538062E-02  0.32154823811E-01  0.27376684482E+01  0.27381617154E+01  0.40000000000E-01 0.  0.
</event>
<event>
 5   0  0.7212170E+07  0.9118800E+02  0.7818608E-02  0.1180000E+00
       11   -1    0    0    0    0  0.00000000000E+00  0.00000000000E+00  0.39999999673E+01  0.40000000000E+01  0.51109989000E-03 0. -1.
     -623   -1    0    0    0    0  0.00000000000E+00  0.00000000000E+00  0.12525980253E-10  0.17130000000E+03  0.17130000000E+03 0. -1.
       11    1    1    2    0    0  0.76464256795E-02  0.77087013823E-02  0.14406167743E+01  0.14406577815E+01  0.51109989000E-03 0. -1.
     -623    1    1    2    0    0  0.31052537346E-02  0.63696600118E-02  0.41503392145E-03  0.17130000015E+03  0.17130000000E+03 0. -1.
      622    1    1    2    0    0 -0.10751679415E-01 -0.14078361395E-01  0.25589681600E+01  0.25593420722E+01  0.40000000000E-01 0.  0.
</event>
<event>
 5   0  0.7212170E+07  0.9118800E+02  0.7818608E-02  0.1180000E+00
       11   -1    0    0    0    0  0.00000000000E+00  0.00000000000E+00  0.39999999673E+01  0.40000000000E+01  0.51109989000E-03 0.  1.
     -623   -1    0    0    0    0  0.00000000000E+00  0.00000000000E+00  0.12525980253E-10  0.17130000000E+03  0.17130000000E+03 0.  1.
       11    1    1    2    0    0 -0.37635864945E-01 -0.84048881044E-02  0.35837514474E+01  0.35839589560E+01  0.51109989000E-03 0.  1.
     -623    1    1    2    0    0  0.97010347304E-02 -0.14030127407E-01  0.36885535026E-02  0.17130000089E+03  0.17130000000E+03 0.  1.
      622    1    1    2    0    0  0.27934830215E-01  0.22435015511E-01  0.41255996648E+00  0.41604015503E+00  0.40000000000E-01 0. -1.
</event>
<event>
 5   0  0.7212170E+07  0.9118800E+02  0.7818608E-02  0.1180000E+00
       11   -1    0    0    0    0  0.00000000000E+00  0.00000000000E+00  0.39999999673E+01  0.40000000000E+01  0.51109989000E-03 0. -1.
     -623   -1    0    0    0    0  0.00000000000E+00  0.00000000000E+00  0.12525980253E-10  0.17130000000E+03  0.17130000000E+03 0.  1.
       11    1    1    2    0    0 -0.10923506802E-03  0.79587457625E-04  0.19733141115E-03  0.56429535430E-03  0.51109989000E-03 0. -1.
     -623    1    1    2    0    0  0.32667592872E-03 -0.10309153387E-02  0.56708793744E-03  0.17130000000E+03  0.17130000000E+03 0.  1.
      622    1    1    2    0    0 -0.21744086075E-03  0.95132788124E-03  0.39992355487E+01  0.39994357009E+01  0.40000000000E-01 0. -1.
</event>
<event>
 5   0  0.7212170E+07  0.9118800E+02  0.7818608E-02  0.1180000E+00
       11   -1    0    0    0    0  0.00000000000E+00  0.00000000000E+00  0.39999999673E+01  0.40000000000E+01  0.51109989000E-03 0.  1.
     -623   -1    0    0    0    0  0.00000000000E+00  0.00000000000E+00  0.12525980253E-10  0.17130000000E+03  0.17130000000E+03 0.  1.
       11    1    1    2    0    0 -0.28413221469E-02  0.66521361576E-02  0.11023795029E+00  0.11047620076E+00  0.51109989000E-03 0.  1.
     -623    1    1    2    0    0 -0.12082431655E-02 -0.15517067956E-02  0.44936840089E-03  0.17130000001E+03  0.17130000000E+03 0.  1.
      622    1    1    2    0    0  0.40495653125E-02 -0.51004293619E-02  0.38893126489E+01  0.38895237876E+01  0.40000000000E-01 0.  1.
</event>
<event>
 5   0  0.7212170E+07  0.9118800E+02  0.7818608E-02  0.1180000E+00
       11   -1    0    0    0    0  0.00000000000E+00  0.00000000000E+00  0.39999999673E+01  0.40000000000E+01  0.51109989000E-03 0. -1.
     -623   -1    0    0    0    0  0.00000000000E+00  0.00000000000E+00  0.12525980253E-10  0.17130000000E+03  0.17130000000E+03 0. -1.
       11    1    1    2    0    0 -0.69950387452E-03 -0.35995437025E-02  0.62885277312E-02  0.72974532996E-02  0.51109989000E-03 0. -1.
     -623    1    1    2    0    0 -0.26104832457E-02  0.30283105385E-02  0.12107273746E-02  0.17130000005E+03  0.17130000000E+03 0. -1.
      622    1    1    2    0    0  0.33099871202E-02  0.57123316407E-03  0.39925007122E+01  0.39927024957E+01  0.40000000000E-01 0. -1.
</event>
<event>
 5   0  0.7212170E+07  0.9118800E+02  0.7818608E-02  0.1180000E+00
       11   -1    0    0    0    0  0.00000000000E+00  0.00000000000E+00  0.39999999673E+01  0.40000000000E+01  0.51109989000E-03 0. -1.
     -623   -1    0    0    0    0  0.00000000000E+00  0.00000000000E+00  0.12525980253E-10  0.17130000000E+03  0.17130000000E+03 0.  1.
       11    1    1    2    0    0 -0.20974738268E-01  0.49506732896E-01  0.25397491134E+01  0.25403182235E+01  0.51109989000E-03 0. -1.
     -623    1    1    2    0    0  0.13249977896E-01 -0.15000685052E-01  0.15469375864E-02  0.17130000118E+03  0.17130000000E+03 0.  1.
      622    1    1    2    0    0  0.77247603711E-02 -0.34506047845E-01  0.14587039163E+01  0.14596806002E+01  0.40000000000E-01 0.  0.
</event>
<event>
 5   0  0.7212170E+07  0.9118800E+02  0.7818608E-02  0.1180000E+00
       11   -1    0    0    0    0  0.00000000000E+00  0.00000000000E+00  0.39999999673E+01  0.40000000000E+01  0.51109989000E-03 0. -1.
     -623   -1    0    0    0    0  0.00000000000E+00  0.00000000000E+00  0.12525980253E-10  0.17130000000E+03  0.17130000000E+03 0.  1.
       11    1    1    2    0    0 -0.13169763081E-02 -0.17425279077E-02  0.35163161000E+00  0.35163876521E+00  0.51109989000E-03 0. -1.
     -623    1    1    2    0    0 -0.33074486125E-03  0.14166872293E-03  0.22712957467E-03  0.17130000000E+03  0.17130000000E+03 0.  1.
      622    1    1    2    0    0  0.16477211695E-02  0.16008591848E-02  0.36481412291E+01  0.36483612355E+01  0.40000000000E-01 0. -1.
</event>
<event>
 5   0  0.7212170E+07  0.9118800E+02  0.7818608E-02  0.1180000E+00
       11   -1    0    0    0    0  0.00000000000E+00  0.00000000000E+00  0.39999999673E+01  0.40000000000E+01  0.51109989000E-03 0. -1.
     -623   -1    0    0    0    0  0.00000000000E+00  0.00000000000E+00  0.12525980253E-10  0.17130000000E+03  0.17130000000E+03 0.  1.
       11    1    1    2    0    0 -0.13074869917E-01 -0.92293568645E-03  0.58095176621E+00  0.58109983645E+00  0.51109989000E-03 0. -1.
     -623    1    1    2    0    0 -0.74618138848E-03  0.66124158070E-06  0.41010362887E-03  0.17130000000E+03  0.17130000000E+03 0.  1.
      622    1    1    2    0    0  0.13821051306E-01  0.92227444487E-03  0.34186380984E+01  0.34189001624E+01  0.40000000000E-01 0.  0.
</event>
<event>
 5   0  0.7212170E+07  0.9118800E+02  0.7818608E-02  0.1180000E+00
       11   -1    0    0    0    0  0.00000000000E+00  0.00000000000E+00  0.39999999673E+01  0.40000000000E+01  0.51109989000E-03 0.  1.
     -623   -1    0    0    0    0  0.00000000000E+00  0.00000000000E+00  0.12525980253E-10  0.17130000000E+03  0.17130000000E+03 0. -1.
       11    1    1    2    0    0 -0.27860512134E-02  0.68446916125E-02  0.12712342103E-01  0.14713148863E-01  0.51109989000E-03 0.  1.
     -623    1    1    2    0    0 -0.22290131145E-01 -0.49315522786E-02  0.22824101255E-02  0.17130000154E+03  0.17130000000E+03 0. -1.
      622    1    1    2    0    0  0.25076182359E-01 -0.19131393339E-02  0.39850052152E+01  0.39852853147E+01  0.40000000000E-01 0.  1.
</event>
<event>
 5   0  0.7212170E+07  0.9118800E+02  0.7818608E-02  0.1180000E+00
       11   -1    0    0    0    0  0.00000000000E+00  0.00000000000E+00  0.39999999673E+01  0.40000000000E+01  0.51109989000E-03 0. -1.
     -623   -1    0    0    0    0  0.00000000000E+00  0.00000000000E+00  0.12525980253E-10  0.17130000000E+03  0.17130000000E+03 0.  1.
       11    1    1    2    0    0  0.17201551228E-02 -0.39749728335E-02  0.19295390737E+00  0.19300318892E+00  0.51109989000E-03 0. -1.
     -623    1    1    2    0    0 -0.17593817581E-02 -0.50219685608E-03  0.26203708720E-03  0.17130000001E+03  0.17130000000E+03 0.  1.
      622    1    1    2    0    0  0.39226635932E-04  0.44771696898E-02  0.38067840243E+01  0.38069968025E+01  0.40000000000E-01 0. -1.
</event>
<event>
 5   0  0.7212170E+07  0.9118800E+02  0.7818608E-02  0.1180000E+00
       11   -1    0    0    0    0  0.00000000000E+00  0.00000000000E+00  0.39999999673E+01  0.40000000000E+01  0.51109989000E-03 0. -1.
     -623   -1    0    0    0    0  0.00000000000E+00  0.00000000000E+00  0.12525980253E-10  0.17130000000E+03  0.17130000000E+03 0. -1.
       11    1    1    2    0    0  0.10872427629E-01 -0.38950307792E-01  0.69255706582E+00  0.69373690028E+00  0.51109989000E-03 0. -1.
     -623    1    1    2    0    0 -0.46853864747E-02 -0.10832800058E-01  0.18028279831E-02  0.17130000042E+03  0.17130000000E+03 0. -1.
      622    1    1    2    0    0 -0.61870411546E-02  0.49783107850E-01  0.33056400736E+01  0.33062626837E+01  0.40000000000E-01 0. -1.
</event>
<event>
 5   0  0.7212170E+07  0.9118800E+02  0.7818608E-02  0.1180000E+00
       11   -1    0    0    0    0  0.00000000000E+00  0.00000000000E+00  0.39999999673E+01  0.40000000000E+01  0.51109989000E-03 0.  1.
     -623   -1    0    0    0    0  0.00000000000E+00  0.00000000000E+00  0.12525980253E-10  0.17130000000E+03  0.17130000000E+03 0.  1.
       11    1    1    2    0    0 -0.18761270527E-04 -0.23418035004E-03  0.33239715959E-03  0.65337844384E-03  0.51109989000E-03 0. -1.
     -623    1    1    2    0    0  0.17635081560E-02 -0.24808979689E-02  0.52231641351E-03  0.17130000003E+03  0.17130000000E+03 0.  1.
      622    1    1    2    0    0 -0.17447468855E-02  0.27150783190E-02  0.39991452538E+01  0.39993465938E+01  0.40000000000E-01 0.  1.
</event>
<event>
 5   0  0.7212170E+07  0.9118800E+02  0.7818608E-02  0.1180000E+00
       11   -1    0    0    0    0  0.00000000000E+00  0.00000000000E+00  0.39999999673E+01  0.40000000000E+01  0.51109989000E-03 0.  1.
     -623   -1    0    0    0    0  0.00000000000E+00  0.00000000000E+00  0.12525980253E-10  0.17130000000E+03  0.17130000000E+03 0. -1.
       11    1    1    2    0    0  0.26346879166E-01 -0.10003130141E-01  0.80737585729E-01  0.85516312051E-01  0.51109989000E-03 0.  1.
     -623    1    1    2    0    0  0.51955445704E-01  0.19917237270E-01  0.57880321522E-02  0.17130000913E+03  0.17130000000E+03 0. -1.
      622    1    1    2    0    0 -0.78302324870E-01 -0.99141071293E-02  0.39134743495E+01  0.39144745532E+01  0.40000000000E-01 0.  1.
</event>
<event>
 5   0  0.7212170E+07  0.9118800E+02  0.7818608E-02  0.1180000E+00
       11   -1    0    0    0    0  0.00000000000E+00  0.00000000000E+00  0.39999999673E+01  0.40000000000E+01  0.51109989000E-03 0. -1.
     -623   -1    0    0    0    0  0.00000000000E+00  0.00000000000E+00  0.12525980253E-10  0.17130000000E+03  0.17130000000E+03 0.  1.
       11    1    1    2    0    0 -0.60432861486E-02  0.27457325458E-01  0.33350434996E+00  0.33468767335E+00  0.51109989000E-03 0. -1.
     -623    1    1    2    0    0  0.63228201252E-01 -0.14885670156E-01  0.18815950462E-02  0.17130001233E+03  0.17130000000E+03 0.  1.
      622    1    1    2    0    0 -0.57184915103E-01 -0.12571655301E-01  0.36646140223E+01  0.36653000005E+01  0.40000000000E-01 0. -1.
</event>
<event>
 5   0  0.7212170E+07  0.9118800E+02  0.7818608E-02  0.1180000E+00
       11   -1    0    0    0    0  0.00000000000E+00  0.00000000000E+00  0.39999999673E+01  0.40000000000E+01  0.51109989000E-03 0. -1.
     -623   -1    0    0    0    0  0.00000000000E+00  0.00000000000E+00  0.12525980253E-10  0.17130000000E+03  0.17130000000E+03 0. -1.
       11    1    1    2    0    0 -0.30700884472E-03  0.55652271858E-03  0.98127834987E-03  0.12759711065E-02  0.51109989000E-03 0.  1.
     -623    1    1    2    0    0  0.57694192737E-03  0.14720052830E-02  0.49526061980E-03  0.17130000001E+03  0.17130000000E+03 0. -1.
      622    1    1    2    0    0 -0.26993308274E-03 -0.20285280019E-02  0.39985234290E+01  0.39987240215E+01  0.40000000000E-01 0. -1.
</event>
<event>
 5   0  0.7212170E+07  0.9118800E+02  0.7818608E-02  0.1180000E+00
       11   -1    0    0    0    0  0.00000000000E+00  0.00000000000E+00  0.39999999673E+01  0.40000000000E+01  0.51109989000E-03 0.  1.
     -623   -1    0    0    0    0  0.00000000000E+00  0.00000000000E+00  0.12525980253E-10  0.17130000000E+03  0.17130000000E+03 0.  1.
       11    1    1    2    0    0 -0.20637762833E-02 -0.69722788981E-03  0.12290606982E-01  0.12492619515E-01  0.51109989000E-03 0.  1.
     -623    1    1    2    0    0 -0.24617873901E-05  0.27335684451E-03  0.40317011759E-03  0.17130000000E+03  0.17130000000E+03 0.  1.
      622    1    1    2    0    0  0.20662380706E-02  0.42387104529E-03  0.39873061904E+01  0.39875073799E+01  0.40000000000E-01 0.  1.
</event>
<event>
 5   0  0.7212170E+07  0.9118800E+02  0.7818608E-02  0.1180000E+00
       11   -1    0    0    0    0  0.00000000000E+00  0.00000000000E+00  0.39999999673E+01  0.40000000000E+01  0.51109989000E-03 0.  1.
     -623   -1    0    0    0    0  0.00000000000E+00  0.00000000000E+00  0.12525980253E-10  0.17130000000E+03  0.17130000000E+03 0.  1.
       11    1    1    2    0    0  0.10588846145E-01 -0.49519360074E-01  0.17482081670E+00  0.18200788406E+00  0.51109989000E-03 0.  1.
     -623    1    1    2    0    0 -0.47139613145E-01 -0.19508693526E-01  0.82034556632E-02  0.17130000779E+03  0.17130000000E+03 0.  1.
      622    1    1    2    0    0  0.36550767001E-01  0.69028053600E-01  0.38169756950E+01  0.38179843225E+01  0.40000000000E-01 0.  1.
</event>
<event>
 5   0  0.7212170E+07  0.9118800E+02  0.7818608E-02  0.1180000E+00
       11   -1    0    0    0    0  0.00000000000E+00  0.00000000000E+00  0.39999999673E+01  0.40000000000E+01  0.51109989000E-03 0.  1.
     -623   -1    0    0    0    0  0.00000000000E+00  0.00000000000E+00  0.12525980253E-10  0.17130000000E+03  0.17130000000E+03 0. -1.
       11    1    1    2    0    0  0.10661158743E-01 -0.50026044407E-02  0.23166734684E+00  0.23196703898E+00  0.51109989000E-03 0.  1.
     -623    1    1    2    0    0 -0.60289751575E-02  0.12318171536E-01  0.52247702341E-03  0.17130000055E+03  0.17130000000E+03 0. -1.
      622    1    1    2    0    0 -0.46321835855E-02 -0.73155670952E-02  0.37678101433E+01  0.37680324111E+01  0.40000000000E-01 0.  1.
</event>
<event>
 5   0  0.7212170E+07  0.9118800E+02  0.7818608E-02  0.1180000E+00
       11   -1    0    0    0    0  0.00000000000E+00  0.00000000000E+00  0.39999999673E+01  0.40000000000E+01  0.51109989000E-03 0.  1.
     -623   -1    0    0    0    0  0.00000000000E+00  0.00000000000E+00  0.12525980253E-10  0.17130000000E+03  0.17130000000E+03 0.  1.
       11    1    1    2    0    0 -0.55513310852E-02  0.48052773538E-02  0.77628185505E+00  0.77631674442E+00  0.51109989000E-03 0.  1.
     -623    1    1    2    0    0 -0.34929752905E-02  0.87867626765E-02  0.32463575197E-03  0.17130000026E+03  0.17130000000E+03 0.  1.
      622    1    1    2    0    0  0.90443063766E-02 -0.13592040033E-01  0.32233934776E+01  0.32236829953E+01  0.40000000000E-01 0.  0.
</event>
<event>
 5   0  0.7212170E+07  0.9118800E+02  0.7818608E-02  0.1180000E+00
       11   -1    0    0    0    0  0.00000000000E+00  0.00000000000E+00  0.39999999673E+01  0.40000000000E+01  0.51109989000E-03 0. -1.
     -623   -1    0    0    0    0  0.00000000000E+00  0.00000000000E+00  0.12525980253E-10  0.17130000000E+03  0.17130000000E+03 0.  1.
       11    1    1    2    0    0 -0.15625317208E-01 -0.15478326559E-01  0.24587401447E+00  0.24685627670E+00  0.51109989000E-03 0. -1.
     -623    1    1    2    0    0 -0.20686327906E-01  0.44863259749E-02  0.13884735062E-02  0.17130000131E+03  0.17130000000E+03 0.  1.
      622    1    1    2    0    0  0.36311645116E-01  0.10992000583E-01  0.37527374798E+01  0.37531424103E+01  0.40000000000E-01 0. -1.
</event>
<event>
 5   0  0.7212170E+07  0.9118800E+02  0.7818608E-02  0.1180000E+00
       11   -1    0    0    0    0  0.00000000000E+00  0.00000000000E+00  0.39999999673E+01  0.40000000000E+01  0.51109989000E-03 0. -1.
     -623   -1    0    0    0    0  0.00000000000E+00  0.00000000000E+00  0.12525980253E-10  0.17130000000E+03  0.17130000000E+03 0.  1.
       11    1    1    2    0    0  0.29419831262E-02 -0.20064013070E-01  0.13529610753E+01  0.13531131337E+01  0.51109989000E-03 0. -1.
     -623    1    1    2    0    0  0.39279294041E-02 -0.25520890023E-02  0.55989993829E-03  0.17130000006E+03  0.17130000000E+03 0.  1.
      622    1    1    2    0    0 -0.68699125306E-02  0.22616102072E-01  0.26464789924E+01  0.26468868017E+01  0.40000000000E-01 0.  0.
</event>
<event>
 5   0  0.7212170E+07  0.9118800E+02  0.7818608E-02  0.1180000E+00
       11   -1    0    0    0    0  0.00000000000E+00  0.00000000000E+00  0.39999999673E+01  0.40000000000E+01  0.51109989000E-03 0.  1.
     -623   -1    0    0    0    0  0.00000000000E+00  0.00000000000E+00  0.12525980253E-10  0.17130000000E+03  0.17130000000E+03 0.  1.
       11    1    1    2    0    0  0.24942460729E-01  0.32426630507E-01  0.15011886441E+01  0.15017460568E+01  0.51109989000E-03 0.  1.
     -623    1    1    2    0    0  0.39533811882E-03 -0.22160936579E-02  0.11888558686E-02  0.17130000002E+03  0.17130000000E+03 0.  1.
      622    1    1    2    0    0 -0.25337798848E-01 -0.30210536849E-01  0.24976224678E+01  0.24982539246E+01  0.40000000000E-01 0.  1.
</event>
<event>
 5   0  0.7212170E+07  0.9118800E+02  0.7818608E-02  0.1180000E+00
       11   -1    0    0    0    0  0.00000000000E+00  0.00000000000E+00  0.39999999673E+01  0.40000000000E+01  0.51109989000E-03 0.  1.
     -623   -1    0    0    0    0  0.00000000000E+00  0.00000000000E+00  0.12525980253E-10  0.17130000000E+03  0.17130000000E+03 0.  1.
       11    1    1    2    0    0 -0.14394248899E-01  0.40241097011E-03  0.33841160447E+00  0.33871821858E+00  0.51109989000E-03 0.  1.
     -623    1    1    2    0    0  0.64558790526E-03  0.35029621350E-03  0.55098631461E-03  0.17130000000E+03  0.17130000000E+03 0.  1.
      622    1    1    2    0    0  0.13748660994E-01 -0.75270718366E-03  0.36610373771E+01  0.36612817795E+01  0.40000000000E-01 0.  1.
</event>
<event>
 5   0  0.7212170E+07  0.9118800E+02  0.7818608E-02  0.1180000E+00
       11   -1    0    0    0    0  0.00000000000E+00  0.00000000000E+00  0.39999999673E+01  0.40000000000E+01  0.51109989000E-03 0. -1.
     -623   -1    0    0    0    0  0.00000000000E+00  0.00000000000E+00  0.12525980253E-10  0.17130000000E+03  0.17130000000E+03 0. -1.
       11    1    1    2    0    0 -0.23879395815E-01  0.12040549153E-01  0.18396003805E+00  0.18589447864E+00  0.51109989000E-03 0. -1.
     -623    1    1    2    0    0  0.39970028102E-02  0.72734707849E-02  0.22451077136E-02  0.17130000022E+03  0.17130000000E+03 0. -1.
      622    1    1    2    0    0  0.19882393005E-01 -0.19314019938E-01  0.38137948216E+01  0.38141053056E+01  0.40000000000E-01 0. -1.
</event>
<event>
 5   0  0.7212170E+07  0.9118800E+02  0.7818608E-02  0.1180000E+00
       11   -1    0    0    0    0  0.00000000000E+00  0.00000000000E+00  0.39999999673E+01  0.40000000000E+01  0.51109989000E-03 0. -1.
     -623   -1    0    0    0    0  0.00000000000E+00  0.00000000000E+00  0.12525980253E-10  0.17130000000E+03  0.17130000000E+03 0. -1.
       11    1    1    2    0    0 -0.32421690536E-02  0.29820161666E-02  0.13964303590E-01  0.14651521370E-01  0.51109989000E-03 0. -1.
     -623    1    1    2    0    0  0.48897286944E-02 -0.21868111139E-02  0.88843142888E-03  0.17130000009E+03  0.17130000000E+03 0. -1.
      622    1    1    2    0    0 -0.16475596402E-02 -0.79520505297E-03  0.39851472319E+01  0.39853483921E+01  0.40000000000E-01 0. -1.
</event>
<event>
 5   0  0.7212170E+07  0.9118800E+02  0.7818608E-02  0.1180000E+00
       11   -1    0    0    0    0  0.00000000000E+00  0.00000000000E+00  0.39999999673E+01  0.40000000000E+01  0.51109989000E-03 0.  1.
     -623   -1    0    0    0    0  0.00000000000E+00  0.00000000000E+00  0.12525980253E-10  0.17130000000E+03  0.17130000000E+03 0.  1.
       11    1    1    2    0    0 -0.27753522994E-02 -0.14390919730E-01  0.90495534161E+00  0.90507415866E+00  0.51109989000E-03 0.  1.
     -623    1    1    2    0    0 -0.58697877975E-03 -0.28719661055E-04  0.41270534686E-03  0.17130000000E+03  0.17130000000E+03 0.  1.
      622    1    1    2    0    0  0.33623310792E-02  0.14419639391E-01  0.30946319204E+01  0.30949258398E+01  0.40000000000E-01 0.  1.
</event>
<event>
 5   0  0.7212170E+07  0.9118800E+02  0.7818608E-02  0.1180000E+00
       11   -1    0    0    0    0  0.00000000000E+00  0.00000000000E+00  0.39999999673E+01  0.40000000000E+01  0.51109989000E-03 0.  1.
     -623   -1    0    0    0    0  0.00000000000E+00  0.00000000000E+00  0.12525980253E-10  0.17130000000E+03  0.17130000000E+03 0.  1.
       11    1    1    2    0    0 -0.35334787829E-04 -0.17409260144E-02  0.52490716119E-02  0.55539218413E-02  0.51109989000E-03 0.  1.
     -623    1    1    2    0    0  0.17939913710E-02  0.78882942113E-03  0.50561329012E-03  0.17130000001E+03  0.17130000000E+03 0.  1.
      622    1    1    2    0    0 -0.17586565830E-02  0.95209659331E-03  0.39942452822E+01  0.39944460659E+01  0.40000000000E-01 0.  1.
</event>
<event>
 5   0  0.7212170E+07  0.9118800E+02  0.7818608E-02  0.1180000E+00
       11   -1    0    0    0    0  0.00000000000E+00  0.00000000000E+00  0.39999999673E+01  0.40000000000E+01  0.51109989000E-03 0.  1.
     -623   -1    0    0    0    0  0.00000000000E+00  0.00000000000E+00  0.12525980253E-10  0.17130000000E+03  0.17130000000E+03 0.  1.
       11    1    1    2    0    0  0.52200244441E-02 -0.43390943553E-02  0.13224258618E-01  0.14873420390E-01  0.51109989000E-03 0.  1.
     -623    1    1    2    0    0 -0.68363955114E-03  0.66763295595E-02  0.18532896325E-02  0.17130000014E+03  0.17130000000E+03 0.  1.
      622    1    1    2    0    0 -0.45363848930E-02 -0.23372352044E-02  0.39849224192E+01  0.39851264382E+01  0.40000000000E-01 0.  1.
</event>
<event>
 5   0  0.7212170E+07  0.9118800E+02  0.7818608E-02  0.1180000E+00
       11   -1    0    0    0    0  0.00000000000E+00  0.00000000000E+00  0.39999999673E+01  0.40000000000E+01  0.51109989000E-03 0. -1.
     -623   -1    0    0    0    0  0.00000000000E+00  0.00000000000E+00  0.12525980253E-10  0.17130000000E+03  0.17130000000E+03 0.  1.
       11    1    1    2    0    0 -0.13858819552E-02  0.28514902247E-02  0.39476119794E+00  0.39477425991E+00  0.51109989000E-03 0. -1.
     -623    1    1    2    0    0 -0.43805323725E-02 -0.23273790033E-02  0.23965822529E-03  0.17130000007E+03  0.17130000000E+03 0.  1.
      622    1    1    2    0    0  0.57664143285E-02 -0.52411122095E-03  0.36049991119E+01  0.36052256688E+01  0.40000000000E-01 0. -1.
</event>
<event>
 5   0  0.7212170E+07  0.9118800E+02  0.7818608E-02  0.1180000E+00
       11   -1    0    0    0    0  0.00000000000E+00  0.00000000000E+00  0.39999999673E+01  0.40000000000E+01  0.51109989000E-03 0.  1.
     -623   -1    0    0    0    0  0.00000000000E+00  0.00000000000E+00  0.12525980253E-10  0.17130000000E+03  0.17130000000E+03 0.  1.
       11    1    1    2    0    0  0.39108530687E-02 -0.14587183797E-02  0.97481550418E-01  0.97572211854E-01  0.51109989000E-03 0.  1.
     -623    1    1    2    0    0 -0.28996502028E-02 -0.36560144135E-02  0.29918161093E-03  0.17130000006E+03  0.17130000000E+03 0.  1.
      622    1    1    2    0    0 -0.10112028651E-02  0.51147327942E-02  0.39022192364E+01  0.39024277254E+01  0.40000000000E-01 0.  1.
</event>
<event>
 5   0  0.7212170E+07  0.9118800E+02  0.7818608E-02  0.1180000E+00
       11   -1    0    0    0    0  0.00000000000E+00  0.00000000000E+00  0.39999999673E+01  0.40000000000E+01  0.51109989000E-03 0.  1.
     -623   -1    0    0    0    0  0.00000000000E+00  0.00000000000E+00  0.12525980253E-10  0.17130000000E+03  0.17130000000E+03 0.  1.
       11    1    1    2    0    0  0.16756368924E-02  0.28045349395E-03  0.52093934192E-02  0.55032186992E-02  0.51109989000E-03 0.  1.
     -623    1    1    2    0    0 -0.15628405343E-02  0.34830845057E-03  0.49413247814E-03  0.17130000001E+03  0.17130000000E+03 0.  1.
      622    1    1    2    0    0 -0.11279635802E-03 -0.62876194453E-03  0.39942964416E+01  0.39944967732E+01  0.40000000000E-01 0.  1.
</event>
<event>
 5   0  0.7212170E+07  0.9118800E+02  0.7818608E-02  0.1180000E+00
       11   -1    0    0    0    0  0.00000000000E+00  0.00000000000E+00  0.39999999673E+01  0.40000000000E+01  0.51109989000E-03 0. -1.
     -623   -1    0    0    0    0  0.00000000000E+00  0.00000000000E+00  0.12525980253E-10  0.17130000000E+03  0.17130000000E+03 0.  1.
       11    1    1    2    0    0 -0.22340398011E-01 -0.87138299110E-02  0.96330224208E+00  0.96360079651E+00  0.51109989000E-03 0. -1.
     -623    1    1    2    0    0  0.13698451408E-01 -0.19309113323E-01  0.70526637471E-03  0.17130000164E+03  0.17130000000E+03 0.  1.
      622    1    1    2    0    0  0.86419466017E-02  0.28022943236E-01  0.30359924592E+01  0.30363975664E+01  0.40000000000E-01 0. -1.
</event>
<event>
 5   0  0.7212170E+07  0.9118800E+02  0.7818608E-02  0.1180000E+00
       11   -1    0    0    0    0  0.00000000000E+00  0.00000000000E+00  0.39999999673E+01  0.40000000000E+01  0.51109989000E-03 0.  1.
     -623   -1    0    0    0    0  0.00000000000E+00  0.00000000000E+00  0.12525980253E-10  0.17130000000E+03  0.17130000000E+03 0.  1.
       11    1    1    2    0    0  0.54855030360E-02 -0.52479179313E-02  0.81644459652E-01  0.81998234134E-01  0.51109989000E-03 0.  1.
     -623    1    1    2    0    0  0.15457018131E-03  0.17062232312E-02  0.56360296062E-03  0.17130000001E+03  0.17130000000E+03 0.  1.
      622    1    1    2    0    0 -0.56400732174E-02  0.35416946999E-02  0.39177919051E+01  0.39180017567E+01  0.40000000000E-01 0.  0.
</event>
<event>
 5   0  0.7212170E+07  0.9118800E+02  0.7818608E-02  0.1180000E+00
       11   -1    0    0    0    0  0.00000000000E+00  0.00000000000E+00  0.39999999673E+01  0.40000000000E+01  0.51109989000E-03 0.  1.
     -623   -1    0    0    0    0  0.00000000000E+00  0.00000000000E+00  0.12525980253E-10  0.17130000000E+03  0.17130000000E+03 0. -1.
       11    1    1    2    0    0 -0.32010941096E-02  0.10495095492E-01  0.15764638901E+00  0.15802860255E+00  0.51109989000E-03 0.  1.
     -623    1    1    2    0    0 -0.42324534630E-02 -0.70970489899E-02  0.59930784084E-03  0.17130000020E+03  0.17130000000E+03 0. -1.
      622    1    1    2    0    0  0.74335475726E-02 -0.33980465017E-02  0.38417542705E+01  0.38419711971E+01  0.40000000000E-01 0.  1.
</event>
<event>
 5   0  0.7212170E+07  0.9118800E+02  0.7818608E-02  0.1180000E+00
       11   -1    0    0    0    0  0.00000000000E+00  0.00000000000E+00  0.39999999673E+01  0.40000000000E+01  0.51109989000E-03 0.  1.
     -623   -1    0    0    0    0  0.00000000000E+00  0.00000000000E+00  0.12525980253E-10  0.17130000000E+03  0.17130000000E+03 0.  1.
       11    1    1    2    0    0 -0.59892099451E-02  0.13237148262E-01  0.66773422060E+00  0.66789246389E+00  0.51109989000E-03 0.  1.
     -623    1    1    2    0    0 -0.11116226760E-02 -0.10066456605E-02  0.42832907165E-03  0.17130000001E+03  0.17130000000E+03 0.  1.
      622    1    1    2    0    0  0.71008326215E-02 -0.12230502601E-01  0.33318374194E+01  0.33321075307E+01  0.40000000000E-01 0.  1.
</event>
<event>
 5   0  0.7212170E+07  0.9118800E+02  0.7818608E-02  0.1180000E+00
       11   -1    0    0    0    0  0.00000000000E+00  0.00000000000E+00  0.39999999673E+01  0.40000000000E+01  0.51109989000E-03 0.  1.
     -623   -1    0    0    0    0  0.00000000000E+00  0.00000000000E+00  0.12525980253E-10  0.17130000000E+03  0.17130000000E+03 0.  1.
       11    1    1    2    0    0 -0.17909515915E-02 -0.74860575224E-02  0.22842880036E+00  0.22855902218E+00  0.51109989000E-03 0.  1.
     -623    1    1    2    0    0  0.25037305825E-02  0.64836378864E-02  0.34265759791E-03  0.17130000014E+03  0.17130000000E+03 0.  1.
      622    1    1    2    0    0 -0.71277899153E-03  0.10024196347E-02  0.37712285102E+01  0.37714408373E+01  0.40000000000E-01 0.  1.
</event>
<event>
 5   0  0.7212170E+07  0.9118800E+02  0.7818608E-02  0.1180000E+00
       11   -1    0    0    0    0  0.00000000000E+00  0.00000000000E+00  0.39999999673E+01  0.40000000000E+01  0.51109989000E-03 0. -1.
     -623   -1    0    0    0    0  0.00000000000E+00  0.00000000000E+00  0.12525980253E-10  0.17130000000E+03  0.17130000000E+03 0. -1.
       11    1    1    2    0    0  0.29717255629E-02  0.23915710034E-02  0.15486424602E+00  0.15491206113E+00  0.51109989000E-03 0. -1.
     -623    1    1    2    0    0 -0.72292886222E-03  0.13285548201E-04  0.25725719943E-03  0.17130000000E+03  0.17130000000E+03 0. -1.
      622    1    1    2    0    0 -0.22487967008E-02 -0.24048565516E-02  0.38448784635E+01  0.38450879365E+01  0.40000000000E-01 0. -1.
</event>
<event>
 5   0  0.7212170E+07  0.9118800E+02  0.7818608E-02  0.1180000E+00
       11   -1    0    0    0    0  0.00000000000E+00  0.00000000000E+00  0.39999999673E+01  0.40000000000E+01  0.51109989000E-03 0. -1.
     -623   -1    0    0    0    0  0.00000000000E+00  0.00000000000E+00  0.12525980253E-10  0.17130000000E+03  0.17130000000E+03 0.  1.
       11    1    1    2    0    0  0.15882463800E-01 -0.21936172842E-01  0.46786111141E+00  0.46864456588E+00  0.51109989000E-03 0. -1.
     -623    1    1    2    0    0 -0.25369584014E-01 -0.29178448497E-02  0.11120923466E-02  0.17130000191E+03  0.17130000000E+03 0.  1.
      622    1    1    2    0    0  0.94871202153E-02  0.24854017692E-01  0.35310267638E+01  0.35313535273E+01  0.40000000000E-01 0. -1.
</event>
<event>
 5   0  0.7212170E+07  0.9118800E+02  0.7818608E-02  0.1180000E+00
       11   -1    0    0    0    0  0.00000000000E+00  0.00000000000E+00  0.39999999673E+01  0.40000000000E+01  0.51109989000E-03 0.  1.
     -623   -1    0    0    0    0  0.00000000000E+00  0.00000000000E+00  0.12525980253E-10  0.17130000000E+03  0.17130000000E+03 0. -1.
       11    1    1    2    0    0  0.76121535033E-02  0.33508313766E-02  0.83523828072E+00  0.83527984517E+00  0.51109989000E-03 0.  1.
     -623    1    1    2    0    0 -0.92714633897E-03 -0.10795443137E-01  0.31048997777E-03  0.17130000034E+03  0.17130000000E+03 0. -1.
      622    1    1    2    0    0 -0.66850071645E-02  0.74446117587E-02  0.31644511960E+01  0.31647198112E+01  0.40000000000E-01 0.  1.
</event>
<event>
 5   0  0.7212170E+07  0.9118800E+02  0.7818608E-02  0.1180000E+00
       11   -1    0    0    0    0  0.00000000000E+00  0.00000000000E+00  0.39999999673E+01  0.40000000000E+01  0.51109989000E-03 0.  1.
     -623   -1    0    0    0    0  0.00000000000E+00  0.00000000000E+00  0.12525980253E-10  0.17130000000E+03  0.17130000000E+03 0. -1.
       11    1    1    2    0    0 -0.11954178928E-01  0.18322705309E-01  0.26416879037E+01  0.26417785422E+01  0.51109989000E-03 0.  1.
     -623    1    1    2    0    0  0.52290431245E-02 -0.18353949387E-01  0.69746130600E-03  0.17130000106E+03  0.17130000000E+03 0. -1.
      622    1    1    2    0    0  0.67251358026E-02  0.31244081333E-04  0.13576146030E+01  0.13582203940E+01  0.40000000000E-01 0.  1.
</event>
<event>
 5   0  0.7212170E+07  0.9118800E+02  0.7818608E-02  0.1180000E+00
       11   -1    0    0    0    0  0.00000000000E+00  0.00000000000E+00  0.39999999673E+01  0.40000000000E+01  0.51109989000E-03 0.  1.
     -623   -1    0    0    0    0  0.00000000000E+00  0.00000000000E+00  0.12525980253E-10  0.17130000000E+03  0.17130000000E+03 0. -1.
       11    1    1    2    0    0  0.60712631293E-02  0.47858980138E-02  0.14533573862E+00  0.14554210112E+00  0.51109989000E-03 0.  1.
     -623    1    1    2    0    0  0.45085942603E-02 -0.41157396284E-02  0.42857571515E-03  0.17130000011E+03  0.17130000000E+03 0. -1.
      622    1    1    2    0    0 -0.10579857390E-01 -0.67015838467E-03  0.38542356537E+01  0.38544577903E+01  0.40000000000E-01 0.  1.
</event>
<event>
 5   0  0.7212170E+07  0.9118800E+02  0.7818608E-02  0.1180000E+00
       11   -1    0    0    0    0  0.00000000000E+00  0.00000000000E+00  0.39999999673E+01  0.40000000000E+01  0.51109989000E-03 0. -1.
     -623   -1    0    0    0    0  0.00000000000E+00  0.00000000000E+00  0.12525980253E-10  0.17130000000E+03  0.17130000000E+03 0. -1.
       11    1    1    2    0    0 -0.15578370115E-03 -0.16439581895E-02  0.89967162920E-01  0.89983767947E-01  0.51109989000E-03 0. -1.
     -623    1    1    2    0    0 -0.18185220953E-02 -0.18129873806E-02  0.22322660765E-03  0.17130000002E+03  0.17130000000E+03 0. -1.
      622    1    1    2    0    0  0.19743057964E-02  0.34569455701E-02  0.39098095777E+01  0.39100162126E+01  0.40000000000E-01 0. -1.
</event>
<event>
 5   0  0.7212170E+07  0.9118800E+02  0.7818608E-02  0.1180000E+00
       11   -1    0    0    0    0  0.00000000000E+00  0.00000000000E+00  0.39999999673E+01  0.40000000000E+01  0.51109989000E-03 0. -1.
     -623   -1    0    0    0    0  0.00000000000E+00  0.00000000000E+00  0.12525980253E-10  0.17130000000E+03  0.17130000000E+03 0.  1.
       11    1    1    2    0    0 -0.13094743243E-02 -0.45249821062E-02  0.74503786339E-01  0.74654307230E-01  0.51109989000E-03 0. -1.
     -623    1    1    2    0    0 -0.16170642816E-02  0.28151596522E-02  0.35579178638E-03  0.17130000003E+03  0.17130000000E+03 0.  1.
      622    1    1    2    0    0  0.29265386059E-02  0.17098224541E-02  0.39251403891E+01  0.39253456615E+01  0.40000000000E-01 0. -1.
</event>
<event>
 5   0  0.7212170E+07  0.9118800E+02  0.7818608E-02  0.1180000E+00
       11   -1    0    0    0    0  0.00000000000E+00  0.00000000000E+00  0.39999999673E+01  0.40000000000E+01  0.51109989000E-03 0.  1.
     -623   -1    0    0    0    0  0.00000000000E+00  0.00000000000E+00  0.12525980253E-10  0.17130000000E+03  0.17130000000E+03 0. -1.
       11    1    1    2    0    0  0.14981157988E-01  0.16014037809E-02  0.79125931087E-01  0.80549201003E-01  0.51109989000E-03 0.  1.
     -623    1    1    2    0    0 -0.35595262687E-02  0.83300623251E-03  0.16447985202E-02  0.17130000005E+03  0.17130000000E+03 0. -1.
      622    1    1    2    0    0 -0.11421631719E-01 -0.24344100135E-02  0.39192292378E+01  0.39194507521E+01  0.40000000000E-01 0.  1.
</event>
<event>
 5   0  0.7212170E+07  0.9118800E+02  0.7818608E-02  0.1180000E+00
       11   -1    0    0    0    0  0.00000000000E+00  0.00000000000E+00  0.39999999673E+01  0.40000000000E+01  0.51109989000E-03 0. -1.
     -623   -1    0    0    0    0  0.00000000000E+00  0.00000000000E+00  0.12525980253E-10  0.17130000000E+03  0.17130000000E+03 0.  1.
       11    1    1    2    0    0  0.54508117580E-03  0.39394545660E-03  0.23339747621E-02  0.24821296901E-02  0.51109989000E-03 0. -1.
     -623    1    1    2    0    0 -0.80768104546E-03 -0.46793159831E-03  0.34826368868E-03  0.17130000000E+03  0.17130000000E+03 0.  1.
      622    1    1    2    0    0  0.26259986978E-03  0.73986141770E-04  0.39973177295E+01  0.39975178680E+01  0.40000000000E-01 0. -1.
</event>
<event>
 5   0  0.7212170E+07  0.9118800E+02  0.7818608E-02  0.1180000E+00
       11   -1    0    0    0    0  0.00000000000E+00  0.00000000000E+00  0.39999999673E+01  0.40000000000E+01  0.51109989000E-03 0.  1.
     -623   -1    0    0    0    0  0.00000000000E+00  0.00000000000E+00  0.12525980253E-10  0.17130000000E+03  0.17130000000E+03 0. -1.
       11    1    1    2    0    0  0.11553514627E-02  0.50435485876E-03  0.19846810081E-01  0.19893373377E-01  0.51109989000E-03 0.  1.
     -623    1    1    2    0    0 -0.39262777128E-03  0.13809623550E-02  0.24806119941E-03  0.17130000001E+03  0.17130000000E+03 0. -1.
      622    1    1    2    0    0 -0.76272369137E-03 -0.18853172140E-02  0.39799050967E+01  0.39801066210E+01  0.40000000000E-01 0.  1.
</event>
<event>
 5   0  0.7212170E+07  0.9118800E+02  0.7818608E-02  0.1180000E+00
       11   -1    0    0    0    0  0.00000000000E+00  0.00000000000E+00  0.39999999673E+01  0.40000000000E+01  0.51109989000E-03 0.  1.
     -623   -1    0    0    0    0  0.00000000000E+00  0.00000000000E+00  0.12525980253E-10  0.17130000000E+03  0.17130000000E+03 0. -1.
       11    1    1    2    0    0  0.49416233674E-01 -0.30797012837E-01  0.11178668822E+01  0.11193824404E+01  0.51109989000E-03 0.  1.
     -623    1    1    2    0    0 -0.35412542465E-01  0.24853100292E-01  0.18389058227E-02  0.17130000547E+03  0.17130000000E+03 0. -1.
      622    1    1    2    0    0 -0.14003691208E-01  0.59439125440E-02  0.28802941794E+01  0.28806120866E+01  0.40000000000E-01 0.  0.
</event>
<event>
 5   0  0.7212170E+07  0.9118800E+02  0.7818608E-02  0.1180000E+00
       11   -1    0    0    0    0  0.00000000000E+00  0.00000000000E+00  0.39999999673E+01  0.40000000000E+01  0.51109989000E-03 0.  1.
     -623   -1    0    0    0    0  0.00000000000E+00  0.00000000000E+00  0.12525980253E-10  0.17130000000E+03  0.17130000000E+03 0.  1.
       11    1    1    2    0    0  0.95644090484E-04 -0.18045517037E-03  0.33652099098E-03  0.64512117892E-03  0.51109989000E-03 0. -1.
     -623    1    1    2    0    0  0.10774212234E-02 -0.10769093456E-03  0.50879141704E-03  0.17130000000E+03  0.17130000000E+03 0.  1.
      622    1    1    2    0    0 -0.11730653139E-02  0.28814610493E-03  0.39991546552E+01  0.39993548749E+01  0.40000000000E-01 0.  1.
</event>
<event>
 5   0  0.7212170E+07  0.9118800E+02  0.7818608E-02  0.1180000E+00
       11   -1    0    0    0    0  0.00000000000E+00  0.00000000000E+00  0.39999999673E+01  0.40000000000E+01  0.51109989000E-03 0.  1.
     -623   -1    0    0    0    0  0.00000000000E+00  0.00000000000E+00  0.12525980253E-10  0.17130000000E+03  0.17130000000E+03 0.  1.
       11    1    1    2    0    0 -0.32345849623E-02 -0.93803957593E-03  0.50605608685E+00  0.50606755154E+00  0.51109989000E-03 0.  1.
     -623    1    1    2    0    0  0.10737167378E-02 -0.65857473264E-03  0.24144579383E-03  0.17130000000E+03  0.17130000000E+03 0.  1.
      622    1    1    2    0    0  0.21608682244E-02  0.15966143086E-02  0.34937024352E+01  0.34939324442E+01  0.40000000000E-01 0.  1.
</event>
<event>
 5   0  0.7212170E+07  0.9118800E+02  0.7818608E-02  0.1180000E+00
       11   -1    0    0    0    0  0.00000000000E+00  0.00000000000E+00  0.39999999673E+01  0.40000000000E+01  0.51109989000E-03 0. -1.
     -623   -1    0    0    0    0  0.00000000000E+00  0.00000000000E+00  0.12525980253E-10  0.17130000000E+03  0.17130000000E+03 0. -1.
       11    1    1    2    0    0 -0.86651867340E-03  0.84902002290E-04  0.36520111653E-03  0.10736190732E-02  0.51109989000E-03 0. -1.
     -623    1    1    2    0    0 -0.22092343725E-02 -0.15084110337E-02  0.90990360837E-03  0.17130000002E+03  0.17130000000E+03 0. -1.
      622    1    1    2    0    0  0.30757530459E-02  0.14235090314E-02  0.39987248625E+01  0.39989263575E+01  0.40000000000E-01 0. -1.
</event>
<event>
 5   0  0.7212170E+07  0.9118800E+02  0.7818608E-02  0.1180000E+00
       11   -1    0    0    0    0  0.00000000000E+00  0.00000000000E+00  0.39999999673E+01  0.40000000000E+01  0.51109989000E-03 0.  1.
     -623   -1    0    0    0    0  0.00000000000E+00  0.00000000000E+00  0.12525980253E-10  0.17130000000E+03  0.17130000000E+03 0.  1.
       11    1    1    2    0    0  0.31972699036E-02  0.24773923157E-03  0.25158255726E+00  0.25160351398E+00  0.51109989000E-03 0.  1.
     -623    1    1    2    0    0  0.40361616274E-02 -0.67707827331E-02  0.24719214348E-03  0.17130000018E+03  0.17130000000E+03 0.  1.
      622    1    1    2    0    0 -0.72334315322E-02  0.65230435035E-02  0.37481702191E+01  0.37483963057E+01  0.40000000000E-01 0.  1.
</event>
<event>
 5   0  0.7212170E+07  0.9118800E+02  0.7818608E-02  0.1180000E+00
       11   -1    0    0    0    0  0.00000000000E+00  0.00000000000E+00  0.39999999673E+01  0.40000000000E+01  0.51109989000E-03 0.  1.
     -623   -1    0    0    0    0  0.00000000000E+00  0.00000000000E+00  0.12525980253E-10  0.17130000000E+03  0.17130000000E+03 0. -1.
       11    1    1    2    0    0 -0.34334170419E-02  0.17563615508E-02  0.68045661784E-01  0.68156778601E-01  0.51109989000E-03 0.  1.
     -623    1    1    2    0    0 -0.19093724453E-03 -0.20870183028E-02  0.31625391352E-03  0.17130000001E+03  0.17130000000E+03 0. -1.
      622    1    1    2    0    0  0.36243542864E-02  0.33065675190E-03  0.39316380514E+01  0.39318432080E+01  0.40000000000E-01 0.  1.
</event>
<event>
 5   0  0.7212170E+07  0.9118800E+02  0.7818608E-02  0.1180000E+00
       11   -1    0    0    0    0  0.00000000000E+00  0.00000000000E+00  0.39999999673E+01  0.40000000000E+01  0.51109989000E-03 0.  1.
     -623   -1    0    0    0    0  0.00000000000E+00  0.00000000000E+00  0.12525980253E-10  0.17130000000E+03  0.17130000000E+03 0.  1.
       11    1    1    2    0    0 -0.11829078229E-02 -0.18024502777E-01  0.10626479248E+00  0.10779030251E+00  0.51109989000E-03 0.  1.
     -623    1    1    2    0    0  0.32264725598E-02  0.61451906499E-02  0.17498369230E-02  0.17130000015E+03  0.17130000000E+03 0.  1.
      622    1    1    2    0    0 -0.20435647370E-02  0.11879312127E-01  0.38919853380E+01  0.38922095480E+01  0.40000000000E-01 0.  1.
</event>
<event>
 5   0  0.7212170E+07  0.9118800E+02  0.7818608E-02  0.1180000E+00
       11   -1    0    0    0    0  0.00000000000E+00  0.00000000000E+00  0.39999999673E+01  0.40000000000E+01  0.51109989000E-03 0. -1.
     -623   -1    0    0    0    0  0.00000000000E+00  0.00000000000E+00  0.12525980253E-10  0.17130000000E+03  0.17130000000E+03 0.  1.
       11    1    1    2    0    0 -0.90980572227E-02 -0.10611482317E-01  0.11559342884E+01  0.11560189093E+01  0.51109989000E-03 0. -1.
     -623    1    1    2    0    0 -0.12122391739E-02 -0.90580442761E-03  0.40791936495E-03  0.17130000001E+03  0.17130000000E+03 0.  1.
      622    1    1    2    0    0  0.10310296397E-01  0.11517286745E-01  0.28436577602E+01  0.28439810842E+01  0.40000000000E-01 0.  0.
</event>
<event>
 5   0  0.7212170E+07  0.9118800E+02  0.7818608E-02  0.1180000E+00
       11   -1    0    0    0    0  0.00000000000E+00  0.00000000000E+00  0.39999999673E+01  0.40000000000E+01  0.51109989000E-03 0.  1.
     -623   -1    0    0    0    0  0.00000000000E+00  0.00000000000E+00  0.12525980253E-10  0.17130000000E+03  0.17130000000E+03 0.  1.
       11    1    1    2    0    0 -0.11230776705E-01 -0.41955009447E-02  0.27394842780E+00  0.27421111372E+00  0.51109989000E-03 0.  1.
     -623    1    1    2    0    0 -0.16889768000E-02 -0.11087992635E-01  0.53149832338E-03  0.17130000037E+03  0.17130000000E+03 0.  1.
      622    1    1    2    0    0  0.12919753505E-01  0.15283493579E-01  0.37255200410E+01  0.37257885180E+01  0.40000000000E-01 0.  1.
</event>
<event>
 5   0  0.7212170E+07  0.9118800E+02  0.7818608E-02  0.1180000E+00
       11   -1    0    0    0    0  0.00000000000E+00  0.00000000000E+00  0.39999999673E+01  0.40000000000E+01  0.51109989000E-03 0.  1.
     -623   -1    0    0    0    0  0.00000000000E+00  0.00000000000E+00  0.12525980253E-10  0.17130000000E+03  0.17130000000E+03 0. -1.
       11    1    1    2    0    0  0.11795506547E-02 -0.17619556967E-02  0.18899912557E-01  0.19025344816E-01  0.51109989000E-03 0.  1.
     -623    1    1    2    0    0 -0.12714449267E-02  0.16134798067E-03  0.32668846164E-03  0.17130000001E+03  0.17130000000E+03 0. -1.
      622    1    1    2    0    0  0.91894272563E-04  0.16006077160E-02  0.39807733678E+01  0.39809746516E+01  0.40000000000E-01 0.  1.
</event>
<event>
 5   0  0.7212170E+07  0.9118800E+02  0.7818608E-02  0.1180000E+00
       11   -1    0    0    0    0  0.00000000000E+00  0.00000000000E+00  0.39999999673E+01  0.40000000000E+01  0.51109989000E-03 0.  1.
     -623   -1    0    0    0    0  0.00000000000E+00  0.00000000000E+00  0.12525980253E-10  0.17130000000E+03  0.17130000000E+03 0.  1.
       11    1    1    2    0    0 -0.12189313577E-02  0.81051319921E-03  0.34717398038E-02  0.38022264088E-02  0.51109989000E-03 0.  1.
     -623    1    1    2    0    0  0.41192587667E-03 -0.10284762644E-02  0.53074111000E-03  0.17130000000E+03  0.17130000000E+03 0.  1.
      622    1    1    2    0    0  0.80700548106E-03  0.21796306520E-03  0.39959974864E+01  0.39961977691E+01  0.40000000000E-01 0.  1.
</event>
<event>
 5   0  0.7212170E+07  0.9118800E+02  0.7818608E-02  0.1180000E+00
       11   -1    0    0    0    0  0.00000000000E+00  0.00000000000E+00  0.39999999673E+01  0.40000000000E+01  0.51109989000E-03 0. -1.
     -623   -1    0    0    0    0  0.00000000000E+00  0.00000000000E+00  0.12525980253E-10  0.17130000000E+03  0.17130000000E+03 0. -1.
       11    1    1    2    0    0 -0.20414555727E-02 -0.30295735223E-03  0.82767968190E+00  0.82768241275E+00  0.51109989000E-03 0. -1.
     -623    1    1    2    0    0 -0.88471500247E-03 -0.41533209448E-02  0.25942250612E-03  0.17130000005E+03  0.17130000000E+03 0. -1.
      622    1    1    2    0    0  0.29261705753E-02  0.44562782979E-02  0.31720608638E+01  0.31723175353E+01  0.40000000000E-01 0. -1.
</event>
<event>
 5   0  0.7212170E+07  0.9118800E+02  0.7818608E-02  0.1180000E+00
       11   -1    0    0    0    0  0.00000000000E+00  0.00000000000E+00  0.39999999673E+01  0.40000000000E+01  0.51109989000E-03 0. -1.
     -623   -1    0    0    0    0  0.00000000000E+00  0.00000000000E+00  0.12525980253E-10  0.17130000000E+03  0.17130000000E+03 0.  1.
       11    1    1    2    0    0  0.18970076457E-01  0.22168972537E-02  0.41943422268E+00  0.41986915440E+00  0.51109989000E-03 0. -1.
     -623    1    1    2    0    0  0.76895478342E-03 -0.13809544472E-02  0.71288727614E-03  0.17130000001E+03  0.17130000000E+03 0.  1.
      622    1    1    2    0    0 -0.19739031240E-01 -0.83594280631E-03  0.35798528579E+01  0.35801308373E+01  0.40000000000E-01 0. -1.
</event>
<event>
 5   0  0.7212170E+07  0.9118800E+02  0.7818608E-02  0.1180000E+00
       11   -1    0    0    0    0  0.00000000000E+00  0.00000000000E+00  0.39999999673E+01  0.40000000000E+01  0.51109989000E-03 0. -1.
     -623   -1    0    0    0    0  0.00000000000E+00  0.00000000000E+00  0.12525980253E-10  0.17130000000E+03  0.17130000000E+03 0.  1.
       11    1    1    2    0    0 -0.38781275452E-03 -0.15455839428E-02  0.16064665492E-01  0.16151592148E-01  0.51109989000E-03 0. -1.
     -623    1    1    2    0    0 -0.34961975286E-03  0.13898523254E-02  0.28778746702E-03  0.17130000001E+03  0.17130000000E+03 0.  1.
      622    1    1    2    0    0  0.73743250754E-03  0.15573161674E-03  0.39836475163E+01  0.39838484035E+01  0.40000000000E-01 0. -1.
</event>
<event>
 5   0  0.7212170E+07  0.9118800E+02  0.7818608E-02  0.1180000E+00
       11   -1    0    0    0    0  0.00000000000E+00  0.00000000000E+00  0.39999999673E+01  0.40000000000E+01  0.51109989000E-03 0.  1.
     -623   -1    0    0    0    0  0.00000000000E+00  0.00000000000E+00  0.12525980253E-10  0.17130000000E+03  0.17130000000E+03 0.  1.
       11    1    1    2    0    0 -0.76184138508E-02  0.16094724219E-01  0.31776304987E+00  0.31826199501E+00  0.51109989000E-03 0.  1.
     -623    1    1    2    0    0  0.27861889185E-03  0.65183366999E-03  0.76161614899E-03  0.17130000000E+03  0.17130000000E+03 0.  1.
      622    1    1    2    0    0  0.73397949590E-02 -0.16746557889E-01  0.36814753014E+01  0.36817380019E+01  0.40000000000E-01 0.  1.
</event>
<event>
 5   0  0.7212170E+07  0.9118800E+02  0.7818608E-02  0.1180000E+00
       11   -1    0    0    0    0  0.00000000000E+00  0.00000000000E+00  0.39999999673E+01  0.40000000000E+01  0.51109989000E-03 0.  1.
     -623   -1    0    0    0    0  0.00000000000E+00  0.00000000000E+00  0.12525980253E-10  0.17130000000E+03  0.17130000000E+03 0.  1.
       11    1    1    2    0    0 -0.33344130260E-01 -0.26069225669E-01  0.15007488936E+01  0.15013457092E+01  0.51109989000E-03 0.  1.
     -623    1    1    2    0    0  0.22630875302E-01  0.61538715031E-03  0.10711161476E-02  0.17130000150E+03  0.17130000000E+03 0.  1.
      622    1    1    2    0    0  0.10713254958E-01  0.25453838518E-01  0.24981799577E+01  0.24986527915E+01  0.40000000000E-01 0.  1.
</event>
<event>
 5   0  0.7212170E+07  0.9118800E+02  0.7818608E-02  0.1180000E+00
       11   -1    0    0    0    0  0.00000000000E+00  0.00000000000E+00  0.39999999673E+01  0.40000000000E+01  0.51109989000E-03 0.  1.
     -623   -1    0    0    0    0  0.00000000000E+00  0.00000000000E+00  0.12525980253E-10  0.17130000000E+03  0.17130000000E+03 0. -1.
       11    1    1    2    0    0  0.12151118191E-01  0.16886518933E-04  0.94185957459E+00  0.94193809214E+00  0.51109989000E-03 0.  1.
     -623    1    1    2    0    0 -0.20264324346E-05 -0.12279653792E-02  0.36447948613E-03  0.17130000000E+03  0.17130000000E+03 0. -1.
      622    1    1    2    0    0 -0.12149091759E-01  0.12110788603E-02  0.30577759137E+01  0.30580619035E+01  0.40000000000E-01 0.  1.
</event>
<event>
 5   0  0.7212170E+07  0.9118800E+02  0.7818608E-02  0.1180000E+00
       11   -1    0    0    0    0  0.00000000000E+00  0.00000000000E+00  0.39999999673E+01  0.40000000000E+01  0.51109989000E-03 0.  1.
     -623   -1    0    0    0    0  0.00000000000E+00  0.00000000000E+00  0.12525980253E-10  0.17130000000E+03  0.17130000000E+03 0.  1.
       11    1    1    2    0    0 -0.17744901480E-02 -0.12676320583E-02  0.54077791151E-01  0.54124157501E-01  0.51109989000E-03 0.  1.
     -623    1    1    2    0    0  0.89592521576E-03  0.18533428542E-02  0.24923608276E-03  0.17130000001E+03  0.17130000000E+03 0.  1.
      622    1    1    2    0    0  0.87856493171E-03 -0.58571079701E-03  0.39456729426E+01  0.39458758324E+01  0.40000000000E-01 0.  1.
</event>
<event>
 5   0  0.7212170E+07  0.9118800E+02  0.7818608E-02  0.1180000E+00
       11   -1    0    0    0    0  0.00000000000E+00  0.00000000000E+00  0.39999999673E+01  0.40000000000E+01  0.51109989000E-03 0.  1.
     -623   -1    0    0    0    0  0.00000000000E+00  0.00000000000E+00  0.12525980253E-10  0.17130000000E+03  0.17130000000E+03 0. -1.
       11    1    1    2    0    0  0.78962188153E-03  0.50166650878E-03  0.11657734757E-01  0.11706373254E-01  0.51109989000E-03 0.  1.
     -623    1    1    2    0    0 -0.28112074467E-02 -0.18151959869E-02  0.24995949700E-03  0.17130000003E+03  0.17130000000E+03 0. -1.
      622    1    1    2    0    0  0.20215855659E-02  0.13135294785E-02  0.39880922740E+01  0.39882935948E+01  0.40000000000E-01 0.  1.
</event>
<event>
 5   0  0.7212170E+07  0.9118800E+02  0.7818608E-02  0.1180000E+00
       11   -1    0    0    0    0  0.00000000000E+00  0.00000000000E+00  0.39999999673E+01  0.40000000000E+01  0.51109989000E-03 0. -1.
     -623   -1    0    0    0    0  0.00000000000E+00  0.00000000000E+00  0.12525980253E-10  0.17130000000E+03  0.17130000000E+03 0.  1.
       11    1    1    2    0    0 -0.25582171962E-02  0.12587759038E-02  0.89439432311E+00  0.89439901354E+00  0.51109989000E-03 0. -1.
     -623    1    1    2    0    0 -0.78624974364E-02 -0.94492086918E-02  0.29099488372E-03  0.17130000044E+03  0.17130000000E+03 0.  1.
      622    1    1    2    0    0  0.10420714636E-01  0.81904327921E-02  0.31053146511E+01  0.31056005469E+01  0.40000000000E-01 0.  0.
</event>
<event>
 5   0  0.7212170E+07  0.9118800E+02  0.7818608E-02  0.1180000E+00
       11   -1    0    0    0    0  0.00000000000E+00  0.00000000000E+00  0.39999999673E+01  0.40000000000E+01  0.51109989000E-03 0.  1.
     -623   -1    0    0    0    0  0.00000000000E+00  0.00000000000E+00  0.12525980253E-10  0.17130000000E+03  0.17130000000E+03 0.  1.
       11    1    1    2    0    0 -0.10546095157E-02 -0.13658012638E-04  0.42587095497E-02  0.44170372308E-02  0.51109989000E-03 0.  1.
     -623    1    1    2    0    0  0.34727059796E-03  0.65013773608E-04  0.35858483694E-03  0.17130000000E+03  0.17130000000E+03 0.  1.
      622    1    1    2    0    0  0.70733891777E-03 -0.51355760967E-04  0.39953826728E+01  0.39955829618E+01  0.40000000000E-01 0.  1.
</event>
<event>
 5   0  0.7212170E+07  0.9118800E+02  0.7818608E-02  0.1180000E+00
       11   -1    0    0    0    0  0.00000000000E+00  0.00000000000E+00  0.39999999673E+01  0.40000000000E+01  0.51109989000E-03 0.  1.
     -623   -1    0    0    0    0  0.00000000000E+00  0.00000000000E+00  0.12525980253E-10  0.17130000000E+03  0.17130000000E+03 0.  1.
       11    1    1    2    0    0 -0.26332921704E-02 -0.49626008368E-03  0.31038546965E-01  0.31158195110E-01  0.51109989000E-03 0.  1.
     -623    1    1    2    0    0  0.13497507801E-02  0.56944369850E-03  0.32140556721E-03  0.17130000001E+03  0.17130000000E+03 0.  1.
      622    1    1    2    0    0  0.12835413901E-02 -0.73183614883E-04  0.39686400153E+01  0.39688417988E+01  0.40000000000E-01 0.  1.
</event>
<event>
 5   0  0.7212170E+07  0.9118800E+02  0.7818608E-02  0.1180000E+00
       11   -1    0    0    0    0  0.00000000000E+00  0.00000000000E+00  0.39999999673E+01  0.40000000000E+01  0.51109989000E-03 0. -1.
     -623   -1    0    0    0    0  0.00000000000E+00  0.00000000000E+00  0.12525980253E-10  0.17130000000E+03  0.17130000000E+03 0.  1.
       11    1    1    2    0    0  0.26531823077E-01  0.15821749629E-01  0.14036328124E+01  0.14039727913E+01  0.51109989000E-03 0. -1.
     -623    1    1    2    0    0 -0.10302557443E-02  0.16956229351E-02  0.83252603402E-03  0.17130000001E+03  0.17130000000E+03 0.  1.
      622    1    1    2    0    0 -0.25501567332E-01 -0.17517372564E-01  0.25955346290E+01  0.25960271953E+01  0.40000000000E-01 0. -1.
</event>
<event>
 5   0  0.7212170E+07  0.9118800E+02  0.7818608E-02  0.1180000E+00
       11   -1    0    0    0    0  0.00000000000E+00  0.00000000000E+00  0.39999999673E+01  0.40000000000E+01  0.51109989000E-03 0.  1.
     -623   -1    0    0    0    0  0.00000000000E+00  0.00000000000E+00  0.12525980253E-10  0.17130000000E+03  0.17130000000E+03 0. -1.
       11    1    1    2    0    0 -0.11270540123E-02  0.19940958805E-02  0.25134214349E-01  0.25243546168E-01  0.51109989000E-03 0.  1.
     -623    1    1    2    0    0  0.12780158673E-02 -0.16798905206E-02  0.31060304239E-03  0.17130000001E+03  0.17130000000E+03 0. -1.
      622    1    1    2    0    0 -0.15096185484E-03 -0.31420536006E-03  0.39745551495E+01  0.39747564401E+01  0.40000000000E-01 0.  1.
</event>
<event>
 5   0  0.7212170E+07  0.9118800E+02  0.7818608E-02  0.1180000E+00
       11   -1    0    0    0    0  0.00000000000E+00  0.00000000000E+00  0.39999999673E+01  0.40000000000E+01  0.51109989000E-03 0. -1.
     -623   -1    0    0    0    0  0.00000000000E+00  0.00000000000E+00  0.12525980253E-10  0.17130000000E+03  0.17130000000E+03 0.  1.
       11    1    1    2    0    0  0.14639180684E-02  0.21694206461E-02  0.16857309459E-01  0.17066913820E-01  0.51109989000E-03 0. -1.
     -623    1    1    2    0    0  0.57524981468E-03 -0.58793395945E-03  0.41127227918E-03  0.17130000000E+03  0.17130000000E+03 0.  1.
      622    1    1    2    0    0 -0.20391678831E-02 -0.15814866867E-02  0.39827313857E+01  0.39829330838E+01  0.40000000000E-01 0. -1.
</event>
<event>
 5   0  0.7212170E+07  0.9118800E+02  0.7818608E-02  0.1180000E+00
       11   -1    0    0    0    0  0.00000000000E+00  0.00000000000E+00  0.39999999673E+01  0.40000000000E+01  0.51109989000E-03 0.  1.
     -623   -1    0    0    0    0  0.00000000000E+00  0.00000000000E+00  0.12525980253E-10  0.17130000000E+03  0.17130000000E+03 0.  1.
       11    1    1    2    0    0 -0.27306335877E-02 -0.64920435293E-02  0.20562526408E+00  0.20574647856E+00  0.51109989000E-03 0.  1.
     -623    1    1    2    0    0 -0.89537637283E-04 -0.37354730128E-03  0.33929366185E-03  0.17130000000E+03  0.17130000000E+03 0.  1.
      622    1    1    2    0    0  0.28201712250E-02  0.68655908307E-02  0.37940354104E+01  0.37942535214E+01  0.40000000000E-01 0.  1.
</event>
<event>
 5   0  0.7212170E+07  0.9118800E+02  0.7818608E-02  0.1180000E+00
       11   -1    0    0    0    0  0.00000000000E+00  0.00000000000E+00  0.39999999673E+01  0.40000000000E+01  0.51109989000E-03 0. -1.
     -623   -1    0    0    0    0  0.00000000000E+00  0.00000000000E+00  0.12525980253E-10  0.17130000000E+03  0.17130000000E+03 0. -1.
       11    1    1    2    0    0 -0.49907412387E-01  0.18953405152E-01  0.22520707840E+01  0.22527035000E+01  0.51109989000E-03 0. -1.
     -623    1    1    2    0    0  0.60565542272E-02  0.11676094873E-01  0.19102278449E-02  0.17130000052E+03  0.17130000000E+03 0. -1.
      622    1    1    2    0    0  0.43850858160E-01 -0.30629500025E-01  0.17460189556E+01  0.17472959845E+01  0.40000000000E-01 0.  1.
</event>
<event>
 5   0  0.7212170E+07  0.9118800E+02  0.7818608E-02  0.1180000E+00
       11   -1    0    0    0    0  0.00000000000E+00  0.00000000000E+00  0.39999999673E+01  0.40000000000E+01  0.51109989000E-03 0.  1.
     -623   -1    0    0    0    0  0.00000000000E+00  0.00000000000E+00  0.12525980253E-10  0.17130000000E+03  0.17130000000E+03 0. -1.
       11    1    1    2    0    0  0.79873097422E-02 -0.51287804400E-02  0.16002501437E+01  0.16002783773E+01  0.51109989000E-03 0.  1.
     -623    1    1    2    0    0  0.61434669913E-02 -0.19244180960E-01  0.52819461751E-03  0.17130000119E+03  0.17130000000E+03 0. -1.
      622    1    1    2    0    0 -0.14130776734E-01  0.24372961403E-01  0.23992216296E+01  0.23997204312E+01  0.40000000000E-01 0.  0.
</event>
<event>
 5   0  0.7212170E+07  0.9118800E+02  0.7818608E-02  0.1180000E+00
       11   -1    0    0    0    0  0.00000000000E+00  0.00000000000E+00  0.39999999673E+01  0.40000000000E+01  0.51109989000E-03 0. -1.
     -623   -1    0    0    0    0  0.00000000000E+00  0.00000000000E+00  0.12525980253E-10  0.17130000000E+03  0.17130000000E+03 0. -1.
       11    1    1    2    0    0  0.96861978962E-03 -0.71924663507E-03  0.87070326509E-02  0.88050656273E-02  0.51109989000E-03 0. -1.
     -623    1    1    2    0    0 -0.11243280255E-02  0.44442010980E-03  0.29846362040E-03  0.17130000000E+03  0.17130000000E+03 0. -1.
      622    1    1    2    0    0  0.15570823645E-03  0.27482652502E-03  0.39909944733E+01  0.39911949320E+01  0.40000000000E-01 0. -1.
</event>
<event>
 5   0  0.7212170E+07  0.9118800E+02  0.7818608E-02  0.1180000E+00
       11   -1    0    0    0    0  0.00000000000E+00  0.00000000000E+00  0.39999999673E+01  0.40000000000E+01  0.51109989000E-03 0.  1.
     -623   -1    0    0    0    0  0.00000000000E+00  0.00000000000E+00  0.12525980253E-10  0.17130000000E+03  0.17130000000E+03 0.  1.
       11    1    1    2    0    0 -0.97215187553E-02  0.61166288460E-02  0.68917105332E+00  0.68926694614E+00  0.51109989000E-03 0.  1.
     -623    1    1    2    0    0  0.50208396141E-03  0.38721737572E-03  0.35673537118E-03  0.17130000000E+03  0.17130000000E+03 0.  1.
      622    1    1    2    0    0  0.92194347938E-02 -0.65038462218E-02  0.33104721792E+01  0.33107330528E+01  0.40000000000E-01 0.  1.
</event>
<event>
 5   0  0.7212170E+07  0.9118800E+02  0.7818608E-02  0.1180000E+00
       11   -1    0    0    0    0  0.00000000000E+00  0.00000000000E+00  0.39999999673E+01  0.40000000000E+01  0.51109989000E-03 0. -1.
     -623   -1    0    0    0    0  0.00000000000E+00  0.00000000000E+00  0.12525980253E-10  0.17130000000E+03  0.17130000000E+03 0. -1.
       11    1    1    2    0    0  0.13433000148E-01 -0.45988234089E-02  0.23474802804E+01  0.23475232742E+01  0.51109989000E-03 0. -1.
     -623    1    1    2    0    0  0.74595522468E-02 -0.18701825875E-02  0.67211295500E-03  0.17130000017E+03  0.17130000000E+03 0. -1.
      622    1    1    2    0    0 -0.20892552394E-01  0.64690059963E-02  0.16518475738E+01  0.16524765517E+01  0.40000000000E-01 0. -1.
</event>
<event>
 5   0  0.7212170E+07  0.9118800E+02  0.7818608E-02  0.1180000E+00
       11   -1    0    0    0    0  0.00000000000E+00  0.00000000000E+00  0.39999999673E+01  0.40000000000E+01  0.51109989000E-03 0. -1.
     -623   -1    0    0    0    0  0.00000000000E+00  0.00000000000E+00  0.12525980253E-10  0.17130000000E+03  0.17130000000E+03 0.  1.
       11    1    1    2    0    0  0.92293809260E-02 -0.11167210399E-01  0.76149299064E-02  0.16374872242E-01  0.51109989000E-03 0. -1.
     -623    1    1    2    0    0  0.41975141195E-02  0.23539326334E-01  0.90044848678E-02  0.17130000191E+03  0.17130000000E+03 0.  1.
      622    1    1    2    0    0 -0.13426895045E-01 -0.12372115935E-01  0.39833805526E+01  0.39836232223E+01  0.40000000000E-01 0. -1.
</event>
<event>
 5   0  0.7212170E+07  0.9118800E+02  0.7818608E-02  0.1180000E+00
       11   -1    0    0    0    0  0.00000000000E+00  0.00000000000E+00  0.39999999673E+01  0.40000000000E+01  0.51109989000E-03 0.  1.
     -623   -1    0    0    0    0  0.00000000000E+00  0.00000000000E+00  0.12525980253E-10  0.17130000000E+03  0.17130000000E+03 0. -1.
       11    1    1    2    0    0  0.41159641107E-01 -0.27169470852E-01  0.67913204270E+00  0.68092061861E+00  0.51109989000E-03 0.  1.
     -623    1    1    2    0    0 -0.19249122376E-01 -0.15971057522E-01  0.23841545869E-02  0.17130000184E+03  0.17130000000E+03 0. -1.
      622    1    1    2    0    0 -0.21910518730E-01  0.43140528375E-01  0.33184837703E+01  0.33190775390E+01  0.40000000000E-01 0.  1.
</event>
<event>
 5   0  0.7212170E+07  0.9118800E+02  0.7818608E-02  0.1180000E+00
       11   -1    0    0    0    0  0.00000000000E+00  0.00000000000E+00  0.39999999673E+01  0.40000000000E+01  0.51109989000E-03 0.  1.
     -623   -1    0    0    0    0  0.00000000000E+00  0.00000000000E+00  0.12525980253E-10  0.17130000000E+03  0.17130000000E+03 0. -1.
       11    1    1    2    0    0  0.13203452559E-01 -0.12354513306E-02  0.96332916958E+00  0.96342057674E+00  0.51109989000E-03 0.  1.
     -623    1    1    2    0    0 -0.35302369137E-02 -0.12006695240E-02  0.37126725576E-03  0.17130000004E+03  0.17130000000E+03 0. -1.
      622    1    1    2    0    0 -0.96732156456E-02  0.24361208545E-02  0.30362995304E+01  0.30365793821E+01  0.40000000000E-01 0.  0.
</event>
<event>
 5   0  0.7212170E+07  0.9118800E+02  0.7818608E-02  0.1180000E+00
       11   -1    0    0    0    0  0.00000000000E+00  0.00000000000E+00  0.39999999673E+01  0.40000000000E+01  0.51109989000E-03 0.  1.
     -623   -1    0    0    0    0  0.00000000000E+00  0.00000000000E+00  0.12525980253E-10  0.17130000000E+03  0.17130000000E+03 0.  1.
       11    1    1    2    0    0 -0.38301214722E-02  0.20460435256E-01  0.22468435053E+01  0.22469399853E+01  0.51109989000E-03 0.  1.
     -623    1    1    2    0    0  0.20984168448E-02 -0.17589163168E-01  0.55697627324E-03  0.17130000092E+03  0.17130000000E+03 0.  1.
      622    1    1    2    0    0  0.17317046272E-02 -0.28712720860E-02  0.17525994863E+01  0.17530590984E+01  0.40000000000E-01 0.  1.
</event>
<event>
 5   0  0.7212170E+07  0.9118800E+02  0.7818608E-02  0.1180000E+00
       11   -1    0    0    0    0  0.00000000000E+00  0.00000000000E+00  0.39999999673E+01  0.40000000000E+01  0.51109989000E-03 0.  1.
     -623   -1    0    0    0    0  0.00000000000E+00  0.00000000000E+00  0.12525980253E-10  0.17130000000E+03  0.17130000000E+03 0.  1.
       11    1    1    2    0    0 -0.13033377939E-02 -0.51043811527E-04  0.15294923933E-01  0.15358945800E-01  0.51109989000E-03 0.  1.
     -623    1    1    2    0    0  0.24931434450E-02 -0.71626086406E-04  0.26496309041E-03  0.17130000002E+03  0.17130000000E+03 0.  1.
      622    1    1    2    0    0 -0.11898056512E-02  0.12266989793E-03  0.39844400804E+01  0.39846410359E+01  0.40000000000E-01 0.  1.
</event>
<event>
 5   0  0.7212170E+07  0.9118800E+02  0.7818608E-02  0.1180000E+00
       11   -1    0    0    0    0  0.00000000000E+00  0.00000000000E+00  0.39999999673E+01  0.40000000000E+01  0.51109989000E-03 0.  1.
     -623   -1    0    0    0    0  0.00000000000E+00  0.00000000000E+00  0.12525980253E-10  0.17130000000E+03  0.17130000000E+03 0.  1.
       11    1    1    2    0    0 -0.36518163206E-02  0.16084105094E-02  0.14942530606E+01  0.14942584760E+01  0.51109989000E-03 0.  1.
     -623    1    1    2    0    0  0.22569271448E-03 -0.30732166366E-03  0.32735102175E-03  0.17130000000E+03  0.17130000000E+03 0.  1.
      622    1    1    2    0    0  0.34261236061E-02 -0.13010888457E-02  0.25054195563E+01  0.25057415238E+01  0.40000000000E-01 0.  1.
</event>
<event>
 5   0  0.7212170E+07  0.9118800E+02  0.7818608E-02  0.1180000E+00
       11   -1    0    0    0    0  0.00000000000E+00  0.00000000000E+00  0.39999999673E+01  0.40000000000E+01  0.51109989000E-03 0.  1.
     -623   -1    0    0    0    0  0.00000000000E+00  0.00000000000E+00  0.12525980253E-10  0.17130000000E+03  0.17130000000E+03 0. -1.
       11    1    1    2    0    0 -0.24793370918E-02 -0.86626445031E-03  0.17306364127E-01  0.17511967020E-01  0.51109989000E-03 0.  1.
     -623    1    1    2    0    0  0.23257671082E-02  0.17978482668E-02  0.40659239959E-03  0.17130000003E+03  0.17130000000E+03 0. -1.
      622    1    1    2    0    0  0.15356998391E-03 -0.93158381620E-03  0.39822870103E+01  0.39824880067E+01  0.40000000000E-01 0.  1.
</event>
<event>
 5   0  0.7212170E+07  0.9118800E+02  0.7818608E-02  0.1180000E+00
       11   -1    0    0    0    0  0.00000000000E+00  0.00000000000E+00  0.39999999673E+01  0.40000000000E+01  0.51109989000E-03 0. -1.
     -623   -1    0    0    0    0  0.00000000000E+00  0.00000000000E+00  0.12525980253E-10  0.17130000000E+03  0.17130000000E+03 0. -1.
       11    1    1    2    0    0 -0.19310977118E-02  0.11590756452E-02  0.11759697487E+00  0.11761965107E+00  0.51109989000E-03 0. -1.
     -623    1    1    2    0    0  0.12264720371E-04 -0.99715485967E-03  0.22918881536E-03  0.17130000000E+03  0.17130000000E+03 0. -1.
      622    1    1    2    0    0  0.19188329915E-02 -0.16192078570E-03  0.38821738029E+01  0.38823803452E+01  0.40000000000E-01 0. -1.
</event>
<event>
 5   0  0.7212170E+07  0.9118800E+02  0.7818608E-02  0.1180000E+00
       11   -1    0    0    0    0  0.00000000000E+00  0.00000000000E+00  0.39999999673E+01  0.40000000000E+01  0.51109989000E-03 0. -1.
     -623   -1    0    0    0    0  0.00000000000E+00  0.00000000000E+00  0.12525980253E-10  0.17130000000E+03  0.17130000000E+03 0.  1.
       11    1    1    2    0    0  0.43655728239E-01 -0.15176217874E-01  0.15275837560E+01  0.15282828708E+01  0.51109989000E-03 0. -1.
     -623    1    1    2    0    0 -0.50481558916E-01  0.10163121990E-01  0.10450197424E-02  0.17130000774E+03  0.17130000000E+03 0.  1.
      622    1    1    2    0    0  0.68258306825E-02  0.50130958835E-02  0.24713711920E+01  0.24717093866E+01  0.40000000000E-01 0. -1.
</event>
<event>
 5   0  0.7212170E+07  0.9118800E+02  0.7818608E-02  0.1180000E+00
       11   -1    0    0    0    0  0.00000000000E+00  0.00000000000E+00  0.39999999673E+01  0.40000000000E+01  0.51109989000E-03 0. -1.
     -623   -1    0    0    0    0  0.00000000000E+00  0.00000000000E+00  0.12525980253E-10  0.17130000000E+03  0.17130000000E+03 0.  1.
       11    1    1    2    0    0  0.23513540547E-02  0.11630371896E-01  0.10377539452E+01  0.10378219050E+01  0.51109989000E-03 0. -1.
     -623    1    1    2    0    0 -0.56863723287E-02 -0.18536441632E-01  0.34903750840E-03  0.17130000110E+03  0.17130000000E+03 0.  1.
      622    1    1    2    0    0  0.33350182740E-02  0.69060697360E-02  0.29618969847E+01  0.29621769974E+01  0.40000000000E-01 0. -1.
</event>
<event>
 5   0  0.7212170E+07  0.9118800E+02  0.7818608E-02  0.1180000E+00
       11   -1    0    0    0    0  0.00000000000E+00  0.00000000000E+00  0.39999999673E+01  0.40000000000E+01  0.51109989000E-03 0. -1.
     -623   -1    0    0    0    0  0.00000000000E+00  0.00000000000E+00  0.12525980253E-10  0.17130000000E+03  0.17130000000E+03 0.  1.
       11    1    1    2    0    0 -0.56981691197E-02 -0.27151333584E-02  0.49494137016E+00  0.49498188067E+00  0.51109989000E-03 0. -1.
     -623    1    1    2    0    0  0.61547369141E-02  0.31089257132E-02  0.26892035569E-03  0.17130000014E+03  0.17130000000E+03 0.  1.
      622    1    1    2    0    0 -0.45656779454E-03 -0.39379235484E-03  0.35047896770E+01  0.35050179804E+01  0.40000000000E-01 0. -1.
</event>
<event>
 5   0  0.7212170E+07  0.9118800E+02  0.7818608E-02  0.1180000E+00
       11   -1    0    0    0    0  0.00000000000E+00  0.00000000000E+00  0.39999999673E+01  0.40000000000E+01  0.51109989000E-03 0. -1.
     -623   -1    0    0    0    0  0.00000000000E+00  0.00000000000E+00  0.12525980253E-10  0.17130000000E+03  0.17130000000E+03 0.  1.
       11    1    1    2    0    0 -0.62956897366E-02 -0.60233218957E-02  0.17198495876E+01  0.17198717340E+01  0.51109989000E-03 0. -1.
     -623    1    1    2    0    0  0.43956076900E-02  0.54368802120E-02  0.37400852917E-03  0.17130000014E+03  0.17130000000E+03 0.  1.
      622    1    1    2    0    0  0.19000820465E-02  0.58644168360E-03  0.22797763712E+01  0.22801281230E+01  0.40000000000E-01 0. -1.
</event>
<event>
 5   0  0.7212170E+07  0.9118800E+02  0.7818608E-02  0.1180000E+00
       11   -1    0    0    0    0  0.00000000000E+00  0.00000000000E+00  0.39999999673E+01  0.40000000000E+01  0.51109989000E-03 0. -1.
     -623   -1    0    0    0    0  0.00000000000E+00  0.00000000000E+00  0.12525980253E-10  0.17130000000E+03  0.17130000000E+03 0. -1.
       11    1    1    2    0    0  0.50374580967E-03  0.18169554530E-04  0.70685948641E-02  0.71049522465E-02  0.51109989000E-03 0. -1.
     -623    1    1    2    0    0 -0.89030521545E-03  0.31969988477E-03  0.23672143271E-03  0.17130000000E+03  0.17130000000E+03 0. -1.
      622    1    1    2    0    0  0.38655940607E-03 -0.33786943941E-03  0.39926946524E+01  0.39928950463E+01  0.40000000000E-01 0. -1.
</event>
<event>
 5   0  0.7212170E+07  0.9118800E+02  0.7818608E-02  0.1180000E+00
       11   -1    0    0    0    0  0.00000000000E+00  0.00000000000E+00  0.39999999673E+01  0.40000000000E+01  0.51109989000E-03 0. -1.
     -623   -1    0    0    0    0  0.00000000000E+00  0.00000000000E+00  0.12525980253E-10  0.17130000000E+03  0.17130000000E+03 0. -1.
       11    1    1    2    0    0 -0.35236355832E-02 -0.14735651865E-02  0.18318966785E-01  0.18719860290E-01  0.51109989000E-03 0. -1.
     -623    1    1    2    0    0  0.48102521189E-02 -0.11477447090E-02  0.60294967378E-03  0.17130000007E+03  0.17130000000E+03 0. -1.
      622    1    1    2    0    0 -0.12866165360E-02  0.26213098956E-02  0.39810780512E+01  0.39812800675E+01  0.40000000000E-01 0. -1.
</event>
<event>
 5   0  0.7212170E+07  0.9118800E+02  0.7818608E-02  0.1180000E+00
       11   -1    0    0    0    0  0.00000000000E+00  0.00000000000E+00  0.39999999673E+01  0.40000000000E+01  0.51109989000E-03 0. -1.
     -623   -1    0    0    0    0  0.00000000000E+00  0.00000000000E+00  0.12525980253E-10  0.17130000000E+03  0.17130000000E+03 0. -1.
       11    1    1    2    0    0  0.37338709912E-02 -0.42995675492E-02  0.10322715412E+01  0.10322873747E+01  0.51109989000E-03 0. -1.
     -623    1    1    2    0    0 -0.39046248756E-02  0.12218429164E-02  0.28703110277E-03  0.17130000005E+03  0.17130000000E+03 0. -1.
      622    1    1    2    0    0  0.17075388496E-03  0.30777246326E-02  0.29674413956E+01  0.29677125767E+01  0.40000000000E-01 0.  1.
</event>
<event>
 5   0  0.7212170E+07  0.9118800E+02  0.7818608E-02  0.1180000E+00
       11   -1    0    0    0    0  0.00000000000E+00  0.00000000000E+00  0.39999999673E+01  0.40000000000E+01  0.51109989000E-03 0.  1.
     -623   -1    0    0    0    0  0.00000000000E+00  0.00000000000E+00  0.12525980253E-10  0.17130000000E+03  0.17130000000E+03 0. -1.
       11    1    1    2    0    0  0.45307193989E-01 -0.72051740355E-02  0.14736618139E+00  0.15434282945E+00  0.51109989000E-03 0.  1.
     -623    1    1    2    0    0 -0.10080798180E-01  0.98773315106E-02  0.73476652256E-02  0.17130000074E+03  0.17130000000E+03 0. -1.
      622    1    1    2    0    0 -0.35226395809E-01 -0.26721574749E-02  0.38452861207E+01  0.38456564315E+01  0.40000000000E-01 0.  1.
</event>
<event>
 5   0  0.7212170E+07  0.9118800E+02  0.7818608E-02  0.1180000E+00
       11   -1    0    0    0    0  0.00000000000E+00  0.00000000000E+00  0.39999999673E+01  0.40000000000E+01  0.51109989000E-03 0.  1.
     -623   -1    0    0    0    0  0.00000000000E+00  0.00000000000E+00  0.12525980253E-10  0.17130000000E+03  0.17130000000E+03 0.  1.
       11    1    1    2    0    0  0.63430391494E-02  0.11625736325E-02  0.13784203092E+00  0.13799374056E+00  0.51109989000E-03 0.  1.
     -623    1    1    2    0    0 -0.14585330444E-02 -0.34046554168E-02  0.36260908971E-03  0.17130000004E+03  0.17130000000E+03 0.  1.
      622    1    1    2    0    0 -0.48845061049E-02  0.22420817848E-02  0.38617953278E+01  0.38620062195E+01  0.40000000000E-01 0.  1.
</event>
<event>
 5   0  0.7212170E+07  0.9118800E+02  0.7818608E-02  0.1180000E+00
       11   -1    0    0    0    0  0.00000000000E+00  0.00000000000E+00  0.39999999673E+01  0.40000000000E+01  0.51109989000E-03 0. -1.
     -623   -1    0    0    0    0  0.00000000000E+00  0.00000000000E+00  0.12525980253E-10  0.17130000000E+03  0.17130000000E+03 0.  1.
       11    1    1    2    0    0  0.12764475382E-01 -0.35128373848E-01  0.26234669232E+00  0.26499619370E+00  0.51109989000E-03 0. -1.
     -623    1    1    2    0    0  0.99749893119E-02  0.19134654481E-02  0.30809215578E-02  0.17130000033E+03  0.17130000000E+03 0.  1.
      622    1    1    2    0    0 -0.22739464694E-01  0.33214908400E-01  0.37345723535E+01  0.37350034775E+01  0.40000000000E-01 0. -1.
</event>
<event>
 5   0  0.7212170E+07  0.9118800E+02  0.7818608E-02  0.1180000E+00
       11   -1    0    0    0    0  0.00000000000E+00  0.00000000000E+00  0.39999999673E+01  0.40000000000E+01  0.51109989000E-03 0. -1.
     -623   -1    0    0    0    0  0.00000000000E+00  0.00000000000E+00  0.12525980253E-10  0.17130000000E+03  0.17130000000E+03 0.  1.
       11    1    1    2    0    0 -0.14380926763E-02  0.16464302564E-02  0.33409865666E-02  0.40252027862E-02  0.51109989000E-03 0. -1.
     -623    1    1    2    0    0  0.25959385547E-02  0.68161170086E-03  0.88525931423E-03  0.17130000002E+03  0.17130000000E+03 0.  1.
      622    1    1    2    0    0 -0.11578458787E-02 -0.23280419573E-02  0.39957737220E+01  0.39959747744E+01  0.40000000000E-01 0. -1.
</event>
<event>
 5   0  0.7212170E+07  0.9118800E+02  0.7818608E-02  0.1180000E+00
       11   -1    0    0    0    0  0.00000000000E+00  0.00000000000E+00  0.39999999673E+01  0.40000000000E+01  0.51109989000E-03 0. -1.
     -623   -1    0    0    0    0  0.00000000000E+00  0.00000000000E+00  0.12525980253E-10  0.17130000000E+03  0.17130000000E+03 0. -1.
       11    1    1    2    0    0 -0.23757609115E-04  0.47573335475E-03  0.41791793702E-02  0.42371747610E-02  0.51109989000E-03 0. -1.
     -623    1    1    2    0    0  0.10168896618E-02 -0.59522627555E-03  0.25830931002E-03  0.17130000000E+03  0.17130000000E+03 0. -1.
      622    1    1    2    0    0 -0.99313205311E-03  0.11949292104E-03  0.39955624803E+01  0.39957628226E+01  0.40000000000E-01 0. -1.
</event>
<event>
 5   0  0.7212170E+07  0.9118800E+02  0.7818608E-02  0.1180000E+00
       11   -1    0    0    0    0  0.00000000000E+00  0.00000000000E+00  0.39999999673E+01  0.40000000000E+01  0.51109989000E-03 0. -1.
     -623   -1    0    0    0    0  0.00000000000E+00  0.00000000000E+00  0.12525980253E-10  0.17130000000E+03  0.17130000000E+03 0.  1.
       11    1    1    2    0    0 -0.28057977081E-03 -0.56915621871E-02  0.99768601069E-01  0.99932515166E-01  0.51109989000E-03 0. -1.
     -623    1    1    2    0    0 -0.31707242112E-02  0.44779534336E-02  0.37081579005E-03  0.17130000009E+03  0.17130000000E+03 0.  1.
      622    1    1    2    0    0  0.34513039823E-02  0.12136087530E-02  0.38998605509E+01  0.39000673969E+01  0.40000000000E-01 0. -1.
</event>
<event>
 5   0  0.7212170E+07  0.9118800E+02  0.7818608E-02  0.1180000E+00
       11   -1    0    0    0    0  0.00000000000E+00  0.00000000000E+00  0.39999999673E+01  0.40000000000E+01  0.51109989000E-03 0.  1.
     -623   -1    0    0    0    0  0.00000000000E+00  0.00000000000E+00  0.12525980253E-10  0.17130000000E+03  0.17130000000E+03 0.  1.
       11    1    1    2    0    0 -0.31696548785E-03 -0.22849601746E-03  0.22119520525E-02  0.23036129298E-02  0.51109989000E-03 0. -1.
     -623    1    1    2    0    0 -0.12542797343E-02  0.13291327694E-02  0.29221880595E-03  0.17130000001E+03  0.17130000000E+03 0.  1.
      622    1    1    2    0    0  0.15712452225E-02 -0.11006367523E-02  0.39974957977E+01  0.39976963782E+01  0.40000000000E-01 0.  1.
</event>
<event>
 5   0  0.7212170E+07  0.9118800E+02  0.7818608E-02  0.1180000E+00
       11   -1    0    0    0    0  0.00000000000E+00  0.00000000000E+00  0.39999999673E+01  0.40000000000E+01  0.51109989000E-03 0. -1.
     -623   -1    0    0    0    0  0.00000000000E+00  0.00000000000E+00  0.12525980253E-10  0.17130000000E+03  0.17130000000E+03 0. -1.
       11    1    1    2    0    0 -0.90154158833E-02 -0.90814615500E-04  0.94176402637E-01  0.94608361193E-01  0.51109989000E-03 0. -1.
     -623    1    1    2    0    0  0.85963275872E-02 -0.18870414770E-02  0.63752693613E-03  0.17130000023E+03  0.17130000000E+03 0. -1.
      622    1    1    2    0    0  0.41908829563E-03  0.19778560926E-02  0.39051860380E+01  0.39053914118E+01  0.40000000000E-01 0. -1.
</event>
<event>
 5   0  0.7212170E+07  0.9118800E+02  0.7818608E-02  0.1180000E+00
       11   -1    0    0    0    0  0.00000000000E+00  0.00000000000E+00  0.39999999673E+01  0.40000000000E+01  0.51109989000E-03 0.  1.
     -623   -1    0    0    0    0  0.00000000000E+00  0.00000000000E+00  0.12525980253E-10  0.17130000000E+03  0.17130000000E+03 0.  1.
       11    1    1    2    0    0  0.11672644481E-01 -0.47420752748E-02  0.30008382973E+00  0.30034863741E+00  0.51109989000E-03 0.  1.
     -623    1    1    2    0    0  0.10753819936E-02  0.47912790390E-03  0.50544343230E-03  0.17130000000E+03  0.17130000000E+03 0.  1.
      622    1    1    2    0    0 -0.12748026474E-01  0.42629473709E-02  0.36994106941E+01  0.36996513577E+01  0.40000000000E-01 0.  1.
</event>
<event>
 5   0  0.7212170E+07  0.9118800E+02  0.7818608E-02  0.1180000E+00
       11   -1    0    0    0    0  0.00000000000E+00  0.00000000000E+00  0.39999999673E+01  0.40000000000E+01  0.51109989000E-03 0. -1.
     -623   -1    0    0    0    0  0.00000000000E+00  0.00000000000E+00  0.12525980253E-10  0.17130000000E+03  0.17130000000E+03 0. -1.
       11    1    1    2    0    0 -0.15145210522E-02 -0.12267785628E-02  0.53871828153E-01  0.53909496857E-01  0.51109989000E-03 0. -1.
     -623    1    1    2    0    0  0.16785116117E-02 -0.10998205400E-02  0.24107481444E-03  0.17130000001E+03  0.17130000000E+03 0. -1.
      622    1    1    2    0    0 -0.16399055992E-03  0.23265991031E-02  0.39458870652E+01  0.39460904920E+01  0.40000000000E-01 0. -1.
</event>
<event>
 5   0  0.7212170E+07  0.9118800E+02  0.7818608E-02  0.1180000E+00
       11   -1    0    0    0    0  0.00000000000E+00  0.00000000000E+00  0.39999999673E+01  0.40000000000E+01  0.51109989000E-03 0. -1.
     -623   -1    0    0    0    0  0.00000000000E+00  0.00000000000E+00  0.12525980253E-10  0.17130000000E+03  0.17130000000E+03 0.  1.
       11    1    1    2    0    0 -0.12272420514E-01 -0.17254081755E-01  0.57985506390E+00  0.58024173582E+00  0.51109989000E-03 0. -1.
     -623    1    1    2    0    0 -0.96952661443E-03 -0.70558026006E-02  0.73278404864E-03  0.17130000015E+03  0.17130000000E+03 0.  1.
      622    1    1    2    0    0  0.13241947128E-01  0.24309884354E-01  0.34194121190E+01  0.34197581142E+01  0.40000000000E-01 0. -1.
</event>
<event>
 5   0  0.7212170E+07  0.9118800E+02  0.7818608E-02  0.1180000E+00
       11   -1    0    0    0    0  0.00000000000E+00  0.00000000000E+00  0.39999999673E+01  0.40000000000E+01  0.51109989000E-03 0.  1.
     -623   -1    0    0    0    0  0.00000000000E+00  0.00000000000E+00  0.12525980253E-10  0.17130000000E+03  0.17130000000E+03 0.  1.
       11    1    1    2    0    0  0.31056395368E-03 -0.22813578829E-02  0.12485904187E-01  0.12706693914E-01  0.51109989000E-03 0.  1.
     -623    1    1    2    0    0 -0.11754156249E-02  0.13523063159E-02  0.42161142431E-03  0.17130000001E+03  0.17130000000E+03 0.  1.
      622    1    1    2    0    0  0.86485167146E-03  0.92905156676E-03  0.39870924525E+01  0.39872932969E+01  0.40000000000E-01 0.  1.
</event>
<event>
 5   0  0.7212170E+07  0.9118800E+02  0.7818608E-02  0.1180000E+00
       11   -1    0    0    0    0  0.00000000000E+00  0.00000000000E+00  0.39999999673E+01  0.40000000000E+01  0.51109989000E-03 0.  1.
     -623   -1    0    0    0    0  0.00000000000E+00  0.00000000000E+00  0.12525980253E-10  0.17130000000E+03  0.17130000000E+03 0. -1.
       11    1    1    2    0    0 -0.10225065981E-01  0.28021844058E-01  0.24624923879E-01  0.38683637599E-01  0.51109989000E-03 0.  1.
     -623    1    1    2    0    0 -0.93917881558E-02  0.21146331072E-01  0.14616571725E-01  0.17130000219E+03  0.17130000000E+03 0. -1.
      622    1    1    2    0    0  0.19616854137E-01 -0.49168175130E-01  0.39607584718E+01  0.39613141762E+01  0.40000000000E-01 0.  1.
</event>
<event>
 5   0  0.7212170E+07  0.9118800E+02  0.7818608E-02  0.1180000E+00
       11   -1    0    0    0    0  0.00000000000E+00  0.00000000000E+00  0.39999999673E+01  0.40000000000E+01  0.51109989000E-03 0. -1.
     -623   -1    0    0    0    0  0.00000000000E+00  0.00000000000E+00  0.12525980253E-10  0.17130000000E+03  0.17130000000E+03 0.  1.
       11    1    1    2    0    0 -0.30419760839E-02 -0.39837697699E-02  0.31468949639E+00  0.31472982763E+00  0.51109989000E-03 0. -1.
     -623    1    1    2    0    0 -0.14047851264E-02  0.58171012660E-02  0.26062915662E-03  0.17130000010E+03  0.17130000000E+03 0.  1.
      622    1    1    2    0    0  0.44467612101E-02 -0.18333314956E-02  0.36850498415E+01  0.36852700673E+01  0.40000000000E-01 0. -1.
</event>
<event>
 5   0  0.7212170E+07  0.9118800E+02  0.7818608E-02  0.1180000E+00
       11   -1    0    0    0    0  0.00000000000E+00  0.00000000000E+00  0.39999999673E+01  0.40000000000E+01  0.51109989000E-03 0. -1.
     -623   -1    0    0    0    0  0.00000000000E+00  0.00000000000E+00  0.12525980253E-10  0.17130000000E+03  0.17130000000E+03 0. -1.
       11    1    1    2    0    0  0.49562803723E-03  0.50659774355E-03  0.63060060334E-01  0.63066113887E-01  0.51109989000E-03 0. -1.
     -623    1    1    2    0    0  0.62918400305E-03  0.53436711095E-03  0.20953041350E-03  0.17130000000E+03  0.17130000000E+03 0. -1.
      622    1    1    2    0    0 -0.11248120403E-02 -0.10409648546E-02  0.39367303770E+01  0.39369338844E+01  0.40000000000E-01 0. -1.
</event>
<event>
 5   0  0.7212170E+07  0.9118800E+02  0.7818608E-02  0.1180000E+00
       11   -1    0    0    0    0  0.00000000000E+00  0.00000000000E+00  0.39999999673E+01  0.40000000000E+01  0.51109989000E-03 0.  1.
     -623   -1    0    0    0    0  0.00000000000E+00  0.00000000000E+00  0.12525980253E-10  0.17130000000E+03  0.17130000000E+03 0.  1.
       11    1    1    2    0    0  0.73942318253E-02  0.65606692264E-02  0.10328588111E+01  0.10329062406E+01  0.51109989000E-03 0.  1.
     -623    1    1    2    0    0 -0.43988429285E-02 -0.11453399053E-01  0.32301950475E-03  0.17130000044E+03  0.17130000000E+03 0.  1.
      622    1    1    2    0    0 -0.29953888969E-02  0.48927298261E-02  0.29668181366E+01  0.29670933196E+01  0.40000000000E-01 0.  1.
</event>
<event>
 5   0  0.7212170E+07  0.9118800E+02  0.7818608E-02  0.1180000E+00
       11   -1    0    0    0    0  0.00000000000E+00  0.00000000000E+00  0.39999999673E+01  0.40000000000E+01  0.51109989000E-03 0.  1.
     -623   -1    0    0    0    0  0.00000000000E+00  0.00000000000E+00  0.12525980253E-10  0.17130000000E+03  0.17130000000E+03 0.  1.
       11    1    1    2    0    0  0.18310549275E-02 -0.78409612839E-03  0.57540727251E-01  0.57577461603E-01  0.51109989000E-03 0.  1.
     -623    1    1    2    0    0 -0.60196458196E-04  0.22567312650E-03  0.24006546772E-03  0.17130000000E+03  0.17130000000E+03 0.  1.
      622    1    1    2    0    0 -0.17708584693E-02  0.55842300190E-03  0.39422191743E+01  0.39424225377E+01  0.40000000000E-01 0.  1.
</event>
<event>
 5   0  0.7212170E+07  0.9118800E+02  0.7818608E-02  0.1180000E+00
       11   -1    0    0    0    0  0.00000000000E+00  0.00000000000E+00  0.39999999673E+01  0.40000000000E+01  0.51109989000E-03 0.  1.
     -623   -1    0    0    0    0  0.00000000000E+00  0.00000000000E+00  0.12525980253E-10  0.17130000000E+03  0.17130000000E+03 0.  1.
       11    1    1    2    0    0  0.20211811210E-02  0.32864669795E-02  0.56899093696E+00  0.56900424744E+00  0.51109989000E-03 0.  1.
     -623    1    1    2    0    0 -0.32185464619E-03 -0.61413312703E-03  0.24791744687E-03  0.17130000000E+03  0.17130000000E+03 0.  1.
      622    1    1    2    0    0 -0.16993264748E-02 -0.26723338524E-02  0.34307611133E+01  0.34309957514E+01  0.40000000000E-01 0.  1.
</event>
<event>
 5   0  0.7212170E+07  0.9118800E+02  0.7818608E-02  0.1180000E+00
       11   -1    0    0    0    0  0.00000000000E+00  0.00000000000E+00  0.39999999673E+01  0.40000000000E+01  0.51109989000E-03 0.  1.
     -623   -1    0    0    0    0  0.00000000000E+00  0.00000000000E+00  0.12525980253E-10  0.17130000000E+03  0.17130000000E+03 0.  1.
       11    1    1    2    0    0  0.88763555710E-03  0.25726369529E-02  0.50439550911E-01  0.50515501353E-01  0.51109989000E-03 0.  1.
     -623    1    1    2    0    0 -0.52201024557E-03  0.52268515977E-03  0.27971283151E-03  0.17130000000E+03  0.17130000000E+03 0.  1.
      622    1    1    2    0    0 -0.36562531152E-03 -0.30953221126E-02  0.39492807037E+01  0.39494844969E+01  0.40000000000E-01 0.  1.
</event>
<event>
 5   0  0.7212170E+07  0.9118800E+02  0.7818608E-02  0.1180000E+00
       11   -1    0    0    0    0  0.00000000000E+00  0.00000000000E+00  0.39999999673E+01  0.40000000000E+01  0.51109989000E-03 0.  1.
     -623   -1    0    0    0    0  0.00000000000E+00  0.00000000000E+00  0.12525980253E-10  0.17130000000E+03  0.17130000000E+03 0.  1.
       11    1    1    2    0    0  0.10726888472E-01 -0.18788730732E-02  0.10273941225E+00  0.10331623470E+00  0.51109989000E-03 0.  1.
     -623    1    1    2    0    0 -0.66092101613E-03 -0.30531914289E-03  0.79571555529E-03  0.17130000000E+03  0.17130000000E+03 0.  1.
      622    1    1    2    0    0 -0.10065967456E-01  0.21841922161E-02  0.38964648398E+01  0.38966837621E+01  0.40000000000E-01 0.  1.
</event>
<event>
 5   0  0.7212170E+07  0.9118800E+02  0.7818608E-02  0.1180000E+00
       11   -1    0    0    0    0  0.00000000000E+00  0.00000000000E+00  0.39999999673E+01  0.40000000000E+01  0.51109989000E-03 0. -1.
     -623   -1    0    0    0    0  0.00000000000E+00  0.00000000000E+00  0.12525980253E-10  0.17130000000E+03  0.17130000000E+03 0. -1.
       11    1    1    2    0    0 -0.18651356781E-02 -0.48917701125E-02  0.24621033855E-01  0.25176669301E-01  0.51109989000E-03 0. -1.
     -623    1    1    2    0    0 -0.18916861385E-02  0.60968268101E-03  0.76097007915E-03  0.17130000001E+03  0.17130000000E+03 0. -1.
      622    1    1    2    0    0  0.37568218168E-02  0.42820874314E-02  0.39746179639E+01  0.39748233179E+01  0.40000000000E-01 0. -1.
</event>
<event>
 5   0  0.7212170E+07  0.9118800E+02  0.7818608E-02  0.1180000E+00
       11   -1    0    0    0    0  0.00000000000E+00  0.00000000000E+00  0.39999999673E+01  0.40000000000E+01  0.51109989000E-03 0.  1.
     -623   -1    0    0    0    0  0.00000000000E+00  0.00000000000E+00  0.12525980253E-10  0.17130000000E+03  0.17130000000E+03 0.  1.
       11    1    1    2    0    0  0.71036242377E-03 -0.32137445422E-03  0.39937217050E-02  0.41010891806E-02  0.51109989000E-03 0.  1.
     -623    1    1    2    0    0 -0.18179902928E-03  0.48257697929E-03  0.30758438013E-03  0.17130000000E+03  0.17130000000E+03 0.  1.
      622    1    1    2    0    0 -0.52856339443E-03 -0.16120252522E-03  0.39956986625E+01  0.39958989110E+01  0.40000000000E-01 0.  1.
</event>
<event>
 5   0  0.7212170E+07  0.9118800E+02  0.7818608E-02  0.1180000E+00
       11   -1    0    0    0    0  0.00000000000E+00  0.00000000000E+00  0.39999999673E+01  0.40000000000E+01  0.51109989000E-03 0. -1.
     -623   -1    0    0    0    0  0.00000000000E+00  0.00000000000E+00  0.12525980253E-10  0.17130000000E+03  0.17130000000E+03 0. -1.
       11    1    1    2    0    0 -0.32666769088E-02 -0.78108990444E-02  0.15106354845E+00  0.15130148121E+00  0.51109989000E-03 0. -1.
     -623    1    1    2    0    0 -0.10711582018E-02  0.27713447219E-03  0.45559110604E-03  0.17130000000E+03  0.17130000000E+03 0. -1.
      622    1    1    2    0    0  0.43378351108E-02  0.75337645722E-02  0.38484808287E+01  0.38486985156E+01  0.40000000000E-01 0. -1.
</event>
<event>
 5   0  0.7212170E+07  0.9118800E+02  0.7818608E-02  0.1180000E+00
       11   -1    0    0    0    0  0.00000000000E+00  0.00000000000E+00  0.39999999673E+01  0.40000000000E+01  0.51109989000E-03 0.  1.
     -623   -1    0    0    0    0  0.00000000000E+00  0.00000000000E+00  0.12525980253E-10  0.17130000000E+03  0.17130000000E+03 0. -1.
       11    1    1    2    0    0 -0.98863906234E-02  0.88335014559E-02  0.78715002723E+00  0.78726183577E+00  0.51109989000E-03 0.  1.
     -623    1    1    2    0    0 -0.13298414502E-02 -0.21467468192E-02  0.38735311973E-03  0.17130000002E+03  0.17130000000E+03 0. -1.
      622    1    1    2    0    0  0.11216232074E-01 -0.66867546368E-02  0.32124625869E+01  0.32127381451E+01  0.40000000000E-01 0.  1.
</event>
<event>
 5   0  0.7212170E+07  0.9118800E+02  0.7818608E-02  0.1180000E+00
       11   -1    0    0    0    0  0.00000000000E+00  0.00000000000E+00  0.39999999673E+01  0.40000000000E+01  0.51109989000E-03 0. -1.
     -623   -1    0    0    0    0  0.00000000000E+00  0.00000000000E+00  0.12525980253E-10  0.17130000000E+03  0.17130000000E+03 0. -1.
       11    1    1    2    0    0 -0.18830443980E-02 -0.72330847317E-02  0.16886252912E+01  0.16886419096E+01  0.51109989000E-03 0. -1.
     -623    1    1    2    0    0 -0.31240744829E-03  0.22619113077E-02  0.36913364264E-03  0.17130000002E+03  0.17130000000E+03 0. -1.
      622    1    1    2    0    0  0.21954518463E-02  0.49711734239E-02  0.23110055427E+01  0.23113580751E+01  0.40000000000E-01 0. -1.
</event>
<event>
 5   0  0.7212170E+07  0.9118800E+02  0.7818608E-02  0.1180000E+00
       11   -1    0    0    0    0  0.00000000000E+00  0.00000000000E+00  0.39999999673E+01  0.40000000000E+01  0.51109989000E-03 0. -1.
     -623   -1    0    0    0    0  0.00000000000E+00  0.00000000000E+00  0.12525980253E-10  0.17130000000E+03  0.17130000000E+03 0. -1.
       11    1    1    2    0    0  0.68624562801E-01  0.56809075048E-03  0.20491710658E+01  0.20503199681E+01  0.51109989000E-03 0. -1.
     -623    1    1    2    0    0 -0.24232676393E-01 -0.30754445788E-01  0.23030838793E-02  0.17130000449E+03  0.17130000000E+03 0. -1.
      622    1    1    2    0    0 -0.44391886407E-01  0.30186355040E-01  0.19485258179E+01  0.19496755419E+01  0.40000000000E-01 0. -1.
</event>
<event>
 5   0  0.7212170E+07  0.9118800E+02  0.7818608E-02  0.1180000E+00
       11   -1    0    0    0    0  0.00000000000E+00  0.00000000000E+00  0.39999999673E+01  0.40000000000E+01  0.51109989000E-03 0.  1.
     -623   -1    0    0    0    0  0.00000000000E+00  0.00000000000E+00  0.12525980253E-10  0.17130000000E+03  0.17130000000E+03 0. -1.
       11    1    1    2    0    0 -0.19057358755E-02 -0.28165700022E-02  0.81728255873E-01  0.81800574123E-01  0.51109989000E-03 0.  1.
     -623    1    1    2    0    0 -0.72850051101E-03 -0.53537951108E-03  0.27878835674E-03  0.17130000000E+03  0.17130000000E+03 0. -1.
      622    1    1    2    0    0  0.26342363864E-02  0.33519495132E-02  0.39179929226E+01  0.39181994228E+01  0.40000000000E-01 0.  1.
</event>
<event>
 5   0  0.7212170E+07  0.9118800E+02  0.7818608E-02  0.1180000E+00
       11   -1    0    0    0    0  0.00000000000E+00  0.00000000000E+00  0.39999999673E+01  0.40000000000E+01  0.51109989000E-03 0. -1.
     -623   -1    0    0    0    0  0.00000000000E+00  0.00000000000E+00  0.12525980253E-10  0.17130000000E+03  0.17130000000E+03 0.  1.
       11    1    1    2    0    0  0.37523327832E-02 -0.37863710245E-02  0.33979029742E-01  0.34398434443E-01  0.51109989000E-03 0. -1.
     -623    1    1    2    0    0 -0.11171071303E-01  0.15043949028E-02  0.62908041939E-03  0.17130000037E+03  0.17130000000E+03 0.  1.
      622    1    1    2    0    0  0.74187385216E-02  0.22819761215E-02  0.39653918578E+01  0.39656011941E+01  0.40000000000E-01 0. -1.
</event>
<event>
 5   0  0.7212170E+07  0.9118800E+02  0.7818608E-02  0.1180000E+00
       11   -1    0    0    0    0  0.00000000000E+00  0.00000000000E+00  0.39999999673E+01  0.40000000000E+01  0.51109989000E-03 0.  1.
     -623   -1    0    0    0    0  0.00000000000E+00  0.00000000000E+00  0.12525980253E-10  0.17130000000E+03  0.17130000000E+03 0.  1.
       11    1    1    2    0    0 -0.19313280997E-03 -0.72699533604E-02  0.17346919919E+00  0.17362233098E+00  0.51109989000E-03 0.  1.
     -623    1    1    2    0    0 -0.10399695892E-02  0.44631408928E-02  0.36346978605E-03  0.17130000006E+03  0.17130000000E+03 0.  1.
      622    1    1    2    0    0  0.12331023990E-02  0.28068124685E-02  0.38261672976E+01  0.38263776066E+01  0.40000000000E-01 0.  1.
</event>
<event>
 5   0  0.7212170E+07  0.9118800E+02  0.7818608E-02  0.1180000E+00
       11   -1    0    0    0    0  0.00000000000E+00  0.00000000000E+00  0.39999999673E+01  0.40000000000E+01  0.51109989000E-03 0.  1.
     -623   -1    0    0    0    0  0.00000000000E+00  0.00000000000E+00  0.12525980253E-10  0.17130000000E+03  0.17130000000E+03 0.  1.
       11    1    1    2    0    0 -0.42347140184E-02 -0.82136118237E-02  0.60118258507E+00  0.60125382164E+00  0.51109989000E-03 0.  1.
     -623    1    1    2    0    0 -0.33111866202E-03  0.70175805401E-03  0.31796398925E-03  0.17130000000E+03  0.17130000000E+03 0.  1.
      622    1    1    2    0    0  0.45658326804E-02  0.75118537698E-02  0.33984994179E+01  0.33987461759E+01  0.40000000000E-01 0.  1.
</event>
<event>
 5   0  0.7212170E+07  0.9118800E+02  0.7818608E-02  0.1180000E+00
       11   -1    0    0    0    0  0.00000000000E+00  0.00000000000E+00  0.39999999673E+01  0.40000000000E+01  0.51109989000E-03 0. -1.
     -623   -1    0    0    0    0  0.00000000000E+00  0.00000000000E+00  0.12525980253E-10  0.17130000000E+03  0.17130000000E+03 0.  1.
       11    1    1    2    0    0  0.12455406708E-01  0.34049480388E-01  0.30429144466E+01  0.30431304762E+01  0.51109989000E-03 0. -1.
     -623    1    1    2    0    0  0.92649741250E-04  0.12905967973E-02  0.17882457197E-02  0.17130000001E+03  0.17130000000E+03 0.  1.
      622    1    1    2    0    0 -0.12548056450E-01 -0.35340077185E-01  0.95529727528E+00  0.95686950987E+00  0.40000000000E-01 0.  0.
</event>
<event>
 5   0  0.7212170E+07  0.9118800E+02  0.7818608E-02  0.1180000E+00
       11   -1    0    0    0    0  0.00000000000E+00  0.00000000000E+00  0.39999999673E+01  0.40000000000E+01  0.51109989000E-03 0. -1.
     -623   -1    0    0    0    0  0.00000000000E+00  0.00000000000E+00  0.12525980253E-10  0.17130000000E+03  0.17130000000E+03 0.  1.
       11    1    1    2    0    0 -0.29816899126E-01  0.96521281049E-02  0.23654520054E+00  0.23861287511E+00  0.51109989000E-03 0. -1.
     -623    1    1    2    0    0 -0.91405244232E-03 -0.27888523090E-02  0.24121865774E-02  0.17130000004E+03  0.17130000000E+03 0.  1.
      622    1    1    2    0    0  0.30730951568E-01 -0.68632757958E-02  0.37610425803E+01  0.37613870829E+01  0.40000000000E-01 0. -1.
</event>
<event>
 5   0  0.7212170E+07  0.9118800E+02  0.7818608E-02  0.1180000E+00
       11   -1    0    0    0    0  0.00000000000E+00  0.00000000000E+00  0.39999999673E+01  0.40000000000E+01  0.51109989000E-03 0.  1.
     -623   -1    0    0    0    0  0.00000000000E+00  0.00000000000E+00  0.12525980253E-10  0.17130000000E+03  0.17130000000E+03 0. -1.
       11    1    1    2    0    0  0.88806483961E-02 -0.16024149948E-01  0.39316064939E+00  0.39358759730E+00  0.51109989000E-03 0.  1.
     -623    1    1    2    0    0 -0.10238509370E-01  0.18045381927E-01  0.65082904705E-03  0.17130000126E+03  0.17130000000E+03 0. -1.
      622    1    1    2    0    0  0.13578609744E-02 -0.20212319801E-02  0.36061884892E+01  0.36064111453E+01  0.40000000000E-01 0.  1.
</event>
<event>
 5   0  0.7212170E+07  0.9118800E+02  0.7818608E-02  0.1180000E+00
       11   -1    0    0    0    0  0.00000000000E+00  0.00000000000E+00  0.39999999673E+01  0.40000000000E+01  0.51109989000E-03 0.  1.
     -623   -1    0    0    0    0  0.00000000000E+00  0.00000000000E+00  0.12525980253E-10  0.17130000000E+03  0.17130000000E+03 0.  1.
       11    1    1    2    0    0 -0.24600380942E-02  0.72076487898E-03  0.16395380917E+00  0.16397464454E+00  0.51109989000E-03 0.  1.
     -623    1    1    2    0    0  0.74589734215E-03  0.19691590522E-03  0.22985226980E-03  0.17130000000E+03  0.17130000000E+03 0.  1.
      622    1    1    2    0    0  0.17141407518E-02 -0.91768078426E-03  0.38358163070E+01  0.38360253547E+01  0.40000000000E-01 0.  1.
</event>
<event>
 5   0  0.7212170E+07  0.9118800E+02  0.7818608E-02  0.1180000E+00
       11   -1    0    0    0    0  0.00000000000E+00  0.00000000000E+00  0.39999999673E+01  0.40000000000E+01  0.51109989000E-03 0. -1.
     -623   -1    0    0    0    0  0.00000000000E+00  0.00000000000E+00  0.12525980253E-10  0.17130000000E+03  0.17130000000E+03 0. -1.
       11    1    1    2    0    0  0.37542992474E-04  0.31999209860E-03  0.11653197782E-02  0.13126300706E-02  0.51109989000E-03 0. -1.
     -623    1    1    2    0    0  0.27897566591E-03 -0.11766445846E-02  0.34745722561E-03  0.17130000000E+03  0.17130000000E+03 0. -1.
      622    1    1    2    0    0 -0.31651865841E-03  0.85665248612E-03  0.39984871906E+01  0.39986873656E+01  0.40000000000E-01 0. -1.
</event>
<event>
 5   0  0.7212170E+07  0.9118800E+02  0.7818608E-02  0.1180000E+00
       11   -1    0    0    0    0  0.00000000000E+00  0.00000000000E+00  0.39999999673E+01  0.40000000000E+01  0.51109989000E-03 0.  1.
     -623   -1    0    0    0    0  0.00000000000E+00  0.00000000000E+00  0.12525980253E-10  0.17130000000E+03  0.17130000000E+03 0.  1.
       11    1    1    2    0    0 -0.12118693379E-01 -0.76302019186E-03  0.19148306005E+01  0.19148691691E+01  0.51109989000E-03 0.  1.
     -623    1    1    2    0    0  0.47805101920E-02  0.11160910658E-02  0.43525605901E-03  0.17130000007E+03  0.17130000000E+03 0.  1.
      622    1    1    2    0    0  0.73381831877E-02 -0.35307087374E-03  0.20847341103E+01  0.20851307595E+01  0.40000000000E-01 0.  1.
</event>
<event>
 5   0  0.7212170E+07  0.9118800E+02  0.7818608E-02  0.1180000E+00
       11   -1    0    0    0    0  0.00000000000E+00  0.00000000000E+00  0.39999999673E+01  0.40000000000E+01  0.51109989000E-03 0. -1.
     -623   -1    0    0    0    0  0.00000000000E+00  0.00000000000E+00  0.12525980253E-10  0.17130000000E+03  0.17130000000E+03 0.  1.
       11    1    1    2    0    0  0.22327885774E-01  0.11846835218E-01  0.76076005048E+00  0.76118000343E+00  0.51109989000E-03 0. -1.
     -623    1    1    2    0    0  0.15380615425E-02 -0.39633540177E-03  0.77512414920E-03  0.17130000001E+03  0.17130000000E+03 0.  1.
      622    1    1    2    0    0 -0.23865947317E-01 -0.11450499817E-01  0.32384647931E+01  0.32388199878E+01  0.40000000000E-01 0. -1.
</event>
<event>
 5   0  0.7212170E+07  0.9118800E+02  0.7818608E-02  0.1180000E+00
       11   -1    0    0    0    0  0.00000000000E+00  0.00000000000E+00  0.39999999673E+01  0.40000000000E+01  0.51109989000E-03 0.  1.
     -623   -1    0    0    0    0  0.00000000000E+00  0.00000000000E+00  0.12525980253E-10  0.17130000000E+03  0.17130000000E+03 0. -1.
       11    1    1    2    0    0 -0.10064366517E-01  0.12907661051E-02  0.64778904790E-01  0.65570765433E-01  0.51109989000E-03 0.  1.
     -623    1    1    2    0    0  0.16546600107E-02 -0.16376786614E-02  0.10041886976E-02  0.17130000002E+03  0.17130000000E+03 0. -1.
      622    1    1    2    0    0  0.84097065064E-02  0.34691255634E-03  0.39342168740E+01  0.39344292159E+01  0.40000000000E-01 0.  1.
</event>
<event>
 5   0  0.7212170E+07  0.9118800E+02  0.7818608E-02  0.1180000E+00
       11   -1    0    0    0    0  0.00000000000E+00  0.00000000000E+00  0.39999999673E+01  0.40000000000E+01  0.51109989000E-03 0.  1.
     -623   -1    0    0    0    0  0.00000000000E+00  0.00000000000E+00  0.12525980253E-10  0.17130000000E+03  0.17130000000E+03 0. -1.
       11    1    1    2    0    0 -0.16979164784E-01  0.34370863328E-03  0.31696597283E+00  0.31742101273E+00  0.51109989000E-03 0.  1.
     -623    1    1    2    0    0  0.23325985628E-01  0.16046585575E-01  0.71654081020E-03  0.17130000234E+03  0.17130000000E+03 0. -1.
      622    1    1    2    0    0 -0.63468208486E-02 -0.16390294212E-01  0.36823174547E+01  0.36825766470E+01  0.40000000000E-01 0.  1.
</event>
<event>
 5   0  0.7212170E+07  0.9118800E+02  0.7818608E-02  0.1180000E+00
       11   -1    0    0    0    0  0.00000000000E+00  0.00000000000E+00  0.39999999673E+01  0.40000000000E+01  0.51109989000E-03 0.  1.
     -623   -1    0    0    0    0  0.00000000000E+00  0.00000000000E+00  0.12525980253E-10  0.17130000000E+03  0.17130000000E+03 0.  1.
       11    1    1    2    0    0  0.46707066973E-03 -0.37960827600E-03  0.20618682175E-02  0.22078906444E-02  0.51109989000E-03 0.  1.
     -623    1    1    2    0    0 -0.84408527747E-03  0.45181274986E-03  0.34612670651E-03  0.17130000000E+03  0.17130000000E+03 0.  1.
      622    1    1    2    0    0  0.37701460758E-03 -0.72204473773E-04  0.39975919717E+01  0.39977921056E+01  0.40000000000E-01 0.  1.
</event>
<event>
 5   0  0.7212170E+07  0.9118800E+02  0.7818608E-02  0.1180000E+00
       11   -1    0    0    0    0  0.00000000000E+00  0.00000000000E+00  0.39999999673E+01  0.40000000000E+01  0.51109989000E-03 0.  1.
     -623   -1    0    0    0    0  0.00000000000E+00  0.00000000000E+00  0.12525980253E-10  0.17130000000E+03  0.17130000000E+03 0. -1.
       11    1    1    2    0    0 -0.74349941679E-02 -0.60768341002E-02  0.12353089454E+01  0.12353463720E+01  0.51109989000E-03 0.  1.
     -623    1    1    2    0    0  0.94929687390E-03  0.12094182472E-02  0.33867706893E-03  0.17130000001E+03  0.17130000000E+03 0. -1.
      622    1    1    2    0    0  0.64856972936E-02  0.48674158526E-02  0.27643523463E+01  0.27646536222E+01  0.40000000000E-01 0.  1.
</event>
<event>
 5   0  0.7212170E+07  0.9118800E+02  0.7818608E-02  0.1180000E+00
       11   -1    0    0    0    0  0.00000000000E+00  0.00000000000E+00  0.39999999673E+01  0.40000000000E+01  0.51109989000E-03 0.  1.
     -623   -1    0    0    0    0  0.00000000000E+00  0.00000000000E+00  0.12525980253E-10  0.17130000000E+03  0.17130000000E+03 0. -1.
       11    1    1    2    0    0  0.77094544189E-03  0.66333645779E-04  0.13888518777E-01  0.13919444455E-01  0.51109989000E-03 0.  1.
     -623    1    1    2    0    0 -0.19911995738E-03  0.17858320417E-03  0.23164540154E-03  0.17130000000E+03  0.17130000000E+03 0. -1.
      622    1    1    2    0    0 -0.57182548456E-03 -0.24491684991E-03  0.39858798023E+01  0.39860805543E+01  0.40000000000E-01 0.  1.
</event>
<event>
 5   0  0.7212170E+07  0.9118800E+02  0.7818608E-02  0.1180000E+00
       11   -1    0    0    0    0  0.00000000000E+00  0.00000000000E+00  0.39999999673E+01  0.40000000000E+01  0.51109989000E-03 0.  1.
     -623   -1    0    0    0    0  0.00000000000E+00  0.00000000000E+00  0.12525980253E-10  0.17130000000E+03  0.17130000000E+03 0.  1.
       11    1    1    2    0    0  0.57397959204E-03 -0.29027539619E-03  0.91787005281E-05  0.82159583970E-03  0.51109989000E-03 0.  1.
     -623    1    1    2    0    0  0.20349553507E-03  0.13371759311E-02  0.10126515369E-02  0.17130000001E+03  0.17130000000E+03 0.  1.
      622    1    1    2    0    0 -0.77747512713E-03 -0.10469005350E-02  0.39989781375E+01  0.39991783962E+01  0.40000000000E-01 0.  1.
</event>
<event>
 5   0  0.7212170E+07  0.9118800E+02  0.7818608E-02  0.1180000E+00
       11   -1    0    0    0    0  0.00000000000E+00  0.00000000000E+00  0.39999999673E+01  0.40000000000E+01  0.51109989000E-03 0.  1.
     -623   -1    0    0    0    0  0.00000000000E+00  0.00000000000E+00  0.12525980253E-10  0.17130000000E+03  0.17130000000E+03 0. -1.
       11    1    1    2    0    0 -0.59998873498E-03 -0.11571390884E-02  0.10915970128E-01  0.11005388875E-01  0.51109989000E-03 0.  1.
     -623    1    1    2    0    0  0.92513182041E-03 -0.17810122080E-04  0.29013198072E-03  0.17130000000E+03  0.17130000000E+03 0. -1.
      622    1    1    2    0    0 -0.32514308558E-03  0.11749492104E-02  0.39887938659E+01  0.39889946091E+01  0.40000000000E-01 0.  1.
</event>
<event>
 5   0  0.7212170E+07  0.9118800E+02  0.7818608E-02  0.1180000E+00
       11   -1    0    0    0    0  0.00000000000E+00  0.00000000000E+00  0.39999999673E+01  0.40000000000E+01  0.51109989000E-03 0.  1.
     -623   -1    0    0    0    0  0.00000000000E+00  0.00000000000E+00  0.12525980253E-10  0.17130000000E+03  0.17130000000E+03 0.  1.
       11    1    1    2    0    0  0.28855088223E-02  0.15262731557E-02  0.68362490916E-01  0.68442289984E-01  0.51109989000E-03 0.  1.
     -623    1    1    2    0    0 -0.93321798429E-03 -0.13731002089E-02  0.28374939566E-03  0.17130000001E+03  0.17130000000E+03 0.  1.
      622    1    1    2    0    0 -0.19522908381E-02 -0.15317294695E-03  0.39313537264E+01  0.39315577010E+01  0.40000000000E-01 0.  1.
</event>
<event>
 5   0  0.7212170E+07  0.9118800E+02  0.7818608E-02  0.1180000E+00
       11   -1    0    0    0    0  0.00000000000E+00  0.00000000000E+00  0.39999999673E+01  0.40000000000E+01  0.51109989000E-03 0.  1.
     -623   -1    0    0    0    0  0.00000000000E+00  0.00000000000E+00  0.12525980253E-10  0.17130000000E+03  0.17130000000E+03 0.  1.
       11    1    1    2    0    0 -0.18918827900E-02 -0.11382882501E-02  0.19965297846E-01  0.20093512928E-01  0.51109989000E-03 0.  1.
     -623    1    1    2    0    0 -0.22694212800E-04  0.35979776775E-03  0.32973464314E-03  0.17130000000E+03  0.17130000000E+03 0.  1.
      622    1    1    2    0    0  0.19145770028E-02  0.77849048243E-03  0.39797049341E+01  0.39799064856E+01  0.40000000000E-01 0.  1.
</event>
<event>
 5   0  0.7212170E+07  0.9118800E+02  0.7818608E-02  0.1180000E+00
       11   -1    0    0    0    0  0.00000000000E+00  0.00000000000E+00  0.39999999673E+01  0.40000000000E+01  0.51109989000E-03 0. -1.
     -623   -1    0    0    0    0  0.00000000000E+00  0.00000000000E+00  0.12525980253E-10  0.17130000000E+03  0.17130000000E+03 0. -1.
       11    1    1    2    0    0  0.64355221981E-03 -0.28183828341E-03  0.12077084228E-01  0.12108293804E-01  0.51109989000E-03 0. -1.
     -623    1    1    2    0    0 -0.71777440299E-03 -0.26297240080E-03  0.23182900418E-03  0.17130000000E+03  0.17130000000E+03 0. -1.
      622    1    1    2    0    0  0.74222183153E-04  0.54481068419E-03  0.39876910540E+01  0.39878917042E+01  0.40000000000E-01 0. -1.
</event>
<event>
 5   0  0.7212170E+07  0.9118800E+02  0.7818608E-02  0.1180000E+00
       11   -1    0    0    0    0  0.00000000000E+00  0.00000000000E+00  0.39999999673E+01  0.40000000000E+01  0.51109989000E-03 0. -1.
     -623   -1    0    0    0    0  0.00000000000E+00  0.00000000000E+00  0.12525980253E-10  0.17130000000E+03  0.17130000000E+03 0. -1.
       11    1    1    2    0    0 -0.25852991104E-02 -0.28659279389E-02  0.40494363386E-01  0.40681101307E-01  0.51109989000E-03 0. -1.
     -623    1    1    2    0    0 -0.39413957210E-02 -0.53855490306E-02  0.40287434725E-03  0.17130000013E+03  0.17130000000E+03 0. -1.
      622    1    1    2    0    0  0.65266948324E-02  0.82514769708E-02  0.39591027306E+01  0.39593187692E+01  0.40000000000E-01 0. -1.
</event>
<event>
 5   0  0.7212170E+07  0.9118800E+02  0.7818608E-02  0.1180000E+00
       11   -1    0    0    0    0  0.00000000000E+00  0.00000000000E+00  0.39999999673E+01  0.40000000000E+01  0.51109989000E-03 0.  1.
     -623   -1    0    0    0    0  0.00000000000E+00  0.00000000000E+00  0.12525980253E-10  0.17130000000E+03  0.17130000000E+03 0. -1.
       11    1    1    2    0    0 -0.20225617618E-02  0.34326906277E-02  0.33132575329E-01  0.33375183776E-01  0.51109989000E-03 0.  1.
     -623    1    1    2    0    0 -0.36311299537E-03  0.21304711648E-03  0.44665777741E-03  0.17130000000E+03  0.17130000000E+03 0. -1.
      622    1    1    2    0    0  0.23856747572E-02 -0.36457377442E-02  0.39664207345E+01  0.39666248154E+01  0.40000000000E-01 0.  1.
</event>
<event>
 5   0  0.7212170E+07  0.9118800E+02  0.7818608E-02  0.1180000E+00
       11   -1    0    0    0    0  0.00000000000E+00  0.00000000000E+00  0.39999999673E+01  0.40000000000E+01  0.51109989000E-03 0.  1.
     -623   -1    0    0    0    0  0.00000000000E+00  0.00000000000E+00  0.12525980253E-10  0.17130000000E+03  0.17130000000E+03 0.  1.
       11    1    1    2    0    0 -0.63670549139E-02 -0.34573321672E-02  0.87756002165E+00  0.87759007820E+00  0.51109989000E-03 0.  1.
     -623    1    1    2    0    0 -0.25669924626E-03 -0.27836440879E-04  0.29521869442E-03  0.17130000000E+03  0.17130000000E+03 0.  1.
      622    1    1    2    0    0  0.66237541601E-02  0.34851686081E-02  0.31221447270E+01  0.31224099213E+01  0.40000000000E-01 0.  0.
</event>
<event>
 5   0  0.7212170E+07  0.9118800E+02  0.7818608E-02  0.1180000E+00
       11   -1    0    0    0    0  0.00000000000E+00  0.00000000000E+00  0.39999999673E+01  0.40000000000E+01  0.51109989000E-03 0.  1.
     -623   -1    0    0    0    0  0.00000000000E+00  0.00000000000E+00  0.12525980253E-10  0.17130000000E+03  0.17130000000E+03 0.  1.
       11    1    1    2    0    0 -0.65083814408E-02  0.58017291493E-02  0.90473292468E+00  0.90477507996E+00  0.51109989000E-03 0.  1.
     -623    1    1    2    0    0 -0.17962956725E-03  0.19125148156E-02  0.31744727397E-03  0.17130000001E+03  0.17130000000E+03 0.  1.
      622    1    1    2    0    0  0.66880110081E-02 -0.77142439655E-02  0.30949495967E+01  0.30952249103E+01  0.40000000000E-01 0. -1.
</event>
<event>
 5   0  0.7212170E+07  0.9118800E+02  0.7818608E-02  0.1180000E+00
       11   -1    0    0    0    0  0.00000000000E+00  0.00000000000E+00  0.39999999673E+01  0.40000000000E+01  0.51109989000E-03 0.  1.
     -623   -1    0    0    0    0  0.00000000000E+00  0.00000000000E+00  0.12525980253E-10  0.17130000000E+03  0.17130000000E+03 0.  1.
       11    1    1    2    0    0  0.54006943807E-03  0.60296089383E-02  0.20762932597E-01  0.21633503000E-01  0.51109989000E-03 0.  1.
     -623    1    1    2    0    0  0.22566408704E-02 -0.24219228896E-02  0.10742846784E-02  0.17130000004E+03  0.17130000000E+03 0.  1.
      622    1    1    2    0    0 -0.27967103085E-02 -0.36076860487E-02  0.39781627500E+01  0.39783664616E+01  0.40000000000E-01 0.  1.
</event>
<event>
 5   0  0.7212170E+07  0.9118800E+02  0.7818608E-02  0.1180000E+00
       11   -1    0    0    0    0  0.00000000000E+00  0.00000000000E+00  0.39999999673E+01  0.40000000000E+01  0.51109989000E-03 0.  1.
     -623   -1    0    0    0    0  0.00000000000E+00  0.00000000000E+00  0.12525980253E-10  0.17130000000E+03  0.17130000000E+03 0. -1.
       11    1    1    2    0    0 -0.90819817490E-03  0.11162315568E-01  0.91560867904E+00  0.91567731023E+00  0.51109989000E-03 0.  1.
     -623    1    1    2    0    0 -0.57346298690E-04  0.43479335855E-03  0.34994233340E-03  0.17130000000E+03  0.17130000000E+03 0. -1.
      622    1    1    2    0    0  0.96554447360E-03 -0.11597108927E-01  0.30840413468E+01  0.30843226897E+01  0.40000000000E-01 0.  0.
</event>
<event>
 5   0  0.7212170E+07  0.9118800E+02  0.7818608E-02  0.1180000E+00
       11   -1    0    0    0    0  0.00000000000E+00  0.00000000000E+00  0.39999999673E+01  0.40000000000E+01  0.51109989000E-03 0. -1.
     -623   -1    0    0    0    0  0.00000000000E+00  0.00000000000E+00  0.12525980253E-10  0.17130000000E+03  0.17130000000E+03 0. -1.
       11    1    1    2    0    0 -0.34676257638E-01  0.71661351216E-01  0.81784342506E+00  0.82170914637E+00  0.51109989000E-03 0. -1.
     -623    1    1    2    0    0  0.13018130852E-01 -0.33738743433E-01  0.44213543826E-02  0.17130000387E+03  0.17130000000E+03 0. -1.
      622    1    1    2    0    0  0.21658126786E-01 -0.37922607784E-01  0.31777351879E+01  0.31782869793E+01  0.40000000000E-01 0.  1.
</event>
<event>
 5   0  0.7212170E+07  0.9118800E+02  0.7818608E-02  0.1180000E+00
       11   -1    0    0    0    0  0.00000000000E+00  0.00000000000E+00  0.39999999673E+01  0.40000000000E+01  0.51109989000E-03 0. -1.
     -623   -1    0    0    0    0  0.00000000000E+00  0.00000000000E+00  0.12525980253E-10  0.17130000000E+03  0.17130000000E+03 0.  1.
       11    1    1    2    0    0  0.19037545607E-01  0.65371686858E-02  0.77708975910E+00  0.77735057576E+00  0.51109989000E-03 0. -1.
     -623    1    1    2    0    0  0.91032185229E-03 -0.25390156540E-02  0.57328207696E-03  0.17130000002E+03  0.17130000000E+03 0.  1.
      622    1    1    2    0    0 -0.19947867459E-01 -0.39981530318E-02  0.32223369261E+01  0.32226494020E+01  0.40000000000E-01 0. -1.
</event>
<event>
 5   0  0.7212170E+07  0.9118800E+02  0.7818608E-02  0.1180000E+00
       11   -1    0    0    0    0  0.00000000000E+00  0.00000000000E+00  0.39999999673E+01  0.40000000000E+01  0.51109989000E-03 0.  1.
     -623   -1    0    0    0    0  0.00000000000E+00  0.00000000000E+00  0.12525980253E-10  0.17130000000E+03  0.17130000000E+03 0. -1.
       11    1    1    2    0    0  0.23757612727E-02  0.70615994635E-02  0.24413343528E+00  0.24424763228E+00  0.51109989000E-03 0.  1.
     -623    1    1    2    0    0 -0.31349094620E-03  0.93484225816E-03  0.33625955956E-03  0.17130000000E+03  0.17130000000E+03 0. -1.
      622    1    1    2    0    0 -0.20622703266E-02 -0.79964417215E-02  0.37555302721E+01  0.37557523642E+01  0.40000000000E-01 0.  1.
</event>
<event>
 5   0  0.7212170E+07  0.9118800E+02  0.7818608E-02  0.1180000E+00
       11   -1    0    0    0    0  0.00000000000E+00  0.00000000000E+00  0.39999999673E+01  0.40000000000E+01  0.51109989000E-03 0. -1.
     -623   -1    0    0    0    0  0.00000000000E+00  0.00000000000E+00  0.12525980253E-10  0.17130000000E+03  0.17130000000E+03 0. -1.
       11    1    1    2    0    0  0.53082201560E-03  0.89486229004E-03  0.13154084134E-01  0.13205063537E-01  0.51109989000E-03 0. -1.
     -623    1    1    2    0    0 -0.10804046257E-03 -0.25697332348E-02  0.25200799506E-03  0.17130000002E+03  0.17130000000E+03 0. -1.
      622    1    1    2    0    0 -0.42278155299E-03  0.16748709458E-02  0.39865938767E+01  0.39867949185E+01  0.40000000000E-01 0. -1.
</event>
<event>
 5   0  0.7212170E+07  0.9118800E+02  0.7818608E-02  0.1180000E+00
       11   -1    0    0    0    0  0.00000000000E+00  0.00000000000E+00  0.39999999673E+01  0.40000000000E+01  0.51109989000E-03 0. -1.
     -623   -1    0    0    0    0  0.00000000000E+00  0.00000000000E+00  0.12525980253E-10  0.17130000000E+03  0.17130000000E+03 0.  1.
       11    1    1    2    0    0 -0.32866945393E-02  0.19538853017E-02  0.27846285792E+00  0.27848957699E+00  0.51109989000E-03 0. -1.
     -623    1    1    2    0    0 -0.25290078363E-02 -0.71160760850E-03  0.24643124203E-03  0.17130000002E+03  0.17130000000E+03 0.  1.
      622    1    1    2    0    0  0.58157023758E-02 -0.12422776932E-02  0.37212906785E+01  0.37215104030E+01  0.40000000000E-01 0. -1.
</event>
<event>
 5   0  0.7212170E+07  0.9118800E+02  0.7818608E-02  0.1180000E+00
       11   -1    0    0    0    0  0.00000000000E+00  0.00000000000E+00  0.39999999673E+01  0.40000000000E+01  0.51109989000E-03 0.  1.
     -623   -1    0    0    0    0  0.00000000000E+00  0.00000000000E+00  0.12525980253E-10  0.17130000000E+03  0.17130000000E+03 0.  1.
       11    1    1    2    0    0  0.21175712536E-01 -0.24503311030E-01  0.23131751402E+00  0.23357413506E+00  0.51109989000E-03 0.  1.
     -623    1    1    2    0    0 -0.16782027193E-01 -0.22172568183E-02  0.25672058395E-02  0.17130000086E+03  0.17130000000E+03 0.  1.
      622    1    1    2    0    0 -0.43936853428E-02  0.26720567848E-01  0.37661152476E+01  0.37664250094E+01  0.40000000000E-01 0.  1.
</event>
<event>
 5   0  0.7212170E+07  0.9118800E+02  0.7818608E-02  0.1180000E+00
       11   -1    0    0    0    0  0.00000000000E+00  0.00000000000E+00  0.39999999673E+01  0.40000000000E+01  0.51109989000E-03 0. -1.
     -623   -1    0    0    0    0  0.00000000000E+00  0.00000000000E+00  0.12525980253E-10  0.17130000000E+03  0.17130000000E+03 0.  1.
       11    1    1    2    0    0 -0.46155098032E-03 -0.41241362692E-03  0.26392506633E-02  0.27586194860E-02  0.51109989000E-03 0. -1.
     -623    1    1    2    0    0  0.26046592447E-03  0.10295154023E-02  0.31953550458E-03  0.17130000000E+03  0.17130000000E+03 0.  1.
      622    1    1    2    0    0  0.20108505591E-03 -0.61710177513E-03  0.39970411802E+01  0.39972413760E+01  0.40000000000E-01 0. -1.
</event>
<event>
 5   0  0.7212170E+07  0.9118800E+02  0.7818608E-02  0.1180000E+00
       11   -1    0    0    0    0  0.00000000000E+00  0.00000000000E+00  0.39999999673E+01  0.40000000000E+01  0.51109989000E-03 0. -1.
     -623   -1    0    0    0    0  0.00000000000E+00  0.00000000000E+00  0.12525980253E-10  0.17130000000E+03  0.17130000000E+03 0. -1.
       11    1    1    2    0    0  0.33002568121E-02 -0.14414985327E-01  0.28254289254E+00  0.28293008120E+00  0.51109989000E-03 0. -1.
     -623    1    1    2    0    0  0.22702309772E-01  0.39300533584E-01  0.78266813298E-03  0.17130000601E+03  0.17130000000E+03 0. -1.
      622    1    1    2    0    0 -0.26002566582E-01 -0.24885548254E-01  0.37166744064E+01  0.37170639041E+01  0.40000000000E-01 0. -1.
</event>
<event>
 5   0  0.7212170E+07  0.9118800E+02  0.7818608E-02  0.1180000E+00
       11   -1    0    0    0    0  0.00000000000E+00  0.00000000000E+00  0.39999999673E+01  0.40000000000E+01  0.51109989000E-03 0.  1.
     -623   -1    0    0    0    0  0.00000000000E+00  0.00000000000E+00  0.12525980253E-10  0.17130000000E+03  0.17130000000E+03 0. -1.
       11    1    1    2    0    0  0.16080035260E-01  0.26983220543E-01  0.12761949302E+01  0.12765815378E+01  0.51109989000E-03 0.  1.
     -623    1    1    2    0    0  0.12806843283E-01 -0.22932169226E-01  0.83858904403E-03  0.17130000202E+03  0.17130000000E+03 0. -1.
      622    1    1    2    0    0 -0.28886878542E-01 -0.40510513187E-02  0.27229664478E+01  0.27234164460E+01  0.40000000000E-01 0.  1.
</event>
<event>
 5   0  0.7212170E+07  0.9118800E+02  0.7818608E-02  0.1180000E+00
       11   -1    0    0    0    0  0.00000000000E+00  0.00000000000E+00  0.39999999673E+01  0.40000000000E+01  0.51109989000E-03 0. -1.
     -623   -1    0    0    0    0  0.00000000000E+00  0.00000000000E+00  0.12525980253E-10  0.17130000000E+03  0.17130000000E+03 0.  1.
       11    1    1    2    0    0 -0.29645006022E-02 -0.28055469641E-02  0.12022258883E+00  0.12029294013E+00  0.51109989000E-03 0. -1.
     -623    1    1    2    0    0 -0.16257486396E-03 -0.95685963778E-03  0.27961297072E-03  0.17130000000E+03  0.17130000000E+03 0.  1.
      622    1    1    2    0    0  0.31270754662E-02  0.37624066023E-02  0.38794977673E+01  0.38797070587E+01  0.40000000000E-01 0. -1.
</event>
<event>
 5   0  0.7212170E+07  0.9118800E+02  0.7818608E-02  0.1180000E+00
       11   -1    0    0    0    0  0.00000000000E+00  0.00000000000E+00  0.39999999673E+01  0.40000000000E+01  0.51109989000E-03 0. -1.
     -623   -1    0    0    0    0  0.00000000000E+00  0.00000000000E+00  0.12525980253E-10  0.17130000000E+03  0.17130000000E+03 0. -1.
       11    1    1    2    0    0 -0.24586189641E-01 -0.32726283365E-02  0.59230936287E+00  0.59282867119E+00  0.51109989000E-03 0. -1.
     -623    1    1    2    0    0  0.66359694847E-02  0.28147400956E-01  0.89462455204E-03  0.17130000244E+03  0.17130000000E+03 0. -1.
      622    1    1    2    0    0  0.17950220156E-01 -0.24874772621E-01  0.34067959801E+01  0.34071688856E+01  0.40000000000E-01 0. -1.
</event>
<event>
 5   0  0.7212170E+07  0.9118800E+02  0.7818608E-02  0.1180000E+00
       11   -1    0    0    0    0  0.00000000000E+00  0.00000000000E+00  0.39999999673E+01  0.40000000000E+01  0.51109989000E-03 0.  1.
     -623   -1    0    0    0    0  0.00000000000E+00  0.00000000000E+00  0.12525980253E-10  0.17130000000E+03  0.17130000000E+03 0.  1.
       11    1    1    2    0    0  0.27883049052E-02 -0.47216761167E-02  0.19049926221E+00  0.19057885243E+00  0.51109989000E-03 0.  1.
     -623    1    1    2    0    0 -0.14195666336E-02  0.27102305491E-02  0.29037358183E-03  0.17130000003E+03  0.17130000000E+03 0.  1.
      622    1    1    2    0    0 -0.13687382714E-02  0.20114455674E-02  0.38092103319E+01  0.38094211203E+01  0.40000000000E-01 0.  1.
</event>
<event>
 5   0  0.7212170E+07  0.9118800E+02  0.7818608E-02  0.1180000E+00
       11   -1    0    0    0    0  0.00000000000E+00  0.00000000000E+00  0.39999999673E+01  0.40000000000E+01  0.51109989000E-03 0. -1.
     -623   -1    0    0    0    0  0.00000000000E+00  0.00000000000E+00  0.12525980253E-10  0.17130000000E+03  0.17130000000E+03 0.  1.
       11    1    1    2    0    0 -0.82409450063E-03  0.40517606885E-03  0.75666691888E-01  0.75673990140E-01  0.51109989000E-03 0. -1.
     -623    1    1    2    0    0 -0.47309071154E-04  0.49438791826E-03  0.21132828053E-03  0.17130000000E+03  0.17130000000E+03 0.  1.
      622    1    1    2    0    0  0.87140357180E-03 -0.89956398732E-03  0.39241219489E+01  0.39243260107E+01  0.40000000000E-01 0. -1.
</event>
<event>
 5   0  0.7212170E+07  0.9118800E+02  0.7818608E-02  0.1180000E+00
       11   -1    0    0    0    0  0.00000000000E+00  0.00000000000E+00  0.39999999673E+01  0.40000000000E+01  0.51109989000E-03 0. -1.
     -623   -1    0    0    0    0  0.00000000000E+00  0.00000000000E+00  0.12525980253E-10  0.17130000000E+03  0.17130000000E+03 0. -1.
       11    1    1    2    0    0 -0.58086988023E-02  0.17681646702E-02  0.82059286249E-01  0.82285205662E-01  0.51109989000E-03 0. -1.
     -623    1    1    2    0    0  0.59414875419E-02  0.31832887660E-02  0.43335733429E-03  0.17130000013E+03  0.17130000000E+03 0. -1.
      622    1    1    2    0    0 -0.13278874019E-03 -0.49514534364E-02  0.39175073242E+01  0.39177146616E+01  0.40000000000E-01 0. -1.
</event>
<event>
 5   0  0.7212170E+07  0.9118800E+02  0.7818608E-02  0.1180000E+00
       11   -1    0    0    0    0  0.00000000000E+00  0.00000000000E+00  0.39999999673E+01  0.40000000000E+01  0.51109989000E-03 0. -1.
     -623   -1    0    0    0    0  0.00000000000E+00  0.00000000000E+00  0.12525980253E-10  0.17130000000E+03  0.17130000000E+03 0. -1.
       11    1    1    2    0    0  0.27181606991E-02  0.12929623614E-02  0.21871715292E-01  0.22083779164E-01  0.51109989000E-03 0. -1.
     -623    1    1    2    0    0 -0.54205100290E-03  0.82082537798E-04  0.41398092811E-03  0.17130000000E+03  0.17130000000E+03 0. -1.
      622    1    1    2    0    0 -0.21761096962E-02 -0.13750448992E-02  0.39777142714E+01  0.39779162197E+01  0.40000000000E-01 0. -1.
</event>
<event>
 5   0  0.7212170E+07  0.9118800E+02  0.7818608E-02  0.1180000E+00
       11   -1    0    0    0    0  0.00000000000E+00  0.00000000000E+00  0.39999999673E+01  0.40000000000E+01  0.51109989000E-03 0.  1.
     -623   -1    0    0    0    0  0.00000000000E+00  0.00000000000E+00  0.12525980253E-10  0.17130000000E+03  0.17130000000E+03 0. -1.
       11    1    1    2    0    0 -0.77032694480E-03 -0.88175478048E-03  0.11014058511E+00  0.11014799411E+00  0.51109989000E-03 0.  1.
     -623    1    1    2    0    0  0.51250070694E-03  0.18664987934E-03  0.21311680490E-03  0.17130000000E+03  0.17130000000E+03 0. -1.
      622    1    1    2    0    0  0.25782623794E-03  0.69510490116E-03  0.38896462649E+01  0.38898520043E+01  0.40000000000E-01 0.  1.
</event>
<event>
 5   0  0.7212170E+07  0.9118800E+02  0.7818608E-02  0.1180000E+00
       11   -1    0    0    0    0  0.00000000000E+00  0.00000000000E+00  0.39999999673E+01  0.40000000000E+01  0.51109989000E-03 0. -1.
     -623   -1    0    0    0    0  0.00000000000E+00  0.00000000000E+00  0.12525980253E-10  0.17130000000E+03  0.17130000000E+03 0. -1.
       11    1    1    2    0    0 -0.22979410308E-02 -0.18061860848E-03  0.11736816157E+01  0.11736839904E+01  0.51109989000E-03 0. -1.
     -623    1    1    2    0    0 -0.94657589667E-03 -0.20365498270E-04  0.28728274559E-03  0.17130000000E+03  0.17130000000E+03 0. -1.
      622    1    1    2    0    0  0.32445169277E-02  0.20098410676E-03  0.28260310701E+01  0.28263160079E+01  0.40000000000E-01 0. -1.
</event>
<event>
 5   0  0.7212170E+07  0.9118800E+02  0.7818608E-02  0.1180000E+00
       11   -1    0    0    0    0  0.00000000000E+00  0.00000000000E+00  0.39999999673E+01  0.40000000000E+01  0.51109989000E-03 0. -1.
     -623   -1    0    0    0    0  0.00000000000E+00  0.00000000000E+00  0.12525980253E-10  0.17130000000E+03  0.17130000000E+03 0. -1.
       11    1    1    2    0    0  0.21366149307E-02  0.88939570112E-03  0.56762527831E-01  0.56811987616E-01  0.51109989000E-03 0. -1.
     -623    1    1    2    0    0 -0.23226782067E-02 -0.13028735906E-02  0.25236084836E-03  0.17130000002E+03  0.17130000000E+03 0. -1.
      622    1    1    2    0    0  0.18606327680E-03  0.41347788996E-03  0.39429850801E+01  0.39431879929E+01  0.40000000000E-01 0. -1.
</event>
<event>
 5   0  0.7212170E+07  0.9118800E+02  0.7818608E-02  0.1180000E+00
       11   -1    0    0    0    0  0.00000000000E+00  0.00000000000E+00  0.39999999673E+01  0.40000000000E+01  0.51109989000E-03 0.  1.
     -623   -1    0    0    0    0  0.00000000000E+00  0.00000000000E+00  0.12525980253E-10  0.17130000000E+03  0.17130000000E+03 0. -1.
       11    1    1    2    0    0  0.52170194562E-02 -0.38968156554E-01  0.28136281384E+01  0.28139028585E+01  0.51109989000E-03 0.  1.
     -623    1    1    2    0    0 -0.94493237318E-03  0.11347819135E-02  0.15609654891E-02  0.17130000001E+03  0.17130000000E+03 0. -1.
      622    1    1    2    0    0 -0.42720870830E-02  0.37833374640E-01  0.11848108636E+01  0.11860971282E+01  0.40000000000E-01 0.  0.
</event>
<event>
 5   0  0.7212170E+07  0.9118800E+02  0.7818608E-02  0.1180000E+00
       11   -1    0    0    0    0  0.00000000000E+00  0.00000000000E+00  0.39999999673E+01  0.40000000000E+01  0.51109989000E-03 0. -1.
     -623   -1    0    0    0    0  0.00000000000E+00  0.00000000000E+00  0.12525980253E-10  0.17130000000E+03  0.17130000000E+03 0. -1.
       11    1    1    2    0    0  0.66957700278E-02  0.87772590696E-02  0.28621229315E+00  0.28642557774E+00  0.51109989000E-03 0. -1.
     -623    1    1    2    0    0  0.46666718437E-03 -0.58151148167E-03  0.44463827757E-03  0.17130000000E+03  0.17130000000E+03 0. -1.
      622    1    1    2    0    0 -0.71624372122E-02 -0.81957475879E-02  0.37133430364E+01  0.37135744206E+01  0.40000000000E-01 0. -1.
</event>
<event>
 5   0  0.7212170E+07  0.9118800E+02  0.7818608E-02  0.1180000E+00
       11   -1    0    0    0    0  0.00000000000E+00  0.00000000000E+00  0.39999999673E+01  0.40000000000E+01  0.51109989000E-03 0. -1.
     -623   -1    0    0    0    0  0.00000000000E+00  0.00000000000E+00  0.12525980253E-10  0.17130000000E+03  0.17130000000E+03 0. -1.
       11    1    1    2    0    0  0.79033525288E-02 -0.25104462796E-02  0.56463200006E+00  0.56469312200E+00  0.51109989000E-03 0. -1.
     -623    1    1    2    0    0  0.22375356479E-02 -0.60007372400E-02  0.31960612967E-03  0.17130000012E+03  0.17130000000E+03 0. -1.
      622    1    1    2    0    0 -0.10140888178E-01  0.85111835227E-02  0.34350483632E+01  0.34353067600E+01  0.40000000000E-01 0.  0.
</event>
<event>
 5   0  0.7212170E+07  0.9118800E+02  0.7818608E-02  0.1180000E+00
       11   -1    0    0    0    0  0.00000000000E+00  0.00000000000E+00  0.39999999673E+01  0.40000000000E+01  0.51109989000E-03 0. -1.
     -623   -1    0    0    0    0  0.00000000000E+00  0.00000000000E+00  0.12525980253E-10  0.17130000000E+03  0.17130000000E+03 0. -1.
       11    1    1    2    0    0 -0.17351714110E-02  0.14718401973E-02  0.14073996595E+00  0.14075928521E+00  0.51109989000E-03 0. -1.
     -623    1    1    2    0    0  0.10467705177E-02  0.14662446706E-03  0.22699104879E-03  0.17130000000E+03  0.17130000000E+03 0. -1.
      622    1    1    2    0    0  0.68840089382E-03 -0.16184646643E-02  0.38590330083E+01  0.38592407093E+01  0.40000000000E-01 0. -1.
</event>
<event>
 5   0  0.7212170E+07  0.9118800E+02  0.7818608E-02  0.1180000E+00
       11   -1    0    0    0    0  0.00000000000E+00  0.00000000000E+00  0.39999999673E+01  0.40000000000E+01  0.51109989000E-03 0.  1.
     -623   -1    0    0    0    0  0.00000000000E+00  0.00000000000E+00  0.12525980253E-10  0.17130000000E+03  0.17130000000E+03 0. -1.
       11    1    1    2    0    0 -0.81980039748E-03 -0.85180272412E-01  0.25162424850E+01  0.25176840262E+01  0.51109989000E-03 0.  1.
     -623    1    1    2    0    0 -0.83253268395E-02  0.41275604356E-01  0.26653213257E-02  0.17130000520E+03  0.17130000000E+03 0. -1.
      622    1    1    2    0    0  0.91451272374E-02  0.43904668054E-01  0.14810921612E+01  0.14823107782E+01  0.40000000000E-01 0.  0.
</event>
<event>
 5   0  0.7212170E+07  0.9118800E+02  0.7818608E-02  0.1180000E+00
       11   -1    0    0    0    0  0.00000000000E+00  0.00000000000E+00  0.39999999673E+01  0.40000000000E+01  0.51109989000E-03 0. -1.
     -623   -1    0    0    0    0  0.00000000000E+00  0.00000000000E+00  0.12525980253E-10  0.17130000000E+03  0.17130000000E+03 0. -1.
       11    1    1    2    0    0 -0.81235611623E-02 -0.35603895391E-01  0.26260963111E+01  0.26263502672E+01  0.51109989000E-03 0. -1.
     -623    1    1    2    0    0  0.10875264243E-04  0.67935638344E-03  0.13046500021E-02  0.17130000001E+03  0.17130000000E+03 0. -1.
      622    1    1    2    0    0  0.81126858981E-02  0.34924539007E-01  0.13725990064E+01  0.13736497266E+01  0.40000000000E-01 0.  0.
</event>
<event>
 5   0  0.7212170E+07  0.9118800E+02  0.7818608E-02  0.1180000E+00
       11   -1    0    0    0    0  0.00000000000E+00  0.00000000000E+00  0.39999999673E+01  0.40000000000E+01  0.51109989000E-03 0.  1.
     -623   -1    0    0    0    0  0.00000000000E+00  0.00000000000E+00  0.12525980253E-10  0.17130000000E+03  0.17130000000E+03 0.  1.
       11    1    1    2    0    0  0.12505680221E-01  0.22609609080E-01  0.11710872856E+01  0.11713723909E+01  0.51109989000E-03 0.  1.
     -623    1    1    2    0    0  0.85870797517E-03  0.17539760265E-02  0.70443472324E-03  0.17130000001E+03  0.17130000000E+03 0.  1.
      622    1    1    2    0    0 -0.13364388196E-01 -0.24363585107E-01  0.28282082474E+01  0.28286275969E+01  0.40000000000E-01 0.  0.
</event>
<event>
 5   0  0.7212170E+07  0.9118800E+02  0.7818608E-02  0.1180000E+00
       11   -1    0    0    0    0  0.00000000000E+00  0.00000000000E+00  0.39999999673E+01  0.40000000000E+01  0.51109989000E-03 0.  1.
     -623   -1    0    0    0    0  0.00000000000E+00  0.00000000000E+00  0.12525980253E-10  0.17130000000E+03  0.17130000000E+03 0. -1.
       11    1    1    2    0    0 -0.10061004502E-01 -0.31213720887E-02  0.22620776257E+00  0.22645348274E+00  0.51109989000E-03 0.  1.
     -623    1    1    2    0    0 -0.41440850773E-03 -0.17976239371E-02  0.47545328683E-03  0.17130000001E+03  0.17130000000E+03 0. -1.
      622    1    1    2    0    0  0.10475413010E-01  0.49189960259E-02  0.37733167518E+01  0.37735465070E+01  0.40000000000E-01 0.  1.
</event>
<event>
 5   0  0.7212170E+07  0.9118800E+02  0.7818608E-02  0.1180000E+00
       11   -1    0    0    0    0  0.00000000000E+00  0.00000000000E+00  0.39999999673E+01  0.40000000000E+01  0.51109989000E-03 0. -1.
     -623   -1    0    0    0    0  0.00000000000E+00  0.00000000000E+00  0.12525980253E-10  0.17130000000E+03  0.17130000000E+03 0. -1.
       11    1    1    2    0    0  0.12588769504E-01  0.15799076834E-01  0.28606522717E+00  0.28677807337E+00  0.51109989000E-03 0. -1.
     -623    1    1    2    0    0 -0.37319487139E-03 -0.22938516997E-02  0.97294029941E-03  0.17130000002E+03  0.17130000000E+03 0. -1.
      622    1    1    2    0    0 -0.12215574633E-01 -0.13505225135E-01  0.37129617998E+01  0.37132219080E+01  0.40000000000E-01 0. -1.
</event>
<event>
 5   0  0.7212170E+07  0.9118800E+02  0.7818608E-02  0.1180000E+00
       11   -1    0    0    0    0  0.00000000000E+00  0.00000000000E+00  0.39999999673E+01  0.40000000000E+01  0.51109989000E-03 0.  1.
     -623   -1    0    0    0    0  0.00000000000E+00  0.00000000000E+00  0.12525980253E-10  0.17130000000E+03  0.17130000000E+03 0.  1.
       11    1    1    2    0    0  0.15996665338E-01 -0.76197217669E-02  0.12703035973E+01  0.12704272683E+01  0.51109989000E-03 0.  1.
     -623    1    1    2    0    0  0.42633077543E-03 -0.11503448259E-02  0.48024794658E-03  0.17130000001E+03  0.17130000000E+03 0.  1.
      622    1    1    2    0    0 -0.16422996113E-01  0.87700665927E-02  0.27292161216E+01  0.27295727261E+01  0.40000000000E-01 0.  1.
</event>
<event>
 5   0  0.7212170E+07  0.9118800E+02  0.7818608E-02  0.1180000E+00
       11   -1    0    0    0    0  0.00000000000E+00  0.00000000000E+00  0.39999999673E+01  0.40000000000E+01  0.51109989000E-03 0.  1.
     -623   -1    0    0    0    0  0.00000000000E+00  0.00000000000E+00  0.12525980253E-10  0.17130000000E+03  0.17130000000E+03 0. -1.
       11    1    1    2    0    0  0.13167141004E-01 -0.13366947006E-01  0.15084976861E+00  0.15201303493E+00  0.51109989000E-03 0.  1.
     -623    1    1    2    0    0 -0.20199516901E-02 -0.14131006722E-03  0.14110166176E-02  0.17130000002E+03  0.17130000000E+03 0. -1.
      622    1    1    2    0    0 -0.11147189314E-01  0.13508257073E-01  0.38477391820E+01  0.38479869472E+01  0.40000000000E-01 0.  1.
</event>
<event>
 5   0  0.7212170E+07  0.9118800E+02  0.7818608E-02  0.1180000E+00
       11   -1    0    0    0    0  0.00000000000E+00  0.00000000000E+00  0.39999999673E+01  0.40000000000E+01  0.51109989000E-03 0. -1.
     -623   -1    0    0    0    0  0.00000000000E+00  0.00000000000E+00  0.12525980253E-10  0.17130000000E+03  0.17130000000E+03 0. -1.
       11    1    1    2    0    0 -0.10175002030E-03  0.43226602892E-02  0.25274808811E+00  0.25278558703E+00  0.51109989000E-03 0. -1.
     -623    1    1    2    0    0 -0.31666468901E-02  0.13161076525E-02  0.25666709110E-03  0.17130000003E+03  0.17130000000E+03 0. -1.
      622    1    1    2    0    0  0.32683969110E-02 -0.56387679420E-02  0.37469952128E+01  0.37472143791E+01  0.40000000000E-01 0. -1.
</event>
<event>
 5   0  0.7212170E+07  0.9118800E+02  0.7818608E-02  0.1180000E+00
       11   -1    0    0    0    0  0.00000000000E+00  0.00000000000E+00  0.39999999673E+01  0.40000000000E+01  0.51109989000E-03 0.  1.
     -623   -1    0    0    0    0  0.00000000000E+00  0.00000000000E+00  0.12525980253E-10  0.17130000000E+03  0.17130000000E+03 0. -1.
       11    1    1    2    0    0 -0.16005447726E-02 -0.97652476394E-04  0.39582973881E-01  0.39618737031E-01  0.51109989000E-03 0.  1.
     -623    1    1    2    0    0  0.15632737939E-03  0.12382064951E-02  0.23816871292E-03  0.17130000000E+03  0.17130000000E+03 0. -1.
      622    1    1    2    0    0  0.14442173932E-02 -0.11405540184E-02  0.39601788236E+01  0.39603812571E+01  0.40000000000E-01 0.  1.
</event>
<event>
 5   0  0.7212170E+07  0.9118800E+02  0.7818608E-02  0.1180000E+00
       11   -1    0    0    0    0  0.00000000000E+00  0.00000000000E+00  0.39999999673E+01  0.40000000000E+01  0.51109989000E-03 0. -1.
     -623   -1    0    0    0    0  0.00000000000E+00  0.00000000000E+00  0.12525980253E-10  0.17130000000E+03  0.17130000000E+03 0.  1.
       11    1    1    2    0    0 -0.93960576498E-03  0.43683975652E-03  0.11776804312E-01  0.11833344027E-01  0.51109989000E-03 0. -1.
     -623    1    1    2    0    0  0.20308788792E-03  0.48102873917E-03  0.25728017186E-03  0.17130000000E+03  0.17130000000E+03 0.  1.
      622    1    1    2    0    0  0.73651787706E-03 -0.91786849567E-03  0.39879658828E+01  0.39881666549E+01  0.40000000000E-01 0. -1.
</event>
<event>
 5   0  0.7212170E+07  0.9118800E+02  0.7818608E-02  0.1180000E+00
       11   -1    0    0    0    0  0.00000000000E+00  0.00000000000E+00  0.39999999673E+01  0.40000000000E+01  0.51109989000E-03 0. -1.
     -623   -1    0    0    0    0  0.00000000000E+00  0.00000000000E+00  0.12525980253E-10  0.17130000000E+03  0.17130000000E+03 0. -1.
       11    1    1    2    0    0 -0.76436987677E-02 -0.10472489461E-01  0.30983433263E-01  0.33590676180E-01  0.51109989000E-03 0. -1.
     -623    1    1    2    0    0 -0.59900637628E-02  0.40379009945E-02  0.28377375883E-02  0.17130000018E+03  0.17130000000E+03 0. -1.
      622    1    1    2    0    0  0.13633762531E-01  0.64345884670E-02  0.39661787966E+01  0.39664091480E+01  0.40000000000E-01 0. -1.
</event>
<event>
 5   0  0.7212170E+07  0.9118800E+02  0.7818608E-02  0.1180000E+00
       11   -1    0    0    0    0  0.00000000000E+00  0.00000000000E+00  0.39999999673E+01  0.40000000000E+01  0.51109989000E-03 0.  1.
     -623   -1    0    0    0    0  0.00000000000E+00  0.00000000000E+00  0.12525980253E-10  0.17130000000E+03  0.17130000000E+03 0.  1.
       11    1    1    2    0    0  0.16897565758E-02  0.34288183230E-02  0.21344577266E+00  0.21348061074E+00  0.51109989000E-03 0.  1.
     -623    1    1    2    0    0 -0.46932044340E-03 -0.12262610352E-02  0.24692969029E-03  0.17130000001E+03  0.17130000000E+03 0.  1.
      622    1    1    2    0    0 -0.12204361323E-02 -0.22025572876E-02  0.37863072659E+01  0.37865193849E+01  0.40000000000E-01 0.  1.
</event>
<event>
 5   0  0.7212170E+07  0.9118800E+02  0.7818608E-02  0.1180000E+00
       11   -1    0    0    0    0  0.00000000000E+00  0.00000000000E+00  0.39999999673E+01  0.40000000000E+01  0.51109989000E-03 0. -1.
     -623   -1    0    0    0    0  0.00000000000E+00  0.00000000000E+00  0.12525980253E-10  0.17130000000E+03  0.17130000000E+03 0. -1.
       11    1    1    2    0    0 -0.38631234848E-02 -0.37153524668E-02  0.73759824341E-01  0.73956071265E-01  0.51109989000E-03 0. -1.
     -623    1    1    2    0    0  0.43442263871E-02  0.36718999129E-02  0.40011166372E-03  0.17130000009E+03  0.17130000000E+03 0. -1.
      622    1    1    2    0    0 -0.48110290310E-03  0.43452553259E-04  0.39258400320E+01  0.39260438345E+01  0.40000000000E-01 0. -1.
</event>
<event>
 5   0  0.7212170E+07  0.9118800E+02  0.7818608E-02  0.1180000E+00
       11   -1    0    0    0    0  0.00000000000E+00  0.00000000000E+00  0.39999999673E+01  0.40000000000E+01  0.51109989000E-03 0.  1.
     -623   -1    0    0    0    0  0.00000000000E+00  0.00000000000E+00  0.12525980253E-10  0.17130000000E+03  0.17130000000E+03 0. -1.
       11    1    1    2    0    0  0.14792761891E-02 -0.38477309496E-03  0.41718573592E-02  0.44723512051E-02  0.51109989000E-03 0.  1.
     -623    1    1    2    0    0  0.51950547434E-03 -0.65894414634E-03  0.50132918203E-03  0.17130000000E+03  0.17130000000E+03 0. -1.
      622    1    1    2    0    0 -0.19987816636E-02  0.10437172414E-02  0.39953267814E+01  0.39955276466E+01  0.40000000000E-01 0.  1.
</event>
<event>
 5   0  0.7212170E+07  0.9118800E+02  0.7818608E-02  0.1180000E+00
       11   -1    0    0    0    0  0.00000000000E+00  0.00000000000E+00  0.39999999673E+01  0.40000000000E+01  0.51109989000E-03 0.  1.
     -623   -1    0    0    0    0  0.00000000000E+00  0.00000000000E+00  0.12525980253E-10  0.17130000000E+03  0.17130000000E+03 0. -1.
       11    1    1    2    0    0  0.43267500178E-03 -0.69525126034E-03  0.90779461652E-02  0.91291243637E-02  0.51109989000E-03 0. -1.
     -623    1    1    2    0    0  0.27304066242E-03 -0.56570252215E-03  0.25187104541E-03  0.17130000000E+03  0.17130000000E+03 0. -1.
      622    1    1    2    0    0 -0.70571566419E-03  0.12609537825E-02  0.39906701501E+01  0.39908708742E+01  0.40000000000E-01 0.  1.
</event>
<event>
 5   0  0.7212170E+07  0.9118800E+02  0.7818608E-02  0.1180000E+00
       11   -1    0    0    0    0  0.00000000000E+00  0.00000000000E+00  0.39999999673E+01  0.40000000000E+01  0.51109989000E-03 0. -1.
     -623   -1    0    0    0    0  0.00000000000E+00  0.00000000000E+00  0.12525980253E-10  0.17130000000E+03  0.17130000000E+03 0.  1.
       11    1    1    2    0    0 -0.98189253339E-02 -0.53458364298E-02  0.72377267343E-01  0.73237417438E-01  0.51109989000E-03 0. -1.
     -623    1    1    2    0    0 -0.56609762200E-03 -0.60933919409E-04  0.10813130317E-02  0.17130000000E+03  0.17130000000E+03 0.  1.
      622    1    1    2    0    0  0.10385022956E-01  0.54067703492E-02  0.39265413868E+01  0.39267625780E+01  0.40000000000E-01 0. -1.
</event>
<event>
 5   0  0.7212170E+07  0.9118800E+02  0.7818608E-02  0.1180000E+00
       11   -1    0    0    0    0  0.00000000000E+00  0.00000000000E+00  0.39999999673E+01  0.40000000000E+01  0.51109989000E-03 0.  1.
     -623   -1    0    0    0    0  0.00000000000E+00  0.00000000000E+00  0.12525980253E-10  0.17130000000E+03  0.17130000000E+03 0.  1.
       11    1    1    2    0    0  0.20062206932E-03  0.54606709930E-03  0.59783449975E-02  0.60282891851E-02  0.51109989000E-03 0.  1.
     -623    1    1    2    0    0  0.14206894610E-03 -0.60314354215E-03  0.25023485370E-03  0.17130000000E+03  0.17130000000E+03 0.  1.
      622    1    1    2    0    0 -0.34269101542E-03  0.57076442848E-04  0.39937713875E+01  0.39939717095E+01  0.40000000000E-01 0.  1.
</event>
<event>
 5   0  0.7212170E+07  0.9118800E+02  0.7818608E-02  0.1180000E+00
       11   -1    0    0    0    0  0.00000000000E+00  0.00000000000E+00  0.39999999673E+01  0.40000000000E+01  0.51109989000E-03 0.  1.
     -623   -1    0    0    0    0  0.00000000000E+00  0.00000000000E+00  0.12525980253E-10  0.17130000000E+03  0.17130000000E+03 0. -1.
       11    1    1    2    0    0 -0.43151811321E-02  0.19818201121E-02  0.83982808544E-02  0.96613013392E-02  0.51109989000E-03 0.  1.
     -623    1    1    2    0    0 -0.41312973395E-03  0.34534304440E-03  0.14669644020E-02  0.17130000001E+03  0.17130000000E+03 0. -1.
      622    1    1    2    0    0  0.47283108660E-02 -0.23271631565E-02  0.39901347223E+01  0.39903386917E+01  0.40000000000E-01 0.  1.
</event>
<event>
 5   0  0.7212170E+07  0.9118800E+02  0.7818608E-02  0.1180000E+00
       11   -1    0    0    0    0  0.00000000000E+00  0.00000000000E+00  0.39999999673E+01  0.40000000000E+01  0.51109989000E-03 0. -1.
     -623   -1    0    0    0    0  0.00000000000E+00  0.00000000000E+00  0.12525980253E-10  0.17130000000E+03  0.17130000000E+03 0. -1.
       11    1    1    2    0    0 -0.31746296348E-02 -0.41367126716E-02  0.19971853016E-01  0.20647682704E-01  0.51109989000E-03 0. -1.
     -623    1    1    2    0    0 -0.46020254459E-02  0.25334852083E-02  0.88484484608E-03  0.17130000008E+03  0.17130000000E+03 0. -1.
      622    1    1    2    0    0  0.77766550810E-02  0.16032274631E-02  0.39791432698E+01  0.39793522347E+01  0.40000000000E-01 0. -1.
</event>
<event>
 5   0  0.7212170E+07  0.9118800E+02  0.7818608E-02  0.1180000E+00
       11   -1    0    0    0    0  0.00000000000E+00  0.00000000000E+00  0.39999999673E+01  0.40000000000E+01  0.51109989000E-03 0.  1.
     -623   -1    0    0    0    0  0.00000000000E+00  0.00000000000E+00  0.12525980253E-10  0.17130000000E+03  0.17130000000E+03 0.  1.
       11    1    1    2    0    0 -0.89044461314E-02 -0.19398811493E-01  0.85957565356E-01  0.88569562002E-01  0.51109989000E-03 0.  1.
     -623    1    1    2    0    0 -0.98349966491E-02 -0.74758743327E-02  0.29541938749E-02  0.17130000047E+03  0.17130000000E+03 0.  1.
      622    1    1    2    0    0  0.18739442781E-01  0.26874685825E-01  0.39110882082E+01  0.39114299672E+01  0.40000000000E-01 0.  1.
</event>
<event>
 5   0  0.7212170E+07  0.9118800E+02  0.7818608E-02  0.1180000E+00
       11   -1    0    0    0    0  0.00000000000E+00  0.00000000000E+00  0.39999999673E+01  0.40000000000E+01  0.51109989000E-03 0.  1.
     -623   -1    0    0    0    0  0.00000000000E+00  0.00000000000E+00  0.12525980253E-10  0.17130000000E+03  0.17130000000E+03 0. -1.
       11    1    1    2    0    0  0.10445539319E-02 -0.45904753092E-03  0.69845360280E-02  0.70955467849E-02  0.51109989000E-03 0.  1.
     -623    1    1    2    0    0 -0.11437857400E-02  0.27020516871E-03  0.31134856524E-03  0.17130000000E+03  0.17130000000E+03 0. -1.
      622    1    1    2    0    0  0.99231808211E-04  0.18884236218E-03  0.39927040831E+01  0.39929044493E+01  0.40000000000E-01 0.  1.
</event>
<event>
 5   0  0.7212170E+07  0.9118800E+02  0.7818608E-02  0.1180000E+00
       11   -1    0    0    0    0  0.00000000000E+00  0.00000000000E+00  0.39999999673E+01  0.40000000000E+01  0.51109989000E-03 0.  1.
     -623   -1    0    0    0    0  0.00000000000E+00  0.00000000000E+00  0.12525980253E-10  0.17130000000E+03  0.17130000000E+03 0. -1.
       11    1    1    2    0    0 -0.32016750779E-03  0.13520550724E-02  0.57322250175E-01  0.57341365072E-01  0.51109989000E-03 0.  1.
     -623    1    1    2    0    0  0.31992885079E-03 -0.16905306635E-04  0.22222276970E-03  0.17130000000E+03  0.17130000000E+03 0. -1.
      622    1    1    2    0    0  0.23865701743E-06 -0.13351497658E-02  0.39424554942E+01  0.39426586343E+01  0.40000000000E-01 0.  1.
</event>
<event>
 5   0  0.7212170E+07  0.9118800E+02  0.7818608E-02  0.1180000E+00
       11   -1    0    0    0    0  0.00000000000E+00  0.00000000000E+00  0.39999999673E+01  0.40000000000E+01  0.51109989000E-03 0.  1.
     -623   -1    0    0    0    0  0.00000000000E+00  0.00000000000E+00  0.12525980253E-10  0.17130000000E+03  0.17130000000E+03 0. -1.
       11    1    1    2    0    0  0.15186084703E-02  0.36820976300E-02  0.29475643188E-01  0.29747920584E-01  0.51109989000E-03 0.  1.
     -623    1    1    2    0    0  0.35999506575E-02 -0.71877019624E-03  0.47819402357E-03  0.17130000004E+03  0.17130000000E+03 0. -1.
      622    1    1    2    0    0 -0.51185591275E-02 -0.29633274338E-02  0.39700461299E+01  0.39702520391E+01  0.40000000000E-01 0.  1.
</event>
<event>
 5   0  0.7212170E+07  0.9118800E+02  0.7818608E-02  0.1180000E+00
       11   -1    0    0    0    0  0.00000000000E+00  0.00000000000E+00  0.39999999673E+01  0.40000000000E+01  0.51109989000E-03 0.  1.
     -623   -1    0    0    0    0  0.00000000000E+00  0.00000000000E+00  0.12525980253E-10  0.17130000000E+03  0.17130000000E+03 0. -1.
       11    1    1    2    0    0 -0.93007444160E-02 -0.10821937978E-01  0.23519645328E+01  0.23520078748E+01  0.51109989000E-03 0.  1.
     -623    1    1    2    0    0  0.40662617723E-01  0.26498846382E-01  0.90883287857E-03  0.17130000688E+03  0.17130000000E+03 0. -1.
      622    1    1    2    0    0 -0.31361873312E-01 -0.15676908408E-01  0.16471266022E+01  0.16479852476E+01  0.40000000000E-01 0.  0.
</event>
<event>
 5   0  0.7212170E+07  0.9118800E+02  0.7818608E-02  0.1180000E+00
       11   -1    0    0    0    0  0.00000000000E+00  0.00000000000E+00  0.39999999673E+01  0.40000000000E+01  0.51109989000E-03 0. -1.
     -623   -1    0    0    0    0  0.00000000000E+00  0.00000000000E+00  0.12525980253E-10  0.17130000000E+03  0.17130000000E+03 0.  1.
       11    1    1    2    0    0 -0.15529660241E-02 -0.16904083828E-02  0.85250359669E-02  0.88434521149E-02  0.51109989000E-03 0. -1.
     -623    1    1    2    0    0  0.17809422886E-02  0.51065384875E-03  0.51902338283E-03  0.17130000001E+03  0.17130000000E+03 0.  1.
      622    1    1    2    0    0 -0.22797626448E-03  0.11797545341E-02  0.39909559080E+01  0.39911565370E+01  0.40000000000E-01 0. -1.
</event>
<event>
 5   0  0.7212170E+07  0.9118800E+02  0.7818608E-02  0.1180000E+00
       11   -1    0    0    0    0  0.00000000000E+00  0.00000000000E+00  0.39999999673E+01  0.40000000000E+01  0.51109989000E-03 0. -1.
     -623   -1    0    0    0    0  0.00000000000E+00  0.00000000000E+00  0.12525980253E-10  0.17130000000E+03  0.17130000000E+03 0.  1.
       11    1    1    2    0    0 -0.15544125641E-02  0.19792840187E-02  0.29726600322E+00  0.29727709575E+00  0.51109989000E-03 0. -1.
     -623    1    1    2    0    0 -0.39262838553E-03  0.17206642990E-03  0.22826106686E-03  0.17130000000E+03  0.17130000000E+03 0.  1.
      622    1    1    2    0    0  0.19470409497E-02 -0.21513504486E-02  0.37025057044E+01  0.37027229049E+01  0.40000000000E-01 0. -1.
</event>
<event>
 5   0  0.7212170E+07  0.9118800E+02  0.7818608E-02  0.1180000E+00
       11   -1    0    0    0    0  0.00000000000E+00  0.00000000000E+00  0.39999999673E+01  0.40000000000E+01  0.51109989000E-03 0.  1.
     -623   -1    0    0    0    0  0.00000000000E+00  0.00000000000E+00  0.12525980253E-10  0.17130000000E+03  0.17130000000E+03 0.  1.
       11    1    1    2    0    0  0.75566532059E-03 -0.18401256728E-02  0.50767018417E-02  0.54764237652E-02  0.51109989000E-03 0.  1.
     -623    1    1    2    0    0  0.60302185081E-03  0.10017679220E-02  0.60029260558E-03  0.17130000001E+03  0.17130000000E+03 0.  1.
      622    1    1    2    0    0 -0.13586871714E-02  0.83835775079E-03  0.39943229728E+01  0.39945235711E+01  0.40000000000E-01 0.  1.
</event>
<event>
 5   0  0.7212170E+07  0.9118800E+02  0.7818608E-02  0.1180000E+00
       11   -1    0    0    0    0  0.00000000000E+00  0.00000000000E+00  0.39999999673E+01  0.40000000000E+01  0.51109989000E-03 0. -1.
     -623   -1    0    0    0    0  0.00000000000E+00  0.00000000000E+00  0.12525980253E-10  0.17130000000E+03  0.17130000000E+03 0.  1.
       11    1    1    2    0    0  0.38053943536E-01 -0.14149481802E-01  0.80254107785E+00  0.80356751633E+00  0.51109989000E-03 0. -1.
     -623    1    1    2    0    0  0.10711713959E-02 -0.14973863001E-02  0.15544924464E-02  0.17130000002E+03  0.17130000000E+03 0.  1.
      622    1    1    2    0    0 -0.39125114932E-01  0.15646868102E-01  0.31959043969E+01  0.31964324666E+01  0.40000000000E-01 0. -1.
</event>
<event>
 5   0  0.7212170E+07  0.9118800E+02  0.7818608E-02  0.1180000E+00
       11   -1    0    0    0    0  0.00000000000E+00  0.00000000000E+00  0.39999999673E+01  0.40000000000E+01  0.51109989000E-03 0.  1.
     -623   -1    0    0    0    0  0.00000000000E+00  0.00000000000E+00  0.12525980253E-10  0.17130000000E+03  0.17130000000E+03 0. -1.
       11    1    1    2    0    0 -0.28933860798E-01 -0.10856885307E-01  0.26201327937E+00  0.26382998323E+00  0.51109989000E-03 0.  1.
     -623    1    1    2    0    0 -0.66755690866E-02  0.32052945217E-02  0.22085209287E-02  0.17130000017E+03  0.17130000000E+03 0. -1.
      622    1    1    2    0    0  0.35609429885E-01  0.76515907851E-02  0.37357781671E+01  0.37361698425E+01  0.40000000000E-01 0.  1.
</event>
<event>
 5   0  0.7212170E+07  0.9118800E+02  0.7818608E-02  0.1180000E+00
       11   -1    0    0    0    0  0.00000000000E+00  0.00000000000E+00  0.39999999673E+01  0.40000000000E+01  0.51109989000E-03 0.  1.
     -623   -1    0    0    0    0  0.00000000000E+00  0.00000000000E+00  0.12525980253E-10  0.17130000000E+03  0.17130000000E+03 0. -1.
       11    1    1    2    0    0  0.41296239561E-01  0.79958714502E-02  0.71249582835E+00  0.71373656204E+00  0.51109989000E-03 0.  1.
     -623    1    1    2    0    0  0.20154334257E-02 -0.19529987627E-01  0.17909759276E-02  0.17130000113E+03  0.17130000000E+03 0. -1.
      622    1    1    2    0    0 -0.43311672987E-01  0.11534116177E-01  0.32857131632E+01  0.32862623036E+01  0.40000000000E-01 0.  1.
</event>
<event>
 5   0  0.7212170E+07  0.9118800E+02  0.7818608E-02  0.1180000E+00
       11   -1    0    0    0    0  0.00000000000E+00  0.00000000000E+00  0.39999999673E+01  0.40000000000E+01  0.51109989000E-03 0. -1.
     -623   -1    0    0    0    0  0.00000000000E+00  0.00000000000E+00  0.12525980253E-10  0.17130000000E+03  0.17130000000E+03 0. -1.
       11    1    1    2    0    0 -0.12869247941E-02  0.24033119315E-02  0.62027607790E+00  0.62028227939E+00  0.51109989000E-03 0. -1.
     -623    1    1    2    0    0  0.15240006379E-03 -0.64366046727E-03  0.24353329513E-03  0.17130000000E+03  0.17130000000E+03 0. -1.
      622    1    1    2    0    0  0.11345247303E-02 -0.17596514640E-02  0.33794803576E+01  0.33797177206E+01  0.40000000000E-01 0. -1.
</event>
<event>
 5   0  0.7212170E+07  0.9118800E+02  0.7818608E-02  0.1180000E+00
       11   -1    0    0    0    0  0.00000000000E+00  0.00000000000E+00  0.39999999673E+01  0.40000000000E+01  0.51109989000E-03 0. -1.
     -623   -1    0    0    0    0  0.00000000000E+00  0.00000000000E+00  0.12525980253E-10  0.17130000000E+03  0.17130000000E+03 0.  1.
       11    1    1    2    0    0  0.83992337190E-04  0.75803288366E-04  0.98440642610E-04  0.53264857919E-03  0.51109989000E-03 0.  1.
     -623    1    1    2    0    0  0.68332603616E-03 -0.83743137163E-03  0.63435765285E-03  0.17130000000E+03  0.17130000000E+03 0.  1.
      622    1    1    2    0    0 -0.76731837348E-03  0.76162808342E-03  0.39992671698E+01  0.39994673475E+01  0.40000000000E-01 0. -1.
</event>
<event>
 5   0  0.7212170E+07  0.9118800E+02  0.7818608E-02  0.1180000E+00
       11   -1    0    0    0    0  0.00000000000E+00  0.00000000000E+00  0.39999999673E+01  0.40000000000E+01  0.51109989000E-03 0. -1.
     -623   -1    0    0    0    0  0.00000000000E+00  0.00000000000E+00  0.12525980253E-10  0.17130000000E+03  0.17130000000E+03 0. -1.
       11    1    1    2    0    0  0.36216320220E-04  0.24103758230E-02  0.26065282675E-01  0.26181508881E-01  0.51109989000E-03 0. -1.
     -623    1    1    2    0    0  0.18143453491E-02 -0.28102106253E-02  0.31800035219E-03  0.17130000003E+03  0.17130000000E+03 0. -1.
      622    1    1    2    0    0 -0.18505616698E-02  0.39983480302E-03  0.39736166853E+01  0.39738184592E+01  0.40000000000E-01 0. -1.
</event>
<event>
 5   0  0.7212170E+07  0.9118800E+02  0.7818608E-02  0.1180000E+00
       11   -1    0    0    0    0  0.00000000000E+00  0.00000000000E+00  0.39999999673E+01  0.40000000000E+01  0.51109989000E-03 0.  1.
     -623   -1    0    0    0    0  0.00000000000E+00  0.00000000000E+00  0.12525980253E-10  0.17130000000E+03  0.17130000000E+03 0.  1.
       11    1    1    2    0    0 -0.65194129802E-03  0.90814266771E-04  0.13255280825E-01  0.13281452012E-01  0.51109989000E-03 0.  1.
     -623    1    1    2    0    0  0.38918819943E-02  0.21551020746E-02  0.22881704515E-03  0.17130000006E+03  0.17130000000E+03 0.  1.
      622    1    1    2    0    0 -0.32399406958E-02 -0.22459163411E-02  0.39865158691E+01  0.39867184896E+01  0.40000000000E-01 0.  1.
</event>
<event>
 5   0  0.7212170E+07  0.9118800E+02  0.7818608E-02  0.1180000E+00
       11   -1    0    0    0    0  0.00000000000E+00  0.00000000000E+00  0.39999999673E+01  0.40000000000E+01  0.51109989000E-03 0. -1.
     -623   -1    0    0    0    0  0.00000000000E+00  0.00000000000E+00  0.12525980253E-10  0.17130000000E+03  0.17130000000E+03 0.  1.
       11    1    1    2    0    0 -0.44558513739E-01  0.25449310747E-02  0.85889913183E+00  0.86005808972E+00  0.51109989000E-03 0. -1.
     -623    1    1    2    0    0  0.87994031145E-03 -0.26555054958E-03  0.17183935623E-02  0.17130000001E+03  0.17130000000E+03 0.  1.
      622    1    1    2    0    0  0.43678573428E-01 -0.22793805251E-02  0.31393824420E+01  0.31399418992E+01  0.40000000000E-01 0.  0.
</event>
<event>
 5   0  0.7212170E+07  0.9118800E+02  0.7818608E-02  0.1180000E+00
       11   -1    0    0    0    0  0.00000000000E+00  0.00000000000E+00  0.39999999673E+01  0.40000000000E+01  0.51109989000E-03 0. -1.
     -623   -1    0    0    0    0  0.00000000000E+00  0.00000000000E+00  0.12525980253E-10  0.17130000000E+03  0.17130000000E+03 0. -1.
       11    1    1    2    0    0 -0.67362170117E-02 -0.62397922243E-02  0.92280525781E+00  0.92285108045E+00  0.51109989000E-03 0. -1.
     -623    1    1    2    0    0  0.29040055075E-02 -0.46484841313E-03  0.31549874814E-03  0.17130000003E+03  0.17130000000E+03 0. -1.
      622    1    1    2    0    0  0.38322115040E-02  0.67046406374E-02  0.30768792112E+01  0.30771488944E+01  0.40000000000E-01 0. -1.
</event>
<event>
 5   0  0.7212170E+07  0.9118800E+02  0.7818608E-02  0.1180000E+00
       11   -1    0    0    0    0  0.00000000000E+00  0.00000000000E+00  0.39999999673E+01  0.40000000000E+01  0.51109989000E-03 0. -1.
     -623   -1    0    0    0    0  0.00000000000E+00  0.00000000000E+00  0.12525980253E-10  0.17130000000E+03  0.17130000000E+03 0. -1.
       11    1    1    2    0    0  0.62021419967E-03  0.99846559838E-03  0.27764203348E-01  0.27793772861E-01  0.51109989000E-03 0. -1.
     -623    1    1    2    0    0 -0.22570034676E-02  0.22360761374E-03  0.23148180719E-03  0.17130000002E+03  0.17130000000E+03 0. -1.
      622    1    1    2    0    0  0.16367892674E-02 -0.12220732121E-02  0.39720042813E+01  0.39722062110E+01  0.40000000000E-01 0. -1.
</event>
<event>
 5   0  0.7212170E+07  0.9118800E+02  0.7818608E-02  0.1180000E+00
       11   -1    0    0    0    0  0.00000000000E+00  0.00000000000E+00  0.39999999673E+01  0.40000000000E+01  0.51109989000E-03 0. -1.
     -623   -1    0    0    0    0  0.00000000000E+00  0.00000000000E+00  0.12525980253E-10  0.17130000000E+03  0.17130000000E+03 0. -1.
       11    1    1    2    0    0  0.53408738627E-01  0.66892617502E-01  0.86955268937E+00  0.87375583343E+00  0.51109989000E-03 0. -1.
     -623    1    1    2    0    0  0.86771891706E-02  0.24506191012E-01  0.64144517850E-02  0.17130000209E+03  0.17130000000E+03 0. -1.
      622    1    1    2    0    0 -0.62085927798E-01 -0.91398808513E-01  0.31240328262E+01  0.31262420737E+01  0.40000000000E-01 0. -1.
</event>
<event>
 5   0  0.7212170E+07  0.9118800E+02  0.7818608E-02  0.1180000E+00
       11   -1    0    0    0    0  0.00000000000E+00  0.00000000000E+00  0.39999999673E+01  0.40000000000E+01  0.51109989000E-03 0.  1.
     -623   -1    0    0    0    0  0.00000000000E+00  0.00000000000E+00  0.12525980253E-10  0.17130000000E+03  0.17130000000E+03 0. -1.
       11    1    1    2    0    0  0.11092878253E-03 -0.88736843818E-02  0.16823684513E+00  0.16847151647E+00  0.51109989000E-03 0.  1.
     -623    1    1    2    0    0  0.12503651995E-02 -0.22222231671E-02  0.45976727949E-03  0.17130000002E+03  0.17130000000E+03 0. -1.
      622    1    1    2    0    0 -0.13612939822E-02  0.11095907549E-01  0.38313033555E+01  0.38315284645E+01  0.40000000000E-01 0.  1.
</event>
<event>
 5   0  0.7212170E+07  0.9118800E+02  0.7818608E-02  0.1180000E+00
       11   -1    0    0    0    0  0.00000000000E+00  0.00000000000E+00  0.39999999673E+01  0.40000000000E+01  0.51109989000E-03 0. -1.
     -623   -1    0    0    0    0  0.00000000000E+00  0.00000000000E+00  0.12525980253E-10  0.17130000000E+03  0.17130000000E+03 0.  1.
       11    1    1    2    0    0  0.21792525917E-01  0.20971048891E-01  0.42671768617E+00  0.42778843368E+00  0.51109989000E-03 0. -1.
     -623    1    1    2    0    0 -0.31110133091E-02 -0.23083391439E-01  0.13457388662E-02  0.17130000159E+03  0.17130000000E+03 0.  1.
      622    1    1    2    0    0 -0.18681512608E-01  0.21123425480E-02  0.35719365422E+01  0.35722099774E+01  0.40000000000E-01 0.  0.
</event>
<event>
 5   0  0.7212170E+07  0.9118800E+02  0.7818608E-02  0.1180000E+00
       11   -1    0    0    0    0  0.00000000000E+00  0.00000000000E+00  0.39999999673E+01  0.40000000000E+01  0.51109989000E-03 0.  1.
     -623   -1    0    0    0    0  0.00000000000E+00  0.00000000000E+00  0.12525980253E-10  0.17130000000E+03  0.17130000000E+03 0. -1.
       11    1    1    2    0    0 -0.10188935744E-02  0.98826747569E-03  0.27146064712E-01  0.27187954487E-01  0.51109989000E-03 0.  1.
     -623    1    1    2    0    0  0.48256132832E-03 -0.14254607148E-02  0.24329798402E-03  0.17130000001E+03  0.17130000000E+03 0. -1.
      622    1    1    2    0    0  0.53633224609E-03  0.43719323914E-03  0.39726106047E+01  0.39728120388E+01  0.40000000000E-01 0.  1.
</event>
<event>
 5   0  0.7212170E+07  0.9118800E+02  0.7818608E-02  0.1180000E+00
       11   -1    0    0    0    0  0.00000000000E+00  0.00000000000E+00  0.39999999673E+01  0.40000000000E+01  0.51109989000E-03 0. -1.
     -623   -1    0    0    0    0  0.00000000000E+00  0.00000000000E+00  0.12525980253E-10  0.17130000000E+03  0.17130000000E+03 0. -1.
       11    1    1    2    0    0  0.62985096892E-02 -0.31791900718E-02  0.33944898345E-01  0.34674137633E-01  0.51109989000E-03 0. -1.
     -623    1    1    2    0    0  0.93285491863E-03 -0.28920865653E-02  0.94223235918E-03  0.17130000003E+03  0.17130000000E+03 0. -1.
      622    1    1    2    0    0 -0.72313646078E-02  0.60712766368E-02  0.39651128363E+01  0.39653258325E+01  0.40000000000E-01 0. -1.
</event>
<event>
 5   0  0.7212170E+07  0.9118800E+02  0.7818608E-02  0.1180000E+00
       11   -1    0    0    0    0  0.00000000000E+00  0.00000000000E+00  0.39999999673E+01  0.40000000000E+01  0.51109989000E-03 0. -1.
     -623   -1    0    0    0    0  0.00000000000E+00  0.00000000000E+00  0.12525980253E-10  0.17130000000E+03  0.17130000000E+03 0.  1.
       11    1    1    2    0    0 -0.30199132102E-02  0.75499672824E-03  0.14616587032E-01  0.14953117917E-01  0.51109989000E-03 0. -1.
     -623    1    1    2    0    0  0.12556242871E-02  0.15337147137E-02  0.53831391057E-03  0.17130000001E+03  0.17130000000E+03 0.  1.
      622    1    1    2    0    0  0.17642889228E-02 -0.22887114424E-02  0.39848450676E+01  0.39850468709E+01  0.40000000000E-01 0. -1.
</event>
<event>
 5   0  0.7212170E+07  0.9118800E+02  0.7818608E-02  0.1180000E+00
       11   -1    0    0    0    0  0.00000000000E+00  0.00000000000E+00  0.39999999673E+01  0.40000000000E+01  0.51109989000E-03 0.  1.
     -623   -1    0    0    0    0  0.00000000000E+00  0.00000000000E+00  0.12525980253E-10  0.17130000000E+03  0.17130000000E+03 0.  1.
       11    1    1    2    0    0  0.33642260178E-01 -0.83849801598E-03  0.42958029291E+00  0.43089673244E+00  0.51109989000E-03 0.  1.
     -623    1    1    2    0    0  0.15516015880E-02  0.21040718524E-03  0.17141640738E-02  0.17130000002E+03  0.17130000000E+03 0.  1.
      622    1    1    2    0    0 -0.35193861766E-01  0.62809083074E-03  0.35687055102E+01  0.35691032517E+01  0.40000000000E-01 0.  1.
</event>
<event>
 5   0  0.7212170E+07  0.9118800E+02  0.7818608E-02  0.1180000E+00
       11   -1    0    0    0    0  0.00000000000E+00  0.00000000000E+00  0.39999999673E+01  0.40000000000E+01  0.51109989000E-03 0. -1.
     -623   -1    0    0    0    0  0.00000000000E+00  0.00000000000E+00  0.12525980253E-10  0.17130000000E+03  0.17130000000E+03 0. -1.
       11    1    1    2    0    0 -0.37706524429E-02  0.10234897260E-01  0.75526435198E+00  0.75534328192E+00  0.51109989000E-03 0. -1.
     -623    1    1    2    0    0  0.86724710802E-03  0.96073364115E-03  0.34608693364E-03  0.17130000001E+03  0.17130000000E+03 0. -1.
      622    1    1    2    0    0  0.29034053349E-02 -0.11195630901E-01  0.32443895285E+01  0.32446567129E+01  0.40000000000E-01 0. -1.
</event>
<event>
 5   0  0.7212170E+07  0.9118800E+02  0.7818608E-02  0.1180000E+00
       11   -1    0    0    0    0  0.00000000000E+00  0.00000000000E+00  0.39999999673E+01  0.40000000000E+01  0.51109989000E-03 0. -1.
     -623   -1    0    0    0    0  0.00000000000E+00  0.00000000000E+00  0.12525980253E-10  0.17130000000E+03  0.17130000000E+03 0.  1.
       11    1    1    2    0    0  0.26398741202E-01  0.53919945037E-01  0.20190247942E+01  0.20199172347E+01  0.51109989000E-03 0. -1.
     -623    1    1    2    0    0  0.11045382656E-01 -0.18520690825E-01  0.19685617395E-02  0.17130000137E+03  0.17130000000E+03 0.  1.
      622    1    1    2    0    0 -0.37444123858E-01 -0.35399254212E-01  0.19790066114E+01  0.19800813967E+01  0.40000000000E-01 0. -1.
</event>
<event>
 5   0  0.7212170E+07  0.9118800E+02  0.7818608E-02  0.1180000E+00
       11   -1    0    0    0    0  0.00000000000E+00  0.00000000000E+00  0.39999999673E+01  0.40000000000E+01  0.51109989000E-03 0. -1.
     -623   -1    0    0    0    0  0.00000000000E+00  0.00000000000E+00  0.12525980253E-10  0.17130000000E+03  0.17130000000E+03 0. -1.
       11    1    1    2    0    0 -0.32352069628E-03 -0.17441619172E-02  0.88480993361E-01  0.88500249580E-01  0.51109989000E-03 0. -1.
     -623    1    1    2    0    0 -0.18209197645E-03  0.37620395200E-03  0.22402661236E-03  0.17130000000E+03  0.17130000000E+03 0. -1.
      622    1    1    2    0    0  0.50561267282E-03  0.13679579650E-02  0.39112949495E+01  0.39114997519E+01  0.40000000000E-01 0. -1.
</event>
<event>
 5   0  0.7212170E+07  0.9118800E+02  0.7818608E-02  0.1180000E+00
       11   -1    0    0    0    0  0.00000000000E+00  0.00000000000E+00  0.39999999673E+01  0.40000000000E+01  0.51109989000E-03 0. -1.
     -623   -1    0    0    0    0  0.00000000000E+00  0.00000000000E+00  0.12525980253E-10  0.17130000000E+03  0.17130000000E+03 0. -1.
       11    1    1    2    0    0 -0.10318050063E-02  0.14763519651E-03  0.33662167588E-01  0.33682178783E-01  0.51109989000E-03 0. -1.
     -623    1    1    2    0    0 -0.11206004108E-03  0.28055427798E-03  0.22187056849E-03  0.17130000000E+03  0.17130000000E+03 0. -1.
      622    1    1    2    0    0  0.11438650474E-02 -0.42818947454E-03  0.39661159299E+01  0.39663178215E+01  0.40000000000E-01 0. -1.
</event>
<event>
 5   0  0.7212170E+07  0.9118800E+02  0.7818608E-02  0.1180000E+00
       11   -1    0    0    0    0  0.00000000000E+00  0.00000000000E+00  0.39999999673E+01  0.40000000000E+01  0.51109989000E-03 0. -1.
     -623   -1    0    0    0    0  0.00000000000E+00  0.00000000000E+00  0.12525980253E-10  0.17130000000E+03  0.17130000000E+03 0.  1.
       11    1    1    2    0    0  0.11429201210E-01 -0.13100038450E-01  0.11796390801E+01  0.11797672899E+01  0.51109989000E-03 0. -1.
     -623    1    1    2    0    0  0.70604012599E-03 -0.26428193577E-02  0.48193404264E-03  0.17130000002E+03  0.17130000000E+03 0.  1.
      622    1    1    2    0    0 -0.12135241336E-01  0.15742857809E-01  0.28198789543E+01  0.28202326887E+01  0.40000000000E-01 0.  0.
</event>
<event>
 5   0  0.7212170E+07  0.9118800E+02  0.7818608E-02  0.1180000E+00
       11   -1    0    0    0    0  0.00000000000E+00  0.00000000000E+00  0.39999999673E+01  0.40000000000E+01  0.51109989000E-03 0.  1.
     -623   -1    0    0    0    0  0.00000000000E+00  0.00000000000E+00  0.12525980253E-10  0.17130000000E+03  0.17130000000E+03 0. -1.
       11    1    1    2    0    0  0.13647627360E-02 -0.80899366453E-03  0.20886159975E-01  0.20952564274E-01  0.51109989000E-03 0.  1.
     -623    1    1    2    0    0 -0.12612891087E-02  0.87409169353E-03  0.26743884456E-03  0.17130000001E+03  0.17130000000E+03 0. -1.
      622    1    1    2    0    0 -0.10347362774E-03 -0.65098028691E-04  0.39788463671E+01  0.39790474272E+01  0.40000000000E-01 0.  1.
</event>
<event>
 5   0  0.7212170E+07  0.9118800E+02  0.7818608E-02  0.1180000E+00
       11   -1    0    0    0    0  0.00000000000E+00  0.00000000000E+00  0.39999999673E+01  0.40000000000E+01  0.51109989000E-03 0.  1.
     -623   -1    0    0    0    0  0.00000000000E+00  0.00000000000E+00  0.12525980253E-10  0.17130000000E+03  0.17130000000E+03 0. -1.
       11    1    1    2    0    0 -0.23508066857E-02  0.27711437457E-02  0.46515873555E-01  0.46660403400E-01  0.51109989000E-03 0.  1.
     -623    1    1    2    0    0  0.35207576351E-04  0.89506108847E-03  0.34924388398E-03  0.17130000000E+03  0.17130000000E+03 0. -1.
      622    1    1    2    0    0  0.23155991093E-02 -0.36662048342E-02  0.39531348502E+01  0.39533395941E+01  0.40000000000E-01 0.  1.
</event>
<event>
 5   0  0.7212170E+07  0.9118800E+02  0.7818608E-02  0.1180000E+00
       11   -1    0    0    0    0  0.00000000000E+00  0.00000000000E+00  0.39999999673E+01  0.40000000000E+01  0.51109989000E-03 0.  1.
     -623   -1    0    0    0    0  0.00000000000E+00  0.00000000000E+00  0.12525980253E-10  0.17130000000E+03  0.17130000000E+03 0. -1.
       11    1    1    2    0    0 -0.42451686433E-01 -0.17577921558E-01  0.14431698362E+01  0.14439011622E+01  0.51109989000E-03 0.  1.
     -623    1    1    2    0    0  0.36402487167E-01  0.59661841795E-01  0.14122198135E-02  0.17130001426E+03  0.17130000000E+03 0. -1.
      622    1    1    2    0    0  0.60491992651E-02 -0.42083920238E-01  0.25554179114E+01  0.25560845743E+01  0.40000000000E-01 0.  1.
</event>
<event>
 5   0  0.7212170E+07  0.9118800E+02  0.7818608E-02  0.1180000E+00
       11   -1    0    0    0    0  0.00000000000E+00  0.00000000000E+00  0.39999999673E+01  0.40000000000E+01  0.51109989000E-03 0. -1.
     -623   -1    0    0    0    0  0.00000000000E+00  0.00000000000E+00  0.12525980253E-10  0.17130000000E+03  0.17130000000E+03 0.  1.
       11    1    1    2    0    0 -0.10001305239E-01 -0.25174204947E-02  0.26817135486E+00  0.26837008087E+00  0.51109989000E-03 0. -1.
     -623    1    1    2    0    0  0.65626427406E-02  0.66268719484E-02  0.41718480404E-03  0.17130000025E+03  0.17130000000E+03 0.  1.
      622    1    1    2    0    0  0.34386624989E-02 -0.41094514532E-02  0.37314114274E+01  0.37316296644E+01  0.40000000000E-01 0. -1.
</event>
<event>
 5   0  0.7212170E+07  0.9118800E+02  0.7818608E-02  0.1180000E+00
       11   -1    0    0    0    0  0.00000000000E+00  0.00000000000E+00  0.39999999673E+01  0.40000000000E+01  0.51109989000E-03 0.  1.
     -623   -1    0    0    0    0  0.00000000000E+00  0.00000000000E+00  0.12525980253E-10  0.17130000000E+03  0.17130000000E+03 0. -1.
       11    1    1    2    0    0 -0.59446905220E-02 -0.65664586595E-02  0.32248118874E-01  0.33446376766E-01  0.51109989000E-03 0.  1.
     -623    1    1    2    0    0 -0.45505393478E-02  0.17336065848E-01  0.14293671763E-02  0.17130000094E+03  0.17130000000E+03 0. -1.
      622    1    1    2    0    0  0.10495229870E-01 -0.10769607189E-01  0.39663224814E+01  0.39665526797E+01  0.40000000000E-01 0.  1.
</event>
<event>
 5   0  0.7212170E+07  0.9118800E+02  0.7818608E-02  0.1180000E+00
       11   -1    0    0    0    0  0.00000000000E+00  0.00000000000E+00  0.39999999673E+01  0.40000000000E+01  0.51109989000E-03 0. -1.
     -623   -1    0    0    0    0  0.00000000000E+00  0.00000000000E+00  0.12525980253E-10  0.17130000000E+03  0.17130000000E+03 0. -1.
       11    1    1    2    0    0 -0.58550340625E-01 -0.16042237790E-01  0.23027450194E+01  0.23035451767E+01  0.51109989000E-03 0. -1.
     -623    1    1    2    0    0 -0.17109257014E-01  0.20182338517E-01  0.29673596125E-02  0.17130000207E+03  0.17130000000E+03 0. -1.
      622    1    1    2    0    0  0.75659597639E-01 -0.41401007272E-02  0.16942875884E+01  0.16964527542E+01  0.40000000000E-01 0. -1.
</event>
<event>
 5   0  0.7212170E+07  0.9118800E+02  0.7818608E-02  0.1180000E+00
       11   -1    0    0    0    0  0.00000000000E+00  0.00000000000E+00  0.39999999673E+01  0.40000000000E+01  0.51109989000E-03 0. -1.
     -623   -1    0    0    0    0  0.00000000000E+00  0.00000000000E+00  0.12525980253E-10  0.17130000000E+03  0.17130000000E+03 0. -1.
       11    1    1    2    0    0 -0.53224624638E-02 -0.12658308051E-01  0.48498378762E-01  0.50407492846E-01  0.51109989000E-03 0. -1.
     -623    1    1    2    0    0  0.92105103309E-03  0.12043904515E-02  0.21307209488E-02  0.17130000002E+03  0.17130000000E+03 0. -1.
      622    1    1    2    0    0  0.44014114307E-02  0.11453917599E-01  0.39493708677E+01  0.39495924872E+01  0.40000000000E-01 0. -1.
</event>
<event>
 5   0  0.7212170E+07  0.9118800E+02  0.7818608E-02  0.1180000E+00
       11   -1    0    0    0    0  0.00000000000E+00  0.00000000000E+00  0.39999999673E+01  0.40000000000E+01  0.51109989000E-03 0.  1.
     -623   -1    0    0    0    0  0.00000000000E+00  0.00000000000E+00  0.12525980253E-10  0.17130000000E+03  0.17130000000E+03 0. -1.
       11    1    1    2    0    0  0.41545016819E-02 -0.63375145642E-02  0.69353430608E+00  0.69357589268E+00  0.51109989000E-03 0.  1.
     -623    1    1    2    0    0  0.49033990752E-02  0.74193175380E-02  0.29633208327E-03  0.17130000023E+03  0.17130000000E+03 0. -1.
      622    1    1    2    0    0 -0.90579007588E-02 -0.10818029763E-02  0.33061693306E+01  0.33064238776E+01  0.40000000000E-01 0.  1.
</event>
<event>
 5   0  0.7212170E+07  0.9118800E+02  0.7818608E-02  0.1180000E+00
       11   -1    0    0    0    0  0.00000000000E+00  0.00000000000E+00  0.39999999673E+01  0.40000000000E+01  0.51109989000E-03 0. -1.
     -623   -1    0    0    0    0  0.00000000000E+00  0.00000000000E+00  0.12525980253E-10  0.17130000000E+03  0.17130000000E+03 0. -1.
       11    1    1    2    0    0 -0.60357517317E-02  0.57681686068E-03  0.15992325544E+00  0.16003896985E+00  0.51109989000E-03 0. -1.
     -623    1    1    2    0    0  0.19509179417E-03 -0.10551457092E-02  0.32849846338E-03  0.17130000000E+03  0.17130000000E+03 0. -1.
      622    1    1    2    0    0  0.58406599375E-02  0.47832884836E-03  0.38397482128E+01  0.38399610258E+01  0.40000000000E-01 0. -1.
</event>
<event>
 5   0  0.7212170E+07  0.9118800E+02  0.7818608E-02  0.1180000E+00
       11   -1    0    0    0    0  0.00000000000E+00  0.00000000000E+00  0.39999999673E+01  0.40000000000E+01  0.51109989000E-03 0.  1.
     -623   -1    0    0    0    0  0.00000000000E+00  0.00000000000E+00  0.12525980253E-10  0.17130000000E+03  0.17130000000E+03 0. -1.
       11    1    1    2    0    0 -0.23022696278E-03 -0.19120745200E-02  0.17931485175E-01  0.18041851820E-01  0.51109989000E-03 0.  1.
     -623    1    1    2    0    0  0.17754672099E-03  0.17902551363E-03  0.31162322341E-03  0.17130000000E+03  0.17130000000E+03 0. -1.
      622    1    1    2    0    0  0.52680241766E-04  0.17330490064E-02  0.39817568597E+01  0.39819581484E+01  0.40000000000E-01 0.  1.
</event>
<event>
 5   0  0.7212170E+07  0.9118800E+02  0.7818608E-02  0.1180000E+00
       11   -1    0    0    0    0  0.00000000000E+00  0.00000000000E+00  0.39999999673E+01  0.40000000000E+01  0.51109989000E-03 0.  1.
     -623   -1    0    0    0    0  0.00000000000E+00  0.00000000000E+00  0.12525980253E-10  0.17130000000E+03  0.17130000000E+03 0.  1.
       11    1    1    2    0    0 -0.56563720085E-02 -0.80989072541E-03  0.11456374434E-01  0.12812501925E-01  0.51109989000E-03 0.  1.
     -623    1    1    2    0    0  0.16535085960E-02  0.36700050880E-02  0.15598322530E-02  0.17130000005E+03  0.17130000000E+03 0.  1.
      622    1    1    2    0    0  0.40028634124E-02 -0.28601143629E-02  0.39869837609E+01  0.39871874439E+01  0.40000000000E-01 0.  1.
</event>
<event>
 5   0  0.7212170E+07  0.9118800E+02  0.7818608E-02  0.1180000E+00
       11   -1    0    0    0    0  0.00000000000E+00  0.00000000000E+00  0.39999999673E+01  0.40000000000E+01  0.51109989000E-03 0.  1.
     -623   -1    0    0    0    0  0.00000000000E+00  0.00000000000E+00  0.12525980253E-10  0.17130000000E+03  0.17130000000E+03 0. -1.
       11    1    1    2    0    0  0.19628118405E-02 -0.19363673406E-02  0.14962654951E-01  0.15223153913E-01  0.51109989000E-03 0.  1.
     -623    1    1    2    0    0 -0.31289456927E-02  0.30784130778E-02  0.46162661445E-03  0.17130000006E+03  0.17130000000E+03 0. -1.
      622    1    1    2    0    0  0.11661338516E-02 -0.11420457366E-02  0.39845756851E+01  0.39847767885E+01  0.40000000000E-01 0.  1.
</event>
<event>
 5   0  0.7212170E+07  0.9118800E+02  0.7818608E-02  0.1180000E+00
       11   -1    0    0    0    0  0.00000000000E+00  0.00000000000E+00  0.39999999673E+01  0.40000000000E+01  0.51109989000E-03 0.  1.
     -623   -1    0    0    0    0  0.00000000000E+00  0.00000000000E+00  0.12525980253E-10  0.17130000000E+03  0.17130000000E+03 0. -1.
       11    1    1    2    0    0  0.90351218930E-02 -0.21847854723E-01  0.70222610282E+00  0.70262416901E+00  0.51109989000E-03 0.  1.
     -623    1    1    2    0    0 -0.18510869313E-01  0.69253857560E-02  0.68918671187E-03  0.17130000114E+03  0.17130000000E+03 0. -1.
      622    1    1    2    0    0  0.94757474229E-02  0.14922468966E-01  0.32970846784E+01  0.32973746900E+01  0.40000000000E-01 0.  1.
</event>
<event>
 5   0  0.7212170E+07  0.9118800E+02  0.7818608E-02  0.1180000E+00
       11   -1    0    0    0    0  0.00000000000E+00  0.00000000000E+00  0.39999999673E+01  0.40000000000E+01  0.51109989000E-03 0. -1.
     -623   -1    0    0    0    0  0.00000000000E+00  0.00000000000E+00  0.12525980253E-10  0.17130000000E+03  0.17130000000E+03 0. -1.
       11    1    1    2    0    0 -0.63562515509E-03 -0.94062055108E-03  0.30436514464E-02  0.32884378637E-02  0.51109989000E-03 0. -1.
     -623    1    1    2    0    0 -0.50610651099E-03 -0.75490564589E-04  0.44521694885E-03  0.17130000000E+03  0.17130000000E+03 0. -1.
      622    1    1    2    0    0  0.11417316662E-02  0.10161111157E-02  0.39965110996E+01  0.39967115614E+01  0.40000000000E-01 0. -1.
</event>
<event>
 5   0  0.7212170E+07  0.9118800E+02  0.7818608E-02  0.1180000E+00
       11   -1    0    0    0    0  0.00000000000E+00  0.00000000000E+00  0.39999999673E+01  0.40000000000E+01  0.51109989000E-03 0.  1.
     -623   -1    0    0    0    0  0.00000000000E+00  0.00000000000E+00  0.12525980253E-10  0.17130000000E+03  0.17130000000E+03 0.  1.
       11    1    1    2    0    0 -0.63412782511E-03  0.37622339902E-01  0.63371090900E+00  0.63482723633E+00  0.51109989000E-03 0.  1.
     -623    1    1    2    0    0  0.35694135974E-01 -0.37450453198E-01  0.15445112783E-02  0.17130000782E+03  0.17130000000E+03 0.  1.
      622    1    1    2    0    0 -0.35060008153E-01 -0.17188670023E-03  0.33647445475E+01  0.33651649445E+01  0.40000000000E-01 0.  1.
</event>
<event>
 5   0  0.7212170E+07  0.9118800E+02  0.7818608E-02  0.1180000E+00
       11   -1    0    0    0    0  0.00000000000E+00  0.00000000000E+00  0.39999999673E+01  0.40000000000E+01  0.51109989000E-03 0.  1.
     -623   -1    0    0    0    0  0.00000000000E+00  0.00000000000E+00  0.12525980253E-10  0.17130000000E+03  0.17130000000E+03 0.  1.
       11    1    1    2    0    0  0.48628148602E-02 -0.21543712716E-02  0.14055882455E+00  0.14066034504E+00  0.51109989000E-03 0.  1.
     -623    1    1    2    0    0 -0.55300717907E-02 -0.16677443000E-02  0.31083084380E-03  0.17130000010E+03  0.17130000000E+03 0.  1.
      622    1    1    2    0    0  0.66725693242E-03  0.38221155722E-02  0.38591303133E+01  0.38593395587E+01  0.40000000000E-01 0.  1.
</event>
<event>
 5   0  0.7212170E+07  0.9118800E+02  0.7818608E-02  0.1180000E+00
       11   -1    0    0    0    0  0.00000000000E+00  0.00000000000E+00  0.39999999673E+01  0.40000000000E+01  0.51109989000E-03 0.  1.
     -623   -1    0    0    0    0  0.00000000000E+00  0.00000000000E+00  0.12525980253E-10  0.17130000000E+03  0.17130000000E+03 0. -1.
       11    1    1    2    0    0 -0.35080352520E-02  0.13060800737E-03  0.17331402167E-01  0.17690734692E-01  0.51109989000E-03 0.  1.
     -623    1    1    2    0    0  0.55740491578E-03 -0.26690524044E-02  0.56211829110E-03  0.17130000002E+03  0.17130000000E+03 0. -1.
      622    1    1    2    0    0  0.29506303361E-02  0.25384443975E-02  0.39821064477E+01  0.39823092434E+01  0.40000000000E-01 0.  1.
</event>
<event>
 5   0  0.7212170E+07  0.9118800E+02  0.7818608E-02  0.1180000E+00
       11   -1    0    0    0    0  0.00000000000E+00  0.00000000000E+00  0.39999999673E+01  0.40000000000E+01  0.51109989000E-03 0. -1.
     -623   -1    0    0    0    0  0.00000000000E+00  0.00000000000E+00  0.12525980253E-10  0.17130000000E+03  0.17130000000E+03 0. -1.
       11    1    1    2    0    0 -0.31339719121E-03  0.66649014937E-02  0.77757707405E-01  0.78045124215E-01  0.51109989000E-03 0. -1.
     -623    1    1    2    0    0  0.11453771053E-01  0.65739516596E-03  0.51441317816E-03  0.17130000038E+03  0.17130000000E+03 0. -1.
      622    1    1    2    0    0 -0.11140373863E-01 -0.73222966597E-02  0.39217278471E+01  0.39219544912E+01  0.40000000000E-01 0. -1.
</event>
<event>
 5   0  0.7212170E+07  0.9118800E+02  0.7818608E-02  0.1180000E+00
       11   -1    0    0    0    0  0.00000000000E+00  0.00000000000E+00  0.39999999673E+01  0.40000000000E+01  0.51109989000E-03 0.  1.
     -623   -1    0    0    0    0  0.00000000000E+00  0.00000000000E+00  0.12525980253E-10  0.17130000000E+03  0.17130000000E+03 0.  1.
       11    1    1    2    0    0 -0.24348609512E-02  0.82556670967E-03  0.19043702017E-01  0.19223265015E-01  0.51109989000E-03 0.  1.
     -623    1    1    2    0    0  0.62111800783E-03 -0.12858251142E-02  0.38094743536E-03  0.17130000001E+03  0.17130000000E+03 0.  1.
      622    1    1    2    0    0  0.18137429433E-02  0.46025840472E-03  0.39805753184E+01  0.39807767291E+01  0.40000000000E-01 0.  1.
</event>
<event>
 5   0  0.7212170E+07  0.9118800E+02  0.7818608E-02  0.1180000E+00
       11   -1    0    0    0    0  0.00000000000E+00  0.00000000000E+00  0.39999999673E+01  0.40000000000E+01  0.51109989000E-03 0. -1.
     -623   -1    0    0    0    0  0.00000000000E+00  0.00000000000E+00  0.12525980253E-10  0.17130000000E+03  0.17130000000E+03 0.  1.
       11    1    1    2    0    0  0.32121063523E-03  0.25780098843E-03  0.99088412986E-03  0.11885756510E-02  0.51109989000E-03 0.  1.
     -623    1    1    2    0    0  0.80294226353E-03  0.80999455742E-04  0.39789806838E-03  0.17130000000E+03  0.17130000000E+03 0.  1.
      622    1    1    2    0    0 -0.11241528989E-02 -0.33880044418E-03  0.39986111856E+01  0.39988114224E+01  0.40000000000E-01 0. -1.
</event>
<event>
 5   0  0.7212170E+07  0.9118800E+02  0.7818608E-02  0.1180000E+00
       11   -1    0    0    0    0  0.00000000000E+00  0.00000000000E+00  0.39999999673E+01  0.40000000000E+01  0.51109989000E-03 0.  1.
     -623   -1    0    0    0    0  0.00000000000E+00  0.00000000000E+00  0.12525980253E-10  0.17130000000E+03  0.17130000000E+03 0. -1.
       11    1    1    2    0    0 -0.60058732904E-03  0.11490586146E-03  0.34662719678E-02  0.35567081620E-02  0.51109989000E-03 0.  1.
     -623    1    1    2    0    0  0.18948261605E-02  0.16074729497E-02  0.29118558251E-03  0.17130000002E+03  0.17130000000E+03 0. -1.
      622    1    1    2    0    0 -0.12942388317E-02 -0.17223788113E-02  0.39962425102E+01  0.39964432740E+01  0.40000000000E-01 0.  1.
</event>
<event>
 5   0  0.7212170E+07  0.9118800E+02  0.7818608E-02  0.1180000E+00
       11   -1    0    0    0    0  0.00000000000E+00  0.00000000000E+00  0.39999999673E+01  0.40000000000E+01  0.51109989000E-03 0.  1.
     -623   -1    0    0    0    0  0.00000000000E+00  0.00000000000E+00  0.12525980253E-10  0.17130000000E+03  0.17130000000E+03 0. -1.
       11    1    1    2    0    0  0.63931050094E-03 -0.22618894836E-02  0.91186269273E-01  0.91217990489E-01  0.51109989000E-03 0.  1.
     -623    1    1    2    0    0 -0.15795119119E-02  0.41683912388E-02  0.23699748938E-03  0.17130000006E+03  0.17130000000E+03 0. -1.
      622    1    1    2    0    0  0.94020141086E-03 -0.19065017549E-02  0.39085767004E+01  0.39087819512E+01  0.40000000000E-01 0.  1.
</event>
<event>
 5   0  0.7212170E+07  0.9118800E+02  0.7818608E-02  0.1180000E+00
       11   -1    0    0    0    0  0.00000000000E+00  0.00000000000E+00  0.39999999673E+01  0.40000000000E+01  0.51109989000E-03 0.  1.
     -623   -1    0    0    0    0  0.00000000000E+00  0.00000000000E+00  0.12525980253E-10  0.17130000000E+03  0.17130000000E+03 0. -1.
       11    1    1    2    0    0 -0.37960156794E-03 -0.68597324656E-03  0.14565040693E-02  0.17312665441E-02  0.51109989000E-03 0.  1.
     -623    1    1    2    0    0 -0.24986133117E-04  0.38625976973E-03  0.47485424311E-03  0.17130000000E+03  0.17130000000E+03 0. -1.
      622    1    1    2    0    0  0.40458770105E-03  0.29971347687E-03  0.39980686086E+01  0.39982687319E+01  0.40000000000E-01 0.  1.
</event>
<event>
 5   0  0.7212170E+07  0.9118800E+02  0.7818608E-02  0.1180000E+00
       11   -1    0    0    0    0  0.00000000000E+00  0.00000000000E+00  0.39999999673E+01  0.40000000000E+01  0.51109989000E-03 0. -1.
     -623   -1    0    0    0    0  0.00000000000E+00  0.00000000000E+00  0.12525980253E-10  0.17130000000E+03  0.17130000000E+03 0. -1.
       11    1    1    2    0    0 -0.26249735129E-01  0.31434408158E-01  0.11402167436E+01  0.11409520824E+01  0.51109989000E-03 0. -1.
     -623    1    1    2    0    0  0.58291427386E-02  0.14630272217E-01  0.14599626711E-02  0.17130000073E+03  0.17130000000E+03 0. -1.
      622    1    1    2    0    0  0.20420592390E-01 -0.46064680376E-01  0.28583232613E+01  0.28590471877E+01  0.40000000000E-01 0. -1.
</event>
<event>
 5   0  0.7212170E+07  0.9118800E+02  0.7818608E-02  0.1180000E+00
       11   -1    0    0    0    0  0.00000000000E+00  0.00000000000E+00  0.39999999673E+01  0.40000000000E+01  0.51109989000E-03 0. -1.
     -623   -1    0    0    0    0  0.00000000000E+00  0.00000000000E+00  0.12525980253E-10  0.17130000000E+03  0.17130000000E+03 0.  1.
       11    1    1    2    0    0 -0.14966452536E-01 -0.11136606778E-01  0.87806761879E+00  0.87826591822E+00  0.51109989000E-03 0. -1.
     -623    1    1    2    0    0 -0.15307106932E-02  0.24552700792E-01  0.52873870770E-03  0.17130000177E+03  0.17130000000E+03 0.  1.
      622    1    1    2    0    0  0.16497163229E-01 -0.13416094015E-01  0.31214036100E+01  0.31217323147E+01  0.40000000000E-01 0. -1.
</event>
<event>
 5   0  0.7212170E+07  0.9118800E+02  0.7818608E-02  0.1180000E+00
       11   -1    0    0    0    0  0.00000000000E+00  0.00000000000E+00  0.39999999673E+01  0.40000000000E+01  0.51109989000E-03 0.  1.
     -623   -1    0    0    0    0  0.00000000000E+00  0.00000000000E+00  0.12525980253E-10  0.17130000000E+03  0.17130000000E+03 0.  1.
       11    1    1    2    0    0  0.13432397558E-02  0.34528187507E-01  0.10926519551E+01  0.10931983152E+01  0.51109989000E-03 0.  1.
     -623    1    1    2    0    0  0.20410418374E-01 -0.20315989755E-01  0.94013671678E-03  0.17130000242E+03  0.17130000000E+03 0.  1.
      622    1    1    2    0    0 -0.21753658132E-01 -0.14212197750E-01  0.29064078759E+01  0.29067992619E+01  0.40000000000E-01 0.  1.
</event>
<event>
 5   0  0.7212170E+07  0.9118800E+02  0.7818608E-02  0.1180000E+00
       11   -1    0    0    0    0  0.00000000000E+00  0.00000000000E+00  0.39999999673E+01  0.40000000000E+01  0.51109989000E-03 0.  1.
     -623   -1    0    0    0    0  0.00000000000E+00  0.00000000000E+00  0.12525980253E-10  0.17130000000E+03  0.17130000000E+03 0. -1.
       11    1    1    2    0    0 -0.23548976292E-03  0.16888590161E-02  0.18964022587E-01  0.19047390267E-01  0.51109989000E-03 0.  1.
     -623    1    1    2    0    0 -0.66085366411E-04 -0.11980146752E-02  0.28434316168E-03  0.17130000000E+03  0.17130000000E+03 0. -1.
      622    1    1    2    0    0  0.30157512935E-03 -0.49084434074E-03  0.39807516023E+01  0.39809526060E+01  0.40000000000E-01 0.  1.
</event>
<event>
 5   0  0.7212170E+07  0.9118800E+02  0.7818608E-02  0.1180000E+00
       11   -1    0    0    0    0  0.00000000000E+00  0.00000000000E+00  0.39999999673E+01  0.40000000000E+01  0.51109989000E-03 0. -1.
     -623   -1    0    0    0    0  0.00000000000E+00  0.00000000000E+00  0.12525980253E-10  0.17130000000E+03  0.17130000000E+03 0.  1.
       11    1    1    2    0    0  0.17732313525E-01 -0.69417784091E-01  0.22917616742E+01  0.22928813960E+01  0.51109989000E-03 0. -1.
     -623    1    1    2    0    0 -0.20571777406E-01 -0.63042985783E-02  0.32728062946E-02  0.17130000138E+03  0.17130000000E+03 0.  1.
      622    1    1    2    0    0  0.28394638808E-02  0.75722082669E-01  0.17049654869E+01  0.17071172214E+01  0.40000000000E-01 0. -1.
</event>
<event>
 5   0  0.7212170E+07  0.9118800E+02  0.7818608E-02  0.1180000E+00
       11   -1    0    0    0    0  0.00000000000E+00  0.00000000000E+00  0.39999999673E+01  0.40000000000E+01  0.51109989000E-03 0.  1.
     -623   -1    0    0    0    0  0.00000000000E+00  0.00000000000E+00  0.12525980253E-10  0.17130000000E+03  0.17130000000E+03 0.  1.
       11    1    1    2    0    0 -0.73663448858E-02  0.52357883871E-02  0.13865603504E-01  0.16558765070E-01  0.51109989000E-03 0.  1.
     -623    1    1    2    0    0  0.20439792065E-02 -0.15174702889E-01  0.29106300430E-02  0.17130000071E+03  0.17130000000E+03 0.  1.
      622    1    1    2    0    0  0.53223656793E-02  0.99389145014E-02  0.39832237338E+01  0.39834405258E+01  0.40000000000E-01 0.  1.
</event>
<event>
 5   0  0.7212170E+07  0.9118800E+02  0.7818608E-02  0.1180000E+00
       11   -1    0    0    0    0  0.00000000000E+00  0.00000000000E+00  0.39999999673E+01  0.40000000000E+01  0.51109989000E-03 0.  1.
     -623   -1    0    0    0    0  0.00000000000E+00  0.00000000000E+00  0.12525980253E-10  0.17130000000E+03  0.17130000000E+03 0. -1.
       11    1    1    2    0    0 -0.56261922669E-02  0.35556901318E-02  0.17622322481E+00  0.17634960492E+00  0.51109989000E-03 0.  1.
     -623    1    1    2    0    0  0.10952878393E-02  0.75113132905E-03  0.34069313199E-03  0.17130000001E+03  0.17130000000E+03 0. -1.
      622    1    1    2    0    0  0.45309044273E-02 -0.43068214610E-02  0.38234360505E+01  0.38236503906E+01  0.40000000000E-01 0.  1.
</event>
<event>
 5   0  0.7212170E+07  0.9118800E+02  0.7818608E-02  0.1180000E+00
       11   -1    0    0    0    0  0.00000000000E+00  0.00000000000E+00  0.39999999673E+01  0.40000000000E+01  0.51109989000E-03 0. -1.
     -623   -1    0    0    0    0  0.00000000000E+00  0.00000000000E+00  0.12525980253E-10  0.17130000000E+03  0.17130000000E+03 0. -1.
       11    1    1    2    0    0 -0.68309220385E-02 -0.27646028308E-01  0.37124483838E+00  0.37233581029E+00  0.51109989000E-03 0. -1.
     -623    1    1    2    0    0  0.45770752333E-03  0.19591100234E-01  0.13271415795E-02  0.17130000113E+03  0.17130000000E+03 0. -1.
      622    1    1    2    0    0  0.63732145151E-02  0.80549280717E-02  0.36274279878E+01  0.36276630641E+01  0.40000000000E-01 0.  0.
</event>
<event>
 5   0  0.7212170E+07  0.9118800E+02  0.7818608E-02  0.1180000E+00
       11   -1    0    0    0    0  0.00000000000E+00  0.00000000000E+00  0.39999999673E+01  0.40000000000E+01  0.51109989000E-03 0. -1.
     -623   -1    0    0    0    0  0.00000000000E+00  0.00000000000E+00  0.12525980253E-10  0.17130000000E+03  0.17130000000E+03 0.  1.
       11    1    1    2    0    0 -0.20910406247E-01  0.23096566941E-01  0.11282146716E+01  0.11286448967E+01  0.51109989000E-03 0. -1.
     -623    1    1    2    0    0 -0.37721325852E-02 -0.20609581802E-01  0.81728014020E-03  0.17130000128E+03  0.17130000000E+03 0.  1.
      622    1    1    2    0    0  0.24682538832E-01 -0.24869851398E-02  0.28709680155E+01  0.28713538198E+01  0.40000000000E-01 0. -1.
</event>
<event>
 5   0  0.7212170E+07  0.9118800E+02  0.7818608E-02  0.1180000E+00
       11   -1    0    0    0    0  0.00000000000E+00  0.00000000000E+00  0.39999999673E+01  0.40000000000E+01  0.51109989000E-03 0.  1.
     -623   -1    0    0    0    0  0.00000000000E+00  0.00000000000E+00  0.12525980253E-10  0.17130000000E+03  0.17130000000E+03 0.  1.
       11    1    1    2    0    0 -0.22081868447E-02 -0.13683512092E-01  0.61991640373E+00  0.62007154702E+00  0.51109989000E-03 0.  1.
     -623    1    1    2    0    0 -0.68338873617E-02  0.25362350130E-02  0.42244534842E-03  0.17130000016E+03  0.17130000000E+03 0.  1.
      622    1    1    2    0    0  0.90420742075E-02  0.11147277079E-01  0.33796611189E+01  0.33799282980E+01  0.40000000000E-01 0.  1.
</event>
<event>
 5   0  0.7212170E+07  0.9118800E+02  0.7818608E-02  0.1180000E+00
       11   -1    0    0    0    0  0.00000000000E+00  0.00000000000E+00  0.39999999673E+01  0.40000000000E+01  0.51109989000E-03 0. -1.
     -623   -1    0    0    0    0  0.00000000000E+00  0.00000000000E+00  0.12525980253E-10  0.17130000000E+03  0.17130000000E+03 0.  1.
       11    1    1    2    0    0 -0.10186507627E-01 -0.64188604221E-02  0.47423672332E+00  0.47438981615E+00  0.51109989000E-03 0. -1.
     -623    1    1    2    0    0  0.16343673250E-02 -0.10455475032E-02  0.39826560484E-03  0.17130000001E+03  0.17130000000E+03 0.  1.
      622    1    1    2    0    0  0.85521403015E-02  0.74644079255E-02  0.35253649789E+01  0.35256101729E+01  0.40000000000E-01 0. -1.
</event>
<event>
 5   0  0.7212170E+07  0.9118800E+02  0.7818608E-02  0.1180000E+00
       11   -1    0    0    0    0  0.00000000000E+00  0.00000000000E+00  0.39999999673E+01  0.40000000000E+01  0.51109989000E-03 0.  1.
     -623   -1    0    0    0    0  0.00000000000E+00  0.00000000000E+00  0.12525980253E-10  0.17130000000E+03  0.17130000000E+03 0.  1.
       11    1    1    2    0    0  0.20413908858E-02  0.11991231045E-02  0.17933872355E+00  0.17935507843E+00  0.51109989000E-03 0.  1.
     -623    1    1    2    0    0 -0.89011507624E-03  0.48215629813E-04  0.22609627459E-03  0.17130000000E+03  0.17130000000E+03 0.  1.
      622    1    1    2    0    0 -0.11512758096E-02 -0.12473387343E-02  0.38204351474E+01  0.38206449190E+01  0.40000000000E-01 0.  1.
</event>
<event>
 5   0  0.7212170E+07  0.9118800E+02  0.7818608E-02  0.1180000E+00
       11   -1    0    0    0    0  0.00000000000E+00  0.00000000000E+00  0.39999999673E+01  0.40000000000E+01  0.51109989000E-03 0. -1.
     -623   -1    0    0    0    0  0.00000000000E+00  0.00000000000E+00  0.12525980253E-10  0.17130000000E+03  0.17130000000E+03 0.  1.
       11    1    1    2    0    0 -0.39803781787E-02  0.31972322053E-02  0.14924954590E-01  0.15782306448E-01  0.51109989000E-03 0. -1.
     -623    1    1    2    0    0 -0.15626855631E-02  0.20005414150E-02  0.10653854069E-02  0.17130000002E+03  0.17130000000E+03 0.  1.
      622    1    1    2    0    0  0.55430637418E-02 -0.51977736203E-02  0.39840096273E+01  0.39842176714E+01  0.40000000000E-01 0. -1.
</event>
<event>
 5   0  0.7212170E+07  0.9118800E+02  0.7818608E-02  0.1180000E+00
       11   -1    0    0    0    0  0.00000000000E+00  0.00000000000E+00  0.39999999673E+01  0.40000000000E+01  0.51109989000E-03 0. -1.
     -623   -1    0    0    0    0  0.00000000000E+00  0.00000000000E+00  0.12525980253E-10  0.17130000000E+03  0.17130000000E+03 0. -1.
       11    1    1    2    0    0 -0.20000219327E-02  0.15971577938E-01  0.36965229354E+00  0.37000293341E+00  0.51109989000E-03 0. -1.
     -623    1    1    2    0    0 -0.68605322699E-03 -0.11521427831E-02  0.60225203016E-03  0.17130000001E+03  0.17130000000E+03 0. -1.
      622    1    1    2    0    0  0.26860751596E-02 -0.14819435155E-01  0.36297454213E+01  0.36299970598E+01  0.40000000000E-01 0. -1.
</event>
<event>
 5   0  0.7212170E+07  0.9118800E+02  0.7818608E-02  0.1180000E+00
       11   -1    0    0    0    0  0.00000000000E+00  0.00000000000E+00  0.39999999673E+01  0.40000000000E+01  0.51109989000E-03 0.  1.
     -623   -1    0    0    0    0  0.00000000000E+00  0.00000000000E+00  0.12525980253E-10  0.17130000000E+03  0.17130000000E+03 0.  1.
       11    1    1    2    0    0  0.22018166455E-02 -0.97545714092E-03  0.89552082552E-02  0.92874372766E-02  0.51109989000E-03 0.  1.
     -623    1    1    2    0    0  0.19961356468E-04  0.81686922933E-03  0.53329130359E-03  0.17130000000E+03  0.17130000000E+03 0.  1.
      622    1    1    2    0    0 -0.22217780019E-02  0.15858791146E-03  0.39905114684E+01  0.39907125606E+01  0.40000000000E-01 0.  1.
</event>
<event>
 5   0  0.7212170E+07  0.9118800E+02  0.7818608E-02  0.1180000E+00
       11   -1    0    0    0    0  0.00000000000E+00  0.00000000000E+00  0.39999999673E+01  0.40000000000E+01  0.51109989000E-03 0.  1.
     -623   -1    0    0    0    0  0.00000000000E+00  0.00000000000E+00  0.12525980253E-10  0.17130000000E+03  0.17130000000E+03 0. -1.
       11    1    1    2    0    0  0.88987769781E-04  0.13773058427E-02  0.34679824281E-02  0.37673618656E-02  0.51109989000E-03 0.  1.
     -623    1    1    2    0    0  0.43463644958E-03 -0.81247248543E-03  0.49961779038E-03  0.17130000000E+03  0.17130000000E+03 0. -1.
      622    1    1    2    0    0 -0.52362421939E-03 -0.56483335719E-03  0.39960323674E+01  0.39962326352E+01  0.40000000000E-01 0.  1.
</event>
<event>
 5   0  0.7212170E+07  0.9118800E+02  0.7818608E-02  0.1180000E+00
       11   -1    0    0    0    0  0.00000000000E+00  0.00000000000E+00  0.39999999673E+01  0.40000000000E+01  0.51109989000E-03 0. -1.
     -623   -1    0    0    0    0  0.00000000000E+00  0.00000000000E+00  0.12525980253E-10  0.17130000000E+03  0.17130000000E+03 0. -1.
       11    1    1    2    0    0  0.71440733638E-02  0.46910643114E-02  0.41063098258E-01  0.41946193275E-01  0.51109989000E-03 0. -1.
     -623    1    1    2    0    0 -0.75487759635E-02  0.36652107030E-03  0.10886094005E-02  0.17130000017E+03  0.17130000000E+03 0. -1.
      622    1    1    2    0    0  0.40470260023E-03 -0.50575853818E-02  0.39578482600E+01  0.39580536368E+01  0.40000000000E-01 0. -1.
</event>
<event>
 5   0  0.7212170E+07  0.9118800E+02  0.7818608E-02  0.1180000E+00
       11   -1    0    0    0    0  0.00000000000E+00  0.00000000000E+00  0.39999999673E+01  0.40000000000E+01  0.51109989000E-03 0. -1.
     -623   -1    0    0    0    0  0.00000000000E+00  0.00000000000E+00  0.12525980253E-10  0.17130000000E+03  0.17130000000E+03 0.  1.
       11    1    1    2    0    0  0.18394010150E-02  0.11079612686E-01  0.13463412574E+01  0.13463881996E+01  0.51109989000E-03 0. -1.
     -623    1    1    2    0    0 -0.24414379481E-02 -0.13609263844E-01  0.35023511373E-03  0.17130000056E+03  0.17130000000E+03 0.  1.
      622    1    1    2    0    0  0.60203693369E-03  0.25296511618E-02  0.26533084759E+01  0.26536112432E+01  0.40000000000E-01 0. -1.
</event>
<event>
 5   0  0.7212170E+07  0.9118800E+02  0.7818608E-02  0.1180000E+00
       11   -1    0    0    0    0  0.00000000000E+00  0.00000000000E+00  0.39999999673E+01  0.40000000000E+01  0.51109989000E-03 0.  1.
     -623   -1    0    0    0    0  0.00000000000E+00  0.00000000000E+00  0.12525980253E-10  0.17130000000E+03  0.17130000000E+03 0.  1.
       11    1    1    2    0    0  0.53808819968E-03 -0.19649918950E-04  0.40948104140E+00  0.40948171438E+00  0.51109989000E-03 0.  1.
     -623    1    1    2    0    0 -0.43233795894E-03  0.31765353603E-02  0.22487591825E-03  0.17130000003E+03  0.17130000000E+03 0.  1.
      622    1    1    2    0    0 -0.10575024070E-03 -0.31568854416E-02  0.35902940504E+01  0.35905182558E+01  0.40000000000E-01 0.  1.
</event>
<event>
 5   0  0.7212170E+07  0.9118800E+02  0.7818608E-02  0.1180000E+00
       11   -1    0    0    0    0  0.00000000000E+00  0.00000000000E+00  0.39999999673E+01  0.40000000000E+01  0.51109989000E-03 0.  1.
     -623   -1    0    0    0    0  0.00000000000E+00  0.00000000000E+00  0.12525980253E-10  0.17130000000E+03  0.17130000000E+03 0.  1.
       11    1    1    2    0    0 -0.46383251739E-02  0.20801765140E-02  0.18039226906E-01  0.18748763298E-01  0.51109989000E-03 0.  1.
     -623    1    1    2    0    0 -0.42368118805E-02 -0.19246395835E-02  0.92041228430E-03  0.17130000007E+03  0.17130000000E+03 0.  1.
      622    1    1    2    0    0  0.88751370543E-02 -0.15553693048E-03  0.39810403281E+01  0.39812511709E+01  0.40000000000E-01 0.  1.
</event>
<event>
 5   0  0.7212170E+07  0.9118800E+02  0.7818608E-02  0.1180000E+00
       11   -1    0    0    0    0  0.00000000000E+00  0.00000000000E+00  0.39999999673E+01  0.40000000000E+01  0.51109989000E-03 0.  1.
     -623   -1    0    0    0    0  0.00000000000E+00  0.00000000000E+00  0.12525980253E-10  0.17130000000E+03  0.17130000000E+03 0.  1.
       11    1    1    2    0    0 -0.24544655900E-02 -0.37137721512E-02  0.31311231528E-01  0.31630222064E-01  0.51109989000E-03 0.  1.
     -623    1    1    2    0    0  0.11094817551E-02 -0.51930844300E-03  0.52304808893E-03  0.17130000001E+03  0.17130000000E+03 0.  1.
      622    1    1    2    0    0  0.13449838349E-02  0.42330805942E-02  0.39681656875E+01  0.39683697725E+01  0.40000000000E-01 0.  1.
</event>
<event>
 5   0  0.7212170E+07  0.9118800E+02  0.7818608E-02  0.1180000E+00
       11   -1    0    0    0    0  0.00000000000E+00  0.00000000000E+00  0.39999999673E+01  0.40000000000E+01  0.51109989000E-03 0.  1.
     -623   -1    0    0    0    0  0.00000000000E+00  0.00000000000E+00  0.12525980253E-10  0.17130000000E+03  0.17130000000E+03 0.  1.
       11    1    1    2    0    0 -0.51331630457E-02 -0.38628144338E-02  0.47438800809E+00  0.47443178028E+00  0.51109989000E-03 0.  1.
     -623    1    1    2    0    0  0.18411567382E-02  0.13424860633E-02  0.27311397638E-03  0.17130000002E+03  0.17130000000E+03 0.  1.
      622    1    1    2    0    0  0.32920063069E-02  0.25203283700E-02  0.35253388466E+01  0.35255682057E+01  0.40000000000E-01 0.  1.
</event>
<event>
 5   0  0.7212170E+07  0.9118800E+02  0.7818608E-02  0.1180000E+00
       11   -1    0    0    0    0  0.00000000000E+00  0.00000000000E+00  0.39999999673E+01  0.40000000000E+01  0.51109989000E-03 0.  1.
     -623   -1    0    0    0    0  0.00000000000E+00  0.00000000000E+00  0.12525980253E-10  0.17130000000E+03  0.17130000000E+03 0. -1.
       11    1    1    2    0    0  0.16785694750E-01  0.18087598610E-02  0.27055009532E+01  0.27055536771E+01  0.51109989000E-03 0.  1.
     -623    1    1    2    0    0 -0.33543533336E-02  0.15898895312E-02  0.74508756901E-03  0.17130000004E+03  0.17130000000E+03 0. -1.
      622    1    1    2    0    0 -0.13431341416E-01 -0.33986493923E-02  0.12937539269E+01  0.12944462813E+01  0.40000000000E-01 0.  1.
</event>
<event>
 5   0  0.7212170E+07  0.9118800E+02  0.7818608E-02  0.1180000E+00
       11   -1    0    0    0    0  0.00000000000E+00  0.00000000000E+00  0.39999999673E+01  0.40000000000E+01  0.51109989000E-03 0. -1.
     -623   -1    0    0    0    0  0.00000000000E+00  0.00000000000E+00  0.12525980253E-10  0.17130000000E+03  0.17130000000E+03 0. -1.
       11    1    1    2    0    0 -0.75341024497E-02 -0.77410763465E-02  0.11032637836E+00  0.11085512143E+00  0.51109989000E-03 0. -1.
     -623    1    1    2    0    0  0.10923486108E-01  0.73704125044E-03  0.74255230851E-03  0.17130000035E+03  0.17130000000E+03 0. -1.
      622    1    1    2    0    0 -0.33893836587E-02  0.70040350960E-02  0.38889310367E+01  0.38891445271E+01  0.40000000000E-01 0. -1.
</event>
<event>
 5   0  0.7212170E+07  0.9118800E+02  0.7818608E-02  0.1180000E+00
       11   -1    0    0    0    0  0.00000000000E+00  0.00000000000E+00  0.39999999673E+01  0.40000000000E+01  0.51109989000E-03 0.  1.
     -623   -1    0    0    0    0  0.00000000000E+00  0.00000000000E+00  0.12525980253E-10  0.17130000000E+03  0.17130000000E+03 0.  1.
       11    1    1    2    0    0 -0.84346432510E-03 -0.38980222409E-03  0.32174658683E-03  0.11082065716E-02  0.51109989000E-03 0.  1.
     -623    1    1    2    0    0  0.73211933148E-03 -0.29958185989E-03  0.98655341827E-03  0.17130000000E+03  0.17130000000E+03 0.  1.
      622    1    1    2    0    0  0.11134499361E-03  0.68938408398E-03  0.39986916674E+01  0.39988917888E+01  0.40000000000E-01 0.  1.
</event>
<event>
 5   0  0.7212170E+07  0.9118800E+02  0.7818608E-02  0.1180000E+00
       11   -1    0    0    0    0  0.00000000000E+00  0.00000000000E+00  0.39999999673E+01  0.40000000000E+01  0.51109989000E-03 0.  1.
     -623   -1    0    0    0    0  0.00000000000E+00  0.00000000000E+00  0.12525980253E-10  0.17130000000E+03  0.17130000000E+03 0.  1.
       11    1    1    2    0    0  0.11701296662E-01  0.44329561640E-02  0.90996129691E-01  0.91853841976E-01  0.51109989000E-03 0.  1.
     -623    1    1    2    0    0 -0.94956311655E-03  0.71503355042E-03  0.10805743447E-02  0.17130000001E+03  0.17130000000E+03 0.  1.
      622    1    1    2    0    0 -0.10751733545E-01 -0.51479897145E-02  0.39079232636E+01  0.39081461507E+01  0.40000000000E-01 0.  1.
</event>
<event>
 5   0  0.7212170E+07  0.9118800E+02  0.7818608E-02  0.1180000E+00
       11   -1    0    0    0    0  0.00000000000E+00  0.00000000000E+00  0.39999999673E+01  0.40000000000E+01  0.51109989000E-03 0. -1.
     -623   -1    0    0    0    0  0.00000000000E+00  0.00000000000E+00  0.12525980253E-10  0.17130000000E+03  0.17130000000E+03 0.  1.
       11    1    1    2    0    0 -0.24077269265E-01 -0.30958041186E-01  0.16349336745E+01  0.16354040774E+01  0.51109989000E-03 0. -1.
     -623    1    1    2    0    0 -0.18627682500E-02  0.11367398238E-02  0.11391370728E-02  0.17130000002E+03  0.17130000000E+03 0.  1.
      622    1    1    2    0    0  0.25940037515E-01  0.29821301363E-01  0.23639271561E+01  0.23645959052E+01  0.40000000000E-01 0. -1.
</event>
<event>
 5   0  0.7212170E+07  0.9118800E+02  0.7818608E-02  0.1180000E+00
       11   -1    0    0    0    0  0.00000000000E+00  0.00000000000E+00  0.39999999673E+01  0.40000000000E+01  0.51109989000E-03 0.  1.
     -623   -1    0    0    0    0  0.00000000000E+00  0.00000000000E+00  0.12525980253E-10  0.17130000000E+03  0.17130000000E+03 0.  1.
       11    1    1    2    0    0 -0.44648783540E-01  0.17345088644E-02  0.15975662346E+01  0.15981910579E+01  0.51109989000E-03 0.  1.
     -623    1    1    2    0    0 -0.29513455901E-03 -0.20796729935E-01  0.14554373104E-02  0.17130000127E+03  0.17130000000E+03 0.  1.
      622    1    1    2    0    0  0.44943918099E-01  0.19062221070E-01  0.24009782953E+01  0.24018076731E+01  0.40000000000E-01 0.  1.
</event>
<event>
 5   0  0.7212170E+07  0.9118800E+02  0.7818608E-02  0.1180000E+00
       11   -1    0    0    0    0  0.00000000000E+00  0.00000000000E+00  0.39999999673E+01  0.40000000000E+01  0.51109989000E-03 0. -1.
     -623   -1    0    0    0    0  0.00000000000E+00  0.00000000000E+00  0.12525980253E-10  0.17130000000E+03  0.17130000000E+03 0. -1.
       11    1    1    2    0    0  0.45678113951E-02  0.60436577925E-02  0.73773235030E+00  0.73777142301E+00  0.51109989000E-03 0. -1.
     -623    1    1    2    0    0  0.12589155061E-01 -0.16686452042E-01  0.34803881708E-03  0.17130000128E+03  0.17130000000E+03 0. -1.
      622    1    1    2    0    0 -0.17156966460E-01  0.10642794255E-01  0.32619195795E+01  0.32622273026E+01  0.40000000000E-01 0. -1.
</event>
<event>
 5   0  0.7212170E+07  0.9118800E+02  0.7818608E-02  0.1180000E+00
       11   -1    0    0    0    0  0.00000000000E+00  0.00000000000E+00  0.39999999673E+01  0.40000000000E+01  0.51109989000E-03 0.  1.
     -623   -1    0    0    0    0  0.00000000000E+00  0.00000000000E+00  0.12525980253E-10  0.17130000000E+03  0.17130000000E+03 0.  1.
       11    1    1    2    0    0 -0.73470775276E-03  0.18002346390E-02  0.11772535698E-02  0.23297616407E-02  0.51109989000E-03 0.  1.
     -623    1    1    2    0    0 -0.19047813775E-02 -0.11897303993E-01  0.13666495659E-02  0.17130000043E+03  0.17130000000E+03 0.  1.
      622    1    1    2    0    0  0.26394891304E-02  0.10097069355E-01  0.39974560645E+01  0.39976698094E+01  0.40000000000E-01 0.  1.
</event>
<event>
 5   0  0.7212170E+07  0.9118800E+02  0.7818608E-02  0.1180000E+00
       11   -1    0    0    0    0  0.00000000000E+00  0.00000000000E+00  0.39999999673E+01  0.40000000000E+01  0.51109989000E-03 0.  1.
     -623   -1    0    0    0    0  0.00000000000E+00  0.00000000000E+00  0.12525980253E-10  0.17130000000E+03  0.17130000000E+03 0. -1.
       11    1    1    2    0    0 -0.13972299563E-02  0.12722396187E-02  0.21944625323E-01  0.22031764543E-01  0.51109989000E-03 0.  1.
     -623    1    1    2    0    0  0.39718017741E-04 -0.62291133009E-03  0.28850537301E-03  0.17130000000E+03  0.17130000000E+03 0. -1.
      622    1    1    2    0    0  0.13575119385E-02 -0.64932828836E-03  0.39777668380E+01  0.39779682354E+01  0.40000000000E-01 0.  1.
</event>
<event>
 5   0  0.7212170E+07  0.9118800E+02  0.7818608E-02  0.1180000E+00
       11   -1    0    0    0    0  0.00000000000E+00  0.00000000000E+00  0.39999999673E+01  0.40000000000E+01  0.51109989000E-03 0. -1.
     -623   -1    0    0    0    0  0.00000000000E+00  0.00000000000E+00  0.12525980253E-10  0.17130000000E+03  0.17130000000E+03 0. -1.
       11    1    1    2    0    0 -0.12222605984E-03  0.18818253801E-02  0.10227173275E-01  0.10412132455E-01  0.51109989000E-03 0. -1.
     -623    1    1    2    0    0  0.15806743875E-02 -0.34642929880E-03  0.38602367876E-03  0.17130000001E+03  0.17130000000E+03 0. -1.
      622    1    1    2    0    0 -0.14584483278E-02 -0.15353960813E-02  0.39893867707E+01  0.39895878598E+01  0.40000000000E-01 0. -1.
</event>
<event>
 5   0  0.7212170E+07  0.9118800E+02  0.7818608E-02  0.1180000E+00
       11   -1    0    0    0    0  0.00000000000E+00  0.00000000000E+00  0.39999999673E+01  0.40000000000E+01  0.51109989000E-03 0. -1.
     -623   -1    0    0    0    0  0.00000000000E+00  0.00000000000E+00  0.12525980253E-10  0.17130000000E+03  0.17130000000E+03 0.  1.
       11    1    1    2    0    0 -0.64430310063E-02 -0.89207221710E-02  0.19909928513E+00  0.19940380763E+00  0.51109989000E-03 0. -1.
     -623    1    1    2    0    0  0.34346557042E-02  0.55810472411E-03  0.52541667526E-03  0.17130000004E+03  0.17130000000E+03 0.  1.
      622    1    1    2    0    0  0.30083753024E-02  0.83626174470E-02  0.38003752652E+01  0.38005961559E+01  0.40000000000E-01 0.  0.
</event>
<event>
 5   0  0.7212170E+07  0.9118800E+02  0.7818608E-02  0.1180000E+00
       11   -1    0    0    0    0  0.00000000000E+00  0.00000000000E+00  0.39999999673E+01  0.40000000000E+01  0.51109989000E-03 0.  1.
     -623   -1    0    0    0    0  0.00000000000E+00  0.00000000000E+00  0.12525980253E-10  0.17130000000E+03  0.17130000000E+03 0. -1.
       11    1    1    2    0    0  0.69424292503E-02  0.58752067530E-02  0.78107683579E+00  0.78112995079E+00  0.51109989000E-03 0.  1.
     -623    1    1    2    0    0  0.27627261298E-02 -0.17287435364E-02  0.31896065050E-03  0.17130000003E+03  0.17130000000E+03 0. -1.
      622    1    1    2    0    0 -0.97051553800E-02 -0.41464632167E-02  0.32186041708E+01  0.32188700178E+01  0.40000000000E-01 0.  1.
</event>
<event>
 5   0  0.7212170E+07  0.9118800E+02  0.7818608E-02  0.1180000E+00
       11   -1    0    0    0    0  0.00000000000E+00  0.00000000000E+00  0.39999999673E+01  0.40000000000E+01  0.51109989000E-03 0.  1.
     -623   -1    0    0    0    0  0.00000000000E+00  0.00000000000E+00  0.12525980253E-10  0.17130000000E+03  0.17130000000E+03 0. -1.
       11    1    1    2    0    0 -0.38788454674E-02  0.23747962608E-02  0.21069095083E-01  0.21560451993E-01  0.51109989000E-03 0.  1.
     -623    1    1    2    0    0  0.41375185258E-03  0.66728400936E-03  0.69508860585E-03  0.17130000000E+03  0.17130000000E+03 0. -1.
      622    1    1    2    0    0  0.34650936148E-02 -0.30420802702E-02  0.39782357844E+01  0.39784395456E+01  0.40000000000E-01 0.  1.
</event>
<event>
 5   0  0.7212170E+07  0.9118800E+02  0.7818608E-02  0.1180000E+00
       11   -1    0    0    0    0  0.00000000000E+00  0.00000000000E+00  0.39999999673E+01  0.40000000000E+01  0.51109989000E-03 0.  1.
     -623   -1    0    0    0    0  0.00000000000E+00  0.00000000000E+00  0.12525980253E-10  0.17130000000E+03  0.17130000000E+03 0.  1.
       11    1    1    2    0    0 -0.86715278143E-03 -0.18924500799E-03  0.11230581246E-02  0.15199507453E-02  0.51109989000E-03 0.  1.
     -623    1    1    2    0    0  0.14415319441E-02 -0.99677487390E-03  0.59716818254E-03  0.17130000001E+03  0.17130000000E+03 0.  1.
      622    1    1    2    0    0 -0.57437916272E-03  0.11860198819E-02  0.39982797411E+01  0.39984800393E+01  0.40000000000E-01 0.  1.
</event>
<event>
 5   0  0.7212170E+07  0.9118800E+02  0.7818608E-02  0.1180000E+00
       11   -1    0    0    0    0  0.00000000000E+00  0.00000000000E+00  0.39999999673E+01  0.40000000000E+01  0.51109989000E-03 0.  1.
     -623   -1    0    0    0    0  0.00000000000E+00  0.00000000000E+00  0.12525980253E-10  0.17130000000E+03  0.17130000000E+03 0.  1.
       11    1    1    2    0    0  0.93093802849E-02 -0.56014259978E-02  0.35818022525E-01  0.37433040154E-01  0.51109989000E-03 0.  1.
     -623    1    1    2    0    0 -0.92606114837E-02 -0.50315923105E-03  0.18218430164E-02  0.17130000026E+03  0.17130000000E+03 0.  1.
      622    1    1    2    0    0 -0.48768801089E-04  0.61045852289E-02  0.39623601019E+01  0.39625666992E+01  0.40000000000E-01 0.  1.
</event>
<event>
 5   0  0.7212170E+07  0.9118800E+02  0.7818608E-02  0.1180000E+00
       11   -1    0    0    0    0  0.00000000000E+00  0.00000000000E+00  0.39999999673E+01  0.40000000000E+01  0.51109989000E-03 0. -1.
     -623   -1    0    0    0    0  0.00000000000E+00  0.00000000000E+00  0.12525980253E-10  0.17130000000E+03  0.17130000000E+03 0. -1.
       11    1    1    2    0    0  0.17202051305E-02 -0.55928431590E-03  0.16443843535E-01  0.16550924987E-01  0.51109989000E-03 0. -1.
     -623    1    1    2    0    0  0.29269380328E-04  0.41140321586E-03  0.30827257032E-03  0.17130000000E+03  0.17130000000E+03 0. -1.
      622    1    1    2    0    0 -0.17494745108E-02  0.14788109996E-03  0.39832478521E+01  0.39834490750E+01  0.40000000000E-01 0. -1.
</event>
<event>
 5   0  0.7212170E+07  0.9118800E+02  0.7818608E-02  0.1180000E+00
       11   -1    0    0    0    0  0.00000000000E+00  0.00000000000E+00  0.39999999673E+01  0.40000000000E+01  0.51109989000E-03 0.  1.
     -623   -1    0    0    0    0  0.00000000000E+00  0.00000000000E+00  0.12525980253E-10  0.17130000000E+03  0.17130000000E+03 0.  1.
       11    1    1    2    0    0  0.12367497136E-02 -0.95010980339E-03  0.16806100668E-02  0.23490278386E-02  0.51109989000E-03 0.  1.
     -623    1    1    2    0    0 -0.25747289838E-02  0.36694090568E-02  0.86971735224E-03  0.17130000006E+03  0.17130000000E+03 0.  1.
      622    1    1    2    0    0  0.13379792707E-02 -0.27192992539E-02  0.39974496405E+01  0.39976509119E+01  0.40000000000E-01 0.  1.
</event>
<event>
 5   0  0.7212170E+07  0.9118800E+02  0.7818608E-02  0.1180000E+00
       11   -1    0    0    0    0  0.00000000000E+00  0.00000000000E+00  0.39999999673E+01  0.40000000000E+01  0.51109989000E-03 0.  1.
     -623   -1    0    0    0    0  0.00000000000E+00  0.00000000000E+00  0.12525980253E-10  0.17130000000E+03  0.17130000000E+03 0.  1.
       11    1    1    2    0    0 -0.23003663142E-01 -0.49078012830E-02  0.23542898646E+01  0.23544074165E+01  0.51109989000E-03 0.  1.
     -623    1    1    2    0    0 -0.80703714446E-02  0.58495624704E-03  0.90311362909E-03  0.17130000019E+03  0.17130000000E+03 0.  1.
      622    1    1    2    0    0  0.31074034586E-01  0.43228450360E-02  0.16448069890E+01  0.16455923899E+01  0.40000000000E-01 0.  0.
</event>
<event>
 5   0  0.7212170E+07  0.9118800E+02  0.7818608E-02  0.1180000E+00
       11   -1    0    0    0    0  0.00000000000E+00  0.00000000000E+00  0.39999999673E+01  0.40000000000E+01  0.51109989000E-03 0.  1.
     -623   -1    0    0    0    0  0.00000000000E+00  0.00000000000E+00  0.12525980253E-10  0.17130000000E+03  0.17130000000E+03 0. -1.
       11    1    1    2    0    0  0.12775390426E-02 -0.17631605574E-02  0.17409331752E+00  0.17410768297E+00  0.51109989000E-03 0.  1.
     -623    1    1    2    0    0 -0.59019994440E-03 -0.61743773006E-04  0.22393824337E-03  0.17130000000E+03  0.17130000000E+03 0. -1.
      622    1    1    2    0    0 -0.68733909829E-03  0.18249043304E-02  0.38256827110E+01  0.38258923152E+01  0.40000000000E-01 0.  1.
</event>
<event>
 5   0  0.7212170E+07  0.9118800E+02  0.7818608E-02  0.1180000E+00
       11   -1    0    0    0    0  0.00000000000E+00  0.00000000000E+00  0.39999999673E+01  0.40000000000E+01  0.51109989000E-03 0. -1.
     -623   -1    0    0    0    0  0.00000000000E+00  0.00000000000E+00  0.12525980253E-10  0.17130000000E+03  0.17130000000E+03 0. -1.
       11    1    1    2    0    0 -0.55049669382E-03 -0.23288618701E-01  0.18746725669E+01  0.18748173664E+01  0.51109989000E-03 0. -1.
     -623    1    1    2    0    0  0.55625414370E-02 -0.16015130481E-03  0.65663267560E-03  0.17130000009E+03  0.17130000000E+03 0. -1.
      622    1    1    2    0    0 -0.50120447426E-02  0.23448770006E-01  0.21246707673E+01  0.21251825416E+01  0.40000000000E-01 0. -1.
</event>
<event>
 5   0  0.7212170E+07  0.9118800E+02  0.7818608E-02  0.1180000E+00
       11   -1    0    0    0    0  0.00000000000E+00  0.00000000000E+00  0.39999999673E+01  0.40000000000E+01  0.51109989000E-03 0. -1.
     -623   -1    0    0    0    0  0.00000000000E+00  0.00000000000E+00  0.12525980253E-10  0.17130000000E+03  0.17130000000E+03 0. -1.
       11    1    1    2    0    0  0.24573924860E-03 -0.12189830223E-02  0.50056766015E-02  0.51830810068E-02  0.51109989000E-03 0. -1.
     -623    1    1    2    0    0  0.15131910866E-02 -0.25836121649E-03  0.37830400826E-03  0.17130000001E+03  0.17130000000E+03 0. -1.
      622    1    1    2    0    0 -0.17589303351E-02  0.14773442387E-02  0.39946159866E+01  0.39948169116E+01  0.40000000000E-01 0. -1.
</event>
<event>
 5   0  0.7212170E+07  0.9118800E+02  0.7818608E-02  0.1180000E+00
       11   -1    0    0    0    0  0.00000000000E+00  0.00000000000E+00  0.39999999673E+01  0.40000000000E+01  0.51109989000E-03 0.  1.
     -623   -1    0    0    0    0  0.00000000000E+00  0.00000000000E+00  0.12525980253E-10  0.17130000000E+03  0.17130000000E+03 0.  1.
       11    1    1    2    0    0 -0.68733852459E-02  0.21580187925E-02  0.20813320019E-01  0.22030796245E-01  0.51109989000E-03 0.  1.
     -623    1    1    2    0    0  0.38816121956E-02  0.10414122622E-02  0.14210211383E-02  0.17130000005E+03  0.17130000000E+03 0.  1.
      622    1    1    2    0    0  0.29917730500E-02 -0.31994310548E-02  0.39777656264E+01  0.39779691509E+01  0.40000000000E-01 0.  1.
</event>
<event>
 5   0  0.7212170E+07  0.9118800E+02  0.7818608E-02  0.1180000E+00
       11   -1    0    0    0    0  0.00000000000E+00  0.00000000000E+00  0.39999999673E+01  0.40000000000E+01  0.51109989000E-03 0.  1.
     -623   -1    0    0    0    0  0.00000000000E+00  0.00000000000E+00  0.12525980253E-10  0.17130000000E+03  0.17130000000E+03 0.  1.
       11    1    1    2    0    0  0.19931374316E-01 -0.74139726749E-02  0.20527753000E+00  0.20637672402E+00  0.51109989000E-03 0.  1.
     -623    1    1    2    0    0  0.82322067321E-03  0.11589456502E-01  0.13695219246E-02  0.17130000040E+03  0.17130000000E+03 0.  1.
      622    1    1    2    0    0 -0.20754594989E-01 -0.41754838280E-02  0.37933529156E+01  0.37936228767E+01  0.40000000000E-01 0.  1.
</event>
<event>
 5   0  0.7212170E+07  0.9118800E+02  0.7818608E-02  0.1180000E+00
       11   -1    0    0    0    0  0.00000000000E+00  0.00000000000E+00  0.39999999673E+01  0.40000000000E+01  0.51109989000E-03 0.  1.
     -623   -1    0    0    0    0  0.00000000000E+00  0.00000000000E+00  0.12525980253E-10  0.17130000000E+03  0.17130000000E+03 0.  1.
       11    1    1    2    0    0  0.23955664725E-01 -0.93319243423E-02  0.21770471593E+00  0.21921807235E+00  0.51109989000E-03 0.  1.
     -623    1    1    2    0    0 -0.70187093428E-02  0.94078927791E-02  0.17632771137E-02  0.17130000041E+03  0.17130000000E+03 0.  1.
      622    1    1    2    0    0 -0.16936955382E-01 -0.75968436745E-04  0.37805319743E+01  0.37807815164E+01  0.40000000000E-01 0.  1.
</event>
<event>
 5   0  0.7212170E+07  0.9118800E+02  0.7818608E-02  0.1180000E+00
       11   -1    0    0    0    0  0.00000000000E+00  0.00000000000E+00  0.39999999673E+01  0.40000000000E+01  0.51109989000E-03 0.  1.
     -623   -1    0    0    0    0  0.00000000000E+00  0.00000000000E+00  0.12525980253E-10  0.17130000000E+03  0.17130000000E+03 0.  1.
       11    1    1    2    0    0  0.72096810898E-02  0.13212118323E-01  0.61631883815E+00  0.61650280701E+00  0.51109989000E-03 0.  1.
     -623    1    1    2    0    0 -0.92355229107E-02 -0.12114430947E-02  0.44253030378E-03  0.17130000025E+03  0.17130000000E+03 0.  1.
      622    1    1    2    0    0  0.20258418237E-02 -0.12000675228E-01  0.33832386001E+01  0.33834969404E+01  0.40000000000E-01 0.  1.
</event>
<event>
 5   0  0.7212170E+07  0.9118800E+02  0.7818608E-02  0.1180000E+00
       11   -1    0    0    0    0  0.00000000000E+00  0.00000000000E+00  0.39999999673E+01  0.40000000000E+01  0.51109989000E-03 0.  1.
     -623   -1    0    0    0    0  0.00000000000E+00  0.00000000000E+00  0.12525980253E-10  0.17130000000E+03  0.17130000000E+03 0.  1.
       11    1    1    2    0    0  0.62327397520E-02  0.20916772384E-02  0.25330824066E-01  0.26175065032E-01  0.51109989000E-03 0.  1.
     -623    1    1    2    0    0 -0.15917429789E-01 -0.57991875000E-02  0.10599034300E-02  0.17130000084E+03  0.17130000000E+03 0.  1.
      622    1    1    2    0    0  0.96846900377E-02  0.37075102618E-02  0.39736092400E+01  0.39738240941E+01  0.40000000000E-01 0.  1.
</event>
<event>
 5   0  0.7212170E+07  0.9118800E+02  0.7818608E-02  0.1180000E+00
       11   -1    0    0    0    0  0.00000000000E+00  0.00000000000E+00  0.39999999673E+01  0.40000000000E+01  0.51109989000E-03 0. -1.
     -623   -1    0    0    0    0  0.00000000000E+00  0.00000000000E+00  0.12525980253E-10  0.17130000000E+03  0.17130000000E+03 0.  1.
       11    1    1    2    0    0 -0.16250504323E-01 -0.18640256299E-01  0.11276742152E+01  0.11279454485E+01  0.51109989000E-03 0. -1.
     -623    1    1    2    0    0 -0.35992590595E-01  0.10471788819E-01  0.10407253965E-02  0.17130000410E+03  0.17130000000E+03 0.  1.
      622    1    1    2    0    0  0.52243094922E-01  0.81684674792E-02  0.28712850273E+01  0.28720504474E+01  0.40000000000E-01 0.  0.
</event>
<event>
 5   0  0.7212170E+07  0.9118800E+02  0.7818608E-02  0.1180000E+00
       11   -1    0    0    0    0  0.00000000000E+00  0.00000000000E+00  0.39999999673E+01  0.40000000000E+01  0.51109989000E-03 0.  1.
     -623   -1    0    0    0    0  0.00000000000E+00  0.00000000000E+00  0.12525980253E-10  0.17130000000E+03  0.17130000000E+03 0. -1.
       11    1    1    2    0    0  0.38316489725E-02  0.30563502457E-02  0.54512468375E-01  0.54734753513E-01  0.51109989000E-03 0.  1.
     -623    1    1    2    0    0  0.22525512024E-04  0.20949108761E-02  0.43029158771E-03  0.17130000001E+03  0.17130000000E+03 0. -1.
      622    1    1    2    0    0 -0.38541744846E-02 -0.51512611222E-02  0.39450572083E+01  0.39452652340E+01  0.40000000000E-01 0.  1.
</event>
<event>
 5   0  0.7212170E+07  0.9118800E+02  0.7818608E-02  0.1180000E+00
       11   -1    0    0    0    0  0.00000000000E+00  0.00000000000E+00  0.39999999673E+01  0.40000000000E+01  0.51109989000E-03 0. -1.
     -623   -1    0    0    0    0  0.00000000000E+00  0.00000000000E+00  0.12525980253E-10  0.17130000000E+03  0.17130000000E+03 0. -1.
       11    1    1    2    0    0  0.24400922363E-02 -0.18826355320E-02  0.52233679288E-01  0.52327018276E-01  0.51109989000E-03 0. -1.
     -623    1    1    2    0    0 -0.74697886821E-02 -0.29332252471E-02  0.30229279538E-03  0.17130000019E+03  0.17130000000E+03 0. -1.
      622    1    1    2    0    0  0.50296964482E-02  0.48158607801E-02  0.39474639966E+01  0.39476727948E+01  0.40000000000E-01 0. -1.
</event>
<event>
 5   0  0.7212170E+07  0.9118800E+02  0.7818608E-02  0.1180000E+00
       11   -1    0    0    0    0  0.00000000000E+00  0.00000000000E+00  0.39999999673E+01  0.40000000000E+01  0.51109989000E-03 0.  1.
     -623   -1    0    0    0    0  0.00000000000E+00  0.00000000000E+00  0.12525980253E-10  0.17130000000E+03  0.17130000000E+03 0. -1.
       11    1    1    2    0    0  0.13631859207E-01  0.80845680922E-02  0.15203685368E+01  0.15204512280E+01  0.51109989000E-03 0.  1.
     -623    1    1    2    0    0 -0.49740737905E-03  0.16282937222E-02  0.45914647335E-03  0.17130000001E+03  0.17130000000E+03 0. -1.
      622    1    1    2    0    0 -0.13134451828E-01 -0.97128618144E-02  0.24791722839E+01  0.24795487628E+01  0.40000000000E-01 0. -1.
</event>
<event>
 5   0  0.7212170E+07  0.9118800E+02  0.7818608E-02  0.1180000E+00
       11   -1    0    0    0    0  0.00000000000E+00  0.00000000000E+00  0.39999999673E+01  0.40000000000E+01  0.51109989000E-03 0. -1.
     -623   -1    0    0    0    0  0.00000000000E+00  0.00000000000E+00  0.12525980253E-10  0.17130000000E+03  0.17130000000E+03 0. -1.
       11    1    1    2    0    0 -0.72133761761E-03  0.21025418051E-02  0.31843992800E-01  0.31925571421E-01  0.51109989000E-03 0. -1.
     -623    1    1    2    0    0 -0.45796329720E-03 -0.39979533112E-03  0.28370214205E-03  0.17130000000E+03  0.17130000000E+03 0. -1.
      622    1    1    2    0    0  0.11793009148E-02 -0.17027464741E-02  0.39678722721E+01  0.39680744269E+01  0.40000000000E-01 0. -1.
</event>
<event>
 5   0  0.7212170E+07  0.9118800E+02  0.7818608E-02  0.1180000E+00
       11   -1    0    0    0    0  0.00000000000E+00  0.00000000000E+00  0.39999999673E+01  0.40000000000E+01  0.51109989000E-03 0.  1.
     -623   -1    0    0    0    0  0.00000000000E+00  0.00000000000E+00  0.12525980253E-10  0.17130000000E+03  0.17130000000E+03 0.  1.
       11    1    1    2    0    0  0.11484220513E-01  0.47650962663E-03  0.15591312561E+01  0.15591737072E+01  0.51109989000E-03 0.  1.
     -623    1    1    2    0    0 -0.24411742256E-01 -0.90723302001E-02  0.42155637086E-03  0.17130000198E+03  0.17130000000E+03 0.  1.
      622    1    1    2    0    0  0.12927521747E-01  0.85958205752E-02  0.24404471556E+01  0.24408243133E+01  0.40000000000E-01 0.  0.
</event>
<event>
 5   0  0.7212170E+07  0.9118800E+02  0.7818608E-02  0.1180000E+00
       11   -1    0    0    0    0  0.00000000000E+00  0.00000000000E+00  0.39999999673E+01  0.40000000000E+01  0.51109989000E-03 0.  1.
     -623   -1    0    0    0    0  0.00000000000E+00  0.00000000000E+00  0.12525980253E-10  0.17130000000E+03  0.17130000000E+03 0.  1.
       11    1    1    2    0    0  0.10433767031E-02  0.49136277226E-01  0.20110059266E+00  0.20701973810E+00  0.51109989000E-03 0.  1.
     -623    1    1    2    0    0 -0.42395035002E-01 -0.57784755166E-01  0.63804389657E-02  0.17130001511E+03  0.17130000000E+03 0.  1.
      622    1    1    2    0    0  0.41351658299E-01  0.86484779414E-02  0.37925189358E+01  0.37929651507E+01  0.40000000000E-01 0.  1.
</event>
<event>
 5   0  0.7212170E+07  0.9118800E+02  0.7818608E-02  0.1180000E+00
       11   -1    0    0    0    0  0.00000000000E+00  0.00000000000E+00  0.39999999673E+01  0.40000000000E+01  0.51109989000E-03 0.  1.
     -623   -1    0    0    0    0  0.00000000000E+00  0.00000000000E+00  0.12525980253E-10  0.17130000000E+03  0.17130000000E+03 0.  1.
       11    1    1    2    0    0 -0.63170290350E-02 -0.19234279120E-02 -0.31958845093E-02  0.73538650828E-02  0.51109989000E-03 0.  1.
     -623    1    1    2    0    0  0.28621536606E-02  0.79334975393E-02  0.10756654240E-01  0.17130000055E+03  0.17130000000E+03 0.  1.
      622    1    1    2    0    0  0.34548753744E-02 -0.60100696272E-02  0.39924391976E+01  0.39926455896E+01  0.40000000000E-01 0.  1.
</event>
<event>
 5   0  0.7212170E+07  0.9118800E+02  0.7818608E-02  0.1180000E+00
       11   -1    0    0    0    0  0.00000000000E+00  0.00000000000E+00  0.39999999673E+01  0.40000000000E+01  0.51109989000E-03 0.  1.
     -623   -1    0    0    0    0  0.00000000000E+00  0.00000000000E+00  0.12525980253E-10  0.17130000000E+03  0.17130000000E+03 0. -1.
       11    1    1    2    0    0 -0.32233868161E-04 -0.82666977488E-04  0.47141220502E-03  0.70094608639E-03  0.51109989000E-03 0. -1.
     -623    1    1    2    0    0 -0.17271081758E-02 -0.14435433769E-03  0.42994404665E-03  0.17130000001E+03  0.17130000000E+03 0. -1.
      622    1    1    2    0    0  0.17593420439E-02  0.22702131516E-03  0.39990986109E+01  0.39992990444E+01  0.40000000000E-01 0.  1.
</event>
<event>
 5   0  0.7212170E+07  0.9118800E+02  0.7818608E-02  0.1180000E+00
       11   -1    0    0    0    0  0.00000000000E+00  0.00000000000E+00  0.39999999673E+01  0.40000000000E+01  0.51109989000E-03 0. -1.
     -623   -1    0    0    0    0  0.00000000000E+00  0.00000000000E+00  0.12525980253E-10  0.17130000000E+03  0.17130000000E+03 0.  1.
       11    1    1    2    0    0 -0.18263411923E-01 -0.36876449633E-01  0.13986843522E+01  0.13992896780E+01  0.51109989000E-03 0. -1.
     -623    1    1    2    0    0  0.24866488112E-02  0.81909765165E-05  0.12221769445E-02  0.17130000002E+03  0.17130000000E+03 0.  1.
      622    1    1    2    0    0  0.15776763112E-01  0.36868258657E-01  0.26000934384E+01  0.26007102998E+01  0.40000000000E-01 0. -1.
</event>
<event>
 5   0  0.7212170E+07  0.9118800E+02  0.7818608E-02  0.1180000E+00
       11   -1    0    0    0    0  0.00000000000E+00  0.00000000000E+00  0.39999999673E+01  0.40000000000E+01  0.51109989000E-03 0.  1.
     -623   -1    0    0    0    0  0.00000000000E+00  0.00000000000E+00  0.12525980253E-10  0.17130000000E+03  0.17130000000E+03 0.  1.
       11    1    1    2    0    0 -0.24240370563E-02 -0.55744584508E-03  0.42701204004E-01  0.42776637877E-01  0.51109989000E-03 0.  1.
     -623    1    1    2    0    0  0.29542915966E-02  0.74758479819E-04  0.27765903407E-03  0.17130000003E+03  0.17130000000E+03 0.  1.
      622    1    1    2    0    0 -0.53025454146E-03  0.48268736524E-03  0.39570211058E+01  0.39572233379E+01  0.40000000000E-01 0.  1.
</event>
<event>
 5   0  0.7212170E+07  0.9118800E+02  0.7818608E-02  0.1180000E+00
       11   -1    0    0    0    0  0.00000000000E+00  0.00000000000E+00  0.39999999673E+01  0.40000000000E+01  0.51109989000E-03 0.  1.
     -623   -1    0    0    0    0  0.00000000000E+00  0.00000000000E+00  0.12525980253E-10  0.17130000000E+03  0.17130000000E+03 0. -1.
       11    1    1    2    0    0  0.14394707263E-01  0.43391439214E-02  0.33025142003E+00  0.33059385569E+00  0.51109989000E-03 0.  1.
     -623    1    1    2    0    0 -0.43038577600E-02  0.10336456573E-01  0.60402031528E-03  0.17130000037E+03  0.17130000000E+03 0. -1.
      622    1    1    2    0    0 -0.10090849503E-01 -0.14675600494E-01  0.36691445270E+01  0.36694057773E+01  0.40000000000E-01 0.  1.
</event>
<event>
 5   0  0.7212170E+07  0.9118800E+02  0.7818608E-02  0.1180000E+00
       11   -1    0    0    0    0  0.00000000000E+00  0.00000000000E+00  0.39999999673E+01  0.40000000000E+01  0.51109989000E-03 0.  1.
     -623   -1    0    0    0    0  0.00000000000E+00  0.00000000000E+00  0.12525980253E-10  0.17130000000E+03  0.17130000000E+03 0. -1.
       11    1    1    2    0    0  0.11596845008E-01 -0.53849450471E-04  0.40055865445E+00  0.40072682290E+00  0.51109989000E-03 0.  1.
     -623    1    1    2    0    0 -0.35002338199E-02  0.27437820905E-02  0.40058049782E-03  0.17130000006E+03  0.17130000000E+03 0. -1.
      622    1    1    2    0    0 -0.80966111867E-02 -0.26899326408E-02  0.35990407335E+01  0.35992731200E+01  0.40000000000E-01 0.  1.
</event>
<event>
 5   0  0.7212170E+07  0.9118800E+02  0.7818608E-02  0.1180000E+00
       11   -1    0    0    0    0  0.00000000000E+00  0.00000000000E+00  0.39999999673E+01  0.40000000000E+01  0.51109989000E-03 0.  1.
     -623   -1    0    0    0    0  0.00000000000E+00  0.00000000000E+00  0.12525980253E-10  0.17130000000E+03  0.17130000000E+03 0.  1.
       11    1    1    2    0    0  0.35265356221E-02  0.96035425074E-03  0.13927340637E+00  0.13932229427E+00  0.51109989000E-03 0.  1.
     -623    1    1    2    0    0 -0.17384763849E-02 -0.23513891350E-02  0.25676817605E-03  0.17130000003E+03  0.17130000000E+03 0.  1.
      622    1    1    2    0    0 -0.17880592366E-02  0.13910348850E-02  0.38604697940E+01  0.38606776818E+01  0.40000000000E-01 0.  1.
</event>
<event>
 5   0  0.7212170E+07  0.9118800E+02  0.7818608E-02  0.1180000E+00
       11   -1    0    0    0    0  0.00000000000E+00  0.00000000000E+00  0.39999999673E+01  0.40000000000E+01  0.51109989000E-03 0. -1.
     -623   -1    0    0    0    0  0.00000000000E+00  0.00000000000E+00  0.12525980253E-10  0.17130000000E+03  0.17130000000E+03 0. -1.
       11    1    1    2    0    0 -0.24664168633E-03 -0.13617461572E-02  0.45127144041E-02  0.47477362088E-02  0.51109989000E-03 0. -1.
     -623    1    1    2    0    0  0.62632685930E-03  0.31420532979E-03  0.43538921829E-03  0.17130000000E+03  0.17130000000E+03 0. -1.
      622    1    1    2    0    0 -0.37968517293E-03  0.10475408274E-02  0.39950518635E+01  0.39952522616E+01  0.40000000000E-01 0. -1.
</event>
<event>
 5   0  0.7212170E+07  0.9118800E+02  0.7818608E-02  0.1180000E+00
       11   -1    0    0    0    0  0.00000000000E+00  0.00000000000E+00  0.39999999673E+01  0.40000000000E+01  0.51109989000E-03 0.  1.
     -623   -1    0    0    0    0  0.00000000000E+00  0.00000000000E+00  0.12525980253E-10  0.17130000000E+03  0.17130000000E+03 0.  1.
       11    1    1    2    0    0 -0.56926195308E-01 -0.39098409361E-01  0.35318569781E+00  0.35987452770E+00  0.51109989000E-03 0.  1.
     -623    1    1    2    0    0 -0.12272265798E-02  0.26067151731E-01  0.73986316467E-02  0.17130000215E+03  0.17130000000E+03 0.  1.
      622    1    1    2    0    0  0.58153421888E-01  0.13031257630E-01  0.36394156379E+01  0.36401233248E+01  0.40000000000E-01 0.  1.
</event>
<event>
 5   0  0.7212170E+07  0.9118800E+02  0.7818608E-02  0.1180000E+00
       11   -1    0    0    0    0  0.00000000000E+00  0.00000000000E+00  0.39999999673E+01  0.40000000000E+01  0.51109989000E-03 0. -1.
     -623   -1    0    0    0    0  0.00000000000E+00  0.00000000000E+00  0.12525980253E-10  0.17130000000E+03  0.17130000000E+03 0. -1.
       11    1    1    2    0    0 -0.34079674660E-02  0.23423054266E-03  0.24425284721E-01  0.24668296719E-01  0.51109989000E-03 0. -1.
     -623    1    1    2    0    0 -0.10016908348E-02  0.30300871660E-02  0.44804198419E-03  0.17130000003E+03  0.17130000000E+03 0. -1.
      622    1    1    2    0    0  0.44096583010E-02 -0.32643177091E-02  0.39751266412E+01  0.39753316735E+01  0.40000000000E-01 0. -1.
</event>
<event>
 5   0  0.7212170E+07  0.9118800E+02  0.7818608E-02  0.1180000E+00
       11   -1    0    0    0    0  0.00000000000E+00  0.00000000000E+00  0.39999999673E+01  0.40000000000E+01  0.51109989000E-03 0.  1.
     -623   -1    0    0    0    0  0.00000000000E+00  0.00000000000E+00  0.12525980253E-10  0.17130000000E+03  0.17130000000E+03 0.  1.
       11    1    1    2    0    0  0.49239195870E-02  0.19141489589E-01  0.75452108999E+00  0.75478008590E+00  0.51109989000E-03 0.  1.
     -623    1    1    2    0    0  0.11150434464E-01 -0.76072194255E-02  0.56633482021E-03  0.17130000053E+03  0.17130000000E+03 0.  1.
      622    1    1    2    0    0 -0.16074354049E-01 -0.11534270165E-01  0.32449125417E+01  0.32452193805E+01  0.40000000000E-01 0.  1.
</event>
<event>
 5   0  0.7212170E+07  0.9118800E+02  0.7818608E-02  0.1180000E+00
       11   -1    0    0    0    0  0.00000000000E+00  0.00000000000E+00  0.39999999673E+01  0.40000000000E+01  0.51109989000E-03 0. -1.
     -623   -1    0    0    0    0  0.00000000000E+00  0.00000000000E+00  0.12525980253E-10  0.17130000000E+03  0.17130000000E+03 0.  1.
       11    1    1    2    0    0 -0.64772013761E-02  0.16614361298E-01  0.30082130716E+01  0.30082659684E+01  0.51109989000E-03 0. -1.
     -623    1    1    2    0    0  0.24415720182E-01 -0.24537235224E-01  0.10574252788E-02  0.17130000350E+03  0.17130000000E+03 0.  1.
      622    1    1    2    0    0 -0.17938518808E-01  0.79228739285E-02  0.99072947077E+00  0.99173053127E+00  0.40000000000E-01 0.  0.
</event>
<event>
 5   0  0.7212170E+07  0.9118800E+02  0.7818608E-02  0.1180000E+00
       11   -1    0    0    0    0  0.00000000000E+00  0.00000000000E+00  0.39999999673E+01  0.40000000000E+01  0.51109989000E-03 0.  1.
     -623   -1    0    0    0    0  0.00000000000E+00  0.00000000000E+00  0.12525980253E-10  0.17130000000E+03  0.17130000000E+03 0.  1.
       11    1    1    2    0    0  0.32260711731E-03 -0.35648568184E-03  0.19817153108E-01  0.19829572305E-01  0.51109989000E-03 0.  1.
     -623    1    1    2    0    0 -0.54434048745E-04  0.49413400056E-03  0.21340031980E-03  0.17130000000E+03  0.17130000000E+03 0.  1.
      622    1    1    2    0    0 -0.26817306855E-03 -0.13764831882E-03  0.39799694148E+01  0.39801704277E+01  0.40000000000E-01 0.  1.
</event>
<event>
 5   0  0.7212170E+07  0.9118800E+02  0.7818608E-02  0.1180000E+00
       11   -1    0    0    0    0  0.00000000000E+00  0.00000000000E+00  0.39999999673E+01  0.40000000000E+01  0.51109989000E-03 0.  1.
     -623   -1    0    0    0    0  0.00000000000E+00  0.00000000000E+00  0.12525980253E-10  0.17130000000E+03  0.17130000000E+03 0.  1.
       11    1    1    2    0    0  0.93415667594E-03  0.28112316030E-03  0.59245785849E-02  0.60260711440E-02  0.51109989000E-03 0. -1.
     -623    1    1    2    0    0  0.82777295232E-03 -0.42938235880E-03  0.30216091120E-03  0.17130000000E+03  0.17130000000E+03 0.  1.
      622    1    1    2    0    0 -0.17619296284E-02  0.14825919856E-03  0.39937732284E+01  0.39939739266E+01  0.40000000000E-01 0.  1.
</event>
<event>
 5   0  0.7212170E+07  0.9118800E+02  0.7818608E-02  0.1180000E+00
       11   -1    0    0    0    0  0.00000000000E+00  0.00000000000E+00  0.39999999673E+01  0.40000000000E+01  0.51109989000E-03 0. -1.
     -623   -1    0    0    0    0  0.00000000000E+00  0.00000000000E+00  0.12525980253E-10  0.17130000000E+03  0.17130000000E+03 0.  1.
       11    1    1    2    0    0  0.33939642005E-01 -0.17717672772E-01  0.13660831651E+01  0.13666196582E+01  0.51109989000E-03 0. -1.
     -623    1    1    2    0    0  0.66297659034E-02 -0.35545318148E-02  0.12389360863E-02  0.17130000017E+03  0.17130000000E+03 0.  1.
      622    1    1    2    0    0 -0.40569407909E-01  0.21272204587E-01  0.26326778666E+01  0.26333801725E+01  0.40000000000E-01 0.  0.
</event>
<event>
 5   0  0.7212170E+07  0.9118800E+02  0.7818608E-02  0.1180000E+00
       11   -1    0    0    0    0  0.00000000000E+00  0.00000000000E+00  0.39999999673E+01  0.40000000000E+01  0.51109989000E-03 0. -1.
     -623   -1    0    0    0    0  0.00000000000E+00  0.00000000000E+00  0.12525980253E-10  0.17130000000E+03  0.17130000000E+03 0.  1.
       11    1    1    2    0    0  0.45951041007E-03  0.39920507692E-02  0.10039523066E+01  0.10039604787E+01  0.51109989000E-03 0. -1.
     -623    1    1    2    0    0 -0.44728961535E-03 -0.23704575646E-02  0.27562663622E-03  0.17130000002E+03  0.17130000000E+03 0.  1.
      622    1    1    2    0    0 -0.12220794705E-04 -0.16215932045E-02  0.29957720343E+01  0.29960395043E+01  0.40000000000E-01 0. -1.
</event>
<event>
 5   0  0.7212170E+07  0.9118800E+02  0.7818608E-02  0.1180000E+00
       11   -1    0    0    0    0  0.00000000000E+00  0.00000000000E+00  0.39999999673E+01  0.40000000000E+01  0.51109989000E-03 0. -1.
     -623   -1    0    0    0    0  0.00000000000E+00  0.00000000000E+00  0.12525980253E-10  0.17130000000E+03  0.17130000000E+03 0. -1.
       11    1    1    2    0    0  0.14537080018E-01 -0.24181077421E-01  0.11229881056E+01  0.11233426003E+01  0.51109989000E-03 0. -1.
     -623    1    1    2    0    0 -0.65007524051E-02 -0.11590713638E-01  0.86676579201E-03  0.17130000052E+03  0.17130000000E+03 0. -1.
      622    1    1    2    0    0 -0.80363276123E-02  0.35771791060E-01  0.28761450962E+01  0.28766568822E+01  0.40000000000E-01 0. -1.
</event>
<event>
 5   0  0.7212170E+07  0.9118800E+02  0.7818608E-02  0.1180000E+00
       11   -1    0    0    0    0  0.00000000000E+00  0.00000000000E+00  0.39999999673E+01  0.40000000000E+01  0.51109989000E-03 0. -1.
     -623   -1    0    0    0    0  0.00000000000E+00  0.00000000000E+00  0.12525980253E-10  0.17130000000E+03  0.17130000000E+03 0.  1.
       11    1    1    2    0    0  0.57567335481E-03 -0.75681010334E-03  0.81929571586E-02  0.82637722285E-02  0.51109989000E-03 0. -1.
     -623    1    1    2    0    0 -0.70980629766E-03  0.76881640288E-03  0.27120718760E-03  0.17130000000E+03  0.17130000000E+03 0.  1.
      622    1    1    2    0    0  0.13413294292E-03 -0.12006299616E-04  0.39915358034E+01  0.39917362248E+01  0.40000000000E-01 0. -1.
</event>
<event>
 5   0  0.7212170E+07  0.9118800E+02  0.7818608E-02  0.1180000E+00
       11   -1    0    0    0    0  0.00000000000E+00  0.00000000000E+00  0.39999999673E+01  0.40000000000E+01  0.51109989000E-03 0. -1.
     -623   -1    0    0    0    0  0.00000000000E+00  0.00000000000E+00  0.12525980253E-10  0.17130000000E+03  0.17130000000E+03 0. -1.
       11    1    1    2    0    0 -0.18030555030E-01  0.59830107421E-02  0.63697370999E-01  0.66471901038E-01  0.51109989000E-03 0. -1.
     -623    1    1    2    0    0 -0.11554772375E-01 -0.10430687466E-01  0.30924000772E-02  0.17130000074E+03  0.17130000000E+03 0. -1.
      622    1    1    2    0    0  0.29585327405E-01  0.44476767245E-02  0.39332101963E+01  0.39335273638E+01  0.40000000000E-01 0. -1.
</event>
<event>
 5   0  0.7212170E+07  0.9118800E+02  0.7818608E-02  0.1180000E+00
       11   -1    0    0    0    0  0.00000000000E+00  0.00000000000E+00  0.39999999673E+01  0.40000000000E+01  0.51109989000E-03 0.  1.
     -623   -1    0    0    0    0  0.00000000000E+00  0.00000000000E+00  0.12525980253E-10  0.17130000000E+03  0.17130000000E+03 0. -1.
       11    1    1    2    0    0 -0.36342056211E-01 -0.32621253302E-02  0.18184003745E+01  0.18187664967E+01  0.51109989000E-03 0.  1.
     -623    1    1    2    0    0  0.25876454971E-02 -0.12201553256E-02  0.99875188093E-03  0.17130000003E+03  0.17130000000E+03 0. -1.
      622    1    1    2    0    0  0.33754410714E-01  0.44822806559E-02  0.21806008410E+01  0.21812334765E+01  0.40000000000E-01 0.  1.
</event>
<event>
 5   0  0.7212170E+07  0.9118800E+02  0.7818608E-02  0.1180000E+00
       11   -1    0    0    0    0  0.00000000000E+00  0.00000000000E+00  0.39999999673E+01  0.40000000000E+01  0.51109989000E-03 0.  1.
     -623   -1    0    0    0    0  0.00000000000E+00  0.00000000000E+00  0.12525980253E-10  0.17130000000E+03  0.17130000000E+03 0.  1.
       11    1    1    2    0    0 -0.81487066721E-04  0.14078061596E-02  0.51027293918E-02  0.53186115358E-02  0.51109989000E-03 0. -1.
     -623    1    1    2    0    0  0.57974616577E-02  0.22705951716E-02  0.42201784610E-03  0.17130000011E+03  0.17130000000E+03 0.  1.
      622    1    1    2    0    0 -0.57159745915E-02 -0.36784013314E-02  0.39944752204E+01  0.39946812751E+01  0.40000000000E-01 0.  1.
</event>
<event>
 5   0  0.7212170E+07  0.9118800E+02  0.7818608E-02  0.1180000E+00
       11   -1    0    0    0    0  0.00000000000E+00  0.00000000000E+00  0.39999999673E+01  0.40000000000E+01  0.51109989000E-03 0. -1.
     -623   -1    0    0    0    0  0.00000000000E+00  0.00000000000E+00  0.12525980253E-10  0.17130000000E+03  0.17130000000E+03 0. -1.
       11    1    1    2    0    0  0.94561632671E-03 -0.13571639212E-01  0.33957091855E-01  0.36584544435E-01  0.51109989000E-03 0. -1.
     -623    1    1    2    0    0  0.18857420862E-01  0.16642140807E-02  0.28977052728E-02  0.17130000107E+03  0.17130000000E+03 0. -1.
      622    1    1    2    0    0 -0.19803037189E-01  0.11907425132E-01  0.39631451704E+01  0.39634143852E+01  0.40000000000E-01 0. -1.
</event>
<event>
 5   0  0.7212170E+07  0.9118800E+02  0.7818608E-02  0.1180000E+00
       11   -1    0    0    0    0  0.00000000000E+00  0.00000000000E+00  0.39999999673E+01  0.40000000000E+01  0.51109989000E-03 0. -1.
     -623   -1    0    0    0    0  0.00000000000E+00  0.00000000000E+00  0.12525980253E-10  0.17130000000E+03  0.17130000000E+03 0. -1.
       11    1    1    2    0    0 -0.32124000389E-03 -0.15874732323E-02  0.49189471274E-02  0.52038956891E-02  0.51109989000E-03 0. -1.
     -623    1    1    2    0    0 -0.54445097238E-03  0.18912329645E-02  0.48529882212E-03  0.17130000001E+03  0.17130000000E+03 0. -1.
      622    1    1    2    0    0  0.86569097629E-03 -0.30375973225E-03  0.39945957216E+01  0.39947960925E+01  0.40000000000E-01 0. -1.
</event>
<event>
 5   0  0.7212170E+07  0.9118800E+02  0.7818608E-02  0.1180000E+00
       11   -1    0    0    0    0  0.00000000000E+00  0.00000000000E+00  0.39999999673E+01  0.40000000000E+01  0.51109989000E-03 0. -1.
     -623   -1    0    0    0    0  0.00000000000E+00  0.00000000000E+00  0.12525980253E-10  0.17130000000E+03  0.17130000000E+03 0. -1.
       11    1    1    2    0    0 -0.49355533368E-02  0.63833875679E-02  0.12782547859E+00  0.12808091787E+00  0.51109989000E-03 0. -1.
     -623    1    1    2    0    0 -0.56890000142E-03 -0.35744288852E-02  0.46699875456E-03  0.17130000004E+03  0.17130000000E+03 0. -1.
      622    1    1    2    0    0  0.55044533382E-02 -0.28089586830E-02  0.38717074897E+01  0.38719190430E+01  0.40000000000E-01 0. -1.
</event>
<event>
 5   0  0.7212170E+07  0.9118800E+02  0.7818608E-02  0.1180000E+00
       11   -1    0    0    0    0  0.00000000000E+00  0.00000000000E+00  0.39999999673E+01  0.40000000000E+01  0.51109989000E-03 0. -1.
     -623   -1    0    0    0    0  0.00000000000E+00  0.00000000000E+00  0.12525980253E-10  0.17130000000E+03  0.17130000000E+03 0.  1.
       11    1    1    2    0    0 -0.10405874073E-01  0.87848779450E-02  0.13082397241E+01  0.13083107021E+01  0.51109989000E-03 0. -1.
     -623    1    1    2    0    0  0.79227554644E-02  0.12177452498E-02  0.38809394983E-03  0.17130000019E+03  0.17130000000E+03 0.  1.
      622    1    1    2    0    0  0.24831186090E-02 -0.10002623195E-01  0.26913721492E+01  0.26916891098E+01  0.40000000000E-01 0. -1.
</event>
<event>
 5   0  0.7212170E+07  0.9118800E+02  0.7818608E-02  0.1180000E+00
       11   -1    0    0    0    0  0.00000000000E+00  0.00000000000E+00  0.39999999673E+01  0.40000000000E+01  0.51109989000E-03 0.  1.
     -623   -1    0    0    0    0  0.00000000000E+00  0.00000000000E+00  0.12525980253E-10  0.17130000000E+03  0.17130000000E+03 0. -1.
       11    1    1    2    0    0  0.12679686077E-01 -0.99052701367E-02  0.32354879340E+00  0.32394902647E+00  0.51109989000E-03 0.  1.
     -623    1    1    2    0    0  0.54464184298E-03  0.10940263212E-02  0.65218626132E-03  0.17130000001E+03  0.17130000000E+03 0. -1.
      622    1    1    2    0    0 -0.13224327921E-01  0.88112438154E-02  0.36757989884E+01  0.36760509686E+01  0.40000000000E-01 0.  1.
</event>
<event>
 5   0  0.7212170E+07  0.9118800E+02  0.7818608E-02  0.1180000E+00
       11   -1    0    0    0    0  0.00000000000E+00  0.00000000000E+00  0.39999999673E+01  0.40000000000E+01  0.51109989000E-03 0. -1.
     -623   -1    0    0    0    0  0.00000000000E+00  0.00000000000E+00  0.12525980253E-10  0.17130000000E+03  0.17130000000E+03 0. -1.
       11    1    1    2    0    0 -0.17053549035E-02  0.52950889139E-03  0.10166364543E-01  0.10334641074E-01  0.51109989000E-03 0. -1.
     -623    1    1    2    0    0 -0.85867352360E-03 -0.24518722434E-02  0.37007420643E-03  0.17130000002E+03  0.17130000000E+03 0. -1.
      622    1    1    2    0    0  0.25640284271E-02  0.19223633520E-02  0.39894635286E+01  0.39896653389E+01  0.40000000000E-01 0. -1.
</event>
<event>
 5   0  0.7212170E+07  0.9118800E+02  0.7818608E-02  0.1180000E+00
       11   -1    0    0    0    0  0.00000000000E+00  0.00000000000E+00  0.39999999673E+01  0.40000000000E+01  0.51109989000E-03 0. -1.
     -623   -1    0    0    0    0  0.00000000000E+00  0.00000000000E+00  0.12525980253E-10  0.17130000000E+03  0.17130000000E+03 0.  1.
       11    1    1    2    0    0  0.16023403372E-01  0.13208148292E-01  0.53649653574E+00  0.53689849946E+00  0.51109989000E-03 0. -1.
     -623    1    1    2    0    0  0.33130754288E-02 -0.21809101828E-02  0.70453830256E-03  0.17130000005E+03  0.17130000000E+03 0.  1.
      622    1    1    2    0    0 -0.19336478801E-01 -0.11027238109E-01  0.34627988936E+01  0.34631014534E+01  0.40000000000E-01 0. -1.
</event>
<event>
 5   0  0.7212170E+07  0.9118800E+02  0.7818608E-02  0.1180000E+00
       11   -1    0    0    0    0  0.00000000000E+00  0.00000000000E+00  0.39999999673E+01  0.40000000000E+01  0.51109989000E-03 0. -1.
     -623   -1    0    0    0    0  0.00000000000E+00  0.00000000000E+00  0.12525980253E-10  0.17130000000E+03  0.17130000000E+03 0. -1.
       11    1    1    2    0    0  0.12518907717E-01 -0.70114594511E-02  0.24188260120E+01  0.24188686242E+01  0.51109989000E-03 0. -1.
     -623    1    1    2    0    0 -0.37501673564E-02 -0.27177927873E-01  0.94496351205E-03  0.17130000220E+03  0.17130000000E+03 0. -1.
      622    1    1    2    0    0 -0.87687403607E-02  0.34189387325E-01  0.15802289920E+01  0.15811291763E+01  0.40000000000E-01 0.  0.
</event>
<event>
 5   0  0.7212170E+07  0.9118800E+02  0.7818608E-02  0.1180000E+00
       11   -1    0    0    0    0  0.00000000000E+00  0.00000000000E+00  0.39999999673E+01  0.40000000000E+01  0.51109989000E-03 0.  1.
     -623   -1    0    0    0    0  0.00000000000E+00  0.00000000000E+00  0.12525980253E-10  0.17130000000E+03  0.17130000000E+03 0. -1.
       11    1    1    2    0    0  0.23215026999E-02 -0.33473466060E-02  0.50349521152E-01  0.50516627039E-01  0.51109989000E-03 0.  1.
     -623    1    1    2    0    0  0.56514042889E-03  0.70704977651E-02  0.37259379549E-03  0.17130000015E+03  0.17130000000E+03 0. -1.
      622    1    1    2    0    0 -0.28866431289E-02 -0.37231511597E-02  0.39492778527E+01  0.39494832260E+01  0.40000000000E-01 0.  1.
</event>
<event>
 5   0  0.7212170E+07  0.9118800E+02  0.7818608E-02  0.1180000E+00
       11   -1    0    0    0    0  0.00000000000E+00  0.00000000000E+00  0.39999999673E+01  0.40000000000E+01  0.51109989000E-03 0.  1.
     -623   -1    0    0    0    0  0.00000000000E+00  0.00000000000E+00  0.12525980253E-10  0.17130000000E+03  0.17130000000E+03 0. -1.
       11    1    1    2    0    0 -0.18491118733E-03 -0.10556740979E-02  0.20934316334E-02  0.24067237169E-02  0.51109989000E-03 0.  1.
     -623    1    1    2    0    0 -0.12855961080E-03  0.10993782670E-02  0.51340173678E-03  0.17130000000E+03  0.17130000000E+03 0. -1.
      622    1    1    2    0    0  0.31347079815E-03 -0.43704169244E-04  0.39973931344E+01  0.39975932723E+01  0.40000000000E-01 0.  1.
</event>
<event>
 5   0  0.7212170E+07  0.9118800E+02  0.7818608E-02  0.1180000E+00
       11   -1    0    0    0    0  0.00000000000E+00  0.00000000000E+00  0.39999999673E+01  0.40000000000E+01  0.51109989000E-03 0. -1.
     -623   -1    0    0    0    0  0.00000000000E+00  0.00000000000E+00  0.12525980253E-10  0.17130000000E+03  0.17130000000E+03 0.  1.
       11    1    1    2    0    0 -0.28312661661E-01 -0.97633474398E-02  0.13176225062E+01  0.13179629205E+01  0.51109989000E-03 0. -1.
     -623    1    1    2    0    0 -0.20421860948E-01  0.10620065329E-01  0.10832225334E-02  0.17130000155E+03  0.17130000000E+03 0.  1.
      622    1    1    2    0    0  0.48734522608E-01 -0.85671788884E-03  0.26812942385E+01  0.26820355294E+01  0.40000000000E-01 0. -1.
</event>
<event>
 5   0  0.7212170E+07  0.9118800E+02  0.7818608E-02  0.1180000E+00
       11   -1    0    0    0    0  0.00000000000E+00  0.00000000000E+00  0.39999999673E+01  0.40000000000E+01  0.51109989000E-03 0.  1.
     -623   -1    0    0    0    0  0.00000000000E+00  0.00000000000E+00  0.12525980253E-10  0.17130000000E+03  0.17130000000E+03 0. -1.
       11    1    1    2    0    0 -0.12869128949E-02 -0.16983670282E-04  0.30468685530E+00  0.30469000222E+00  0.51109989000E-03 0.  1.
     -623    1    1    2    0    0  0.15927071502E-03  0.68853786752E-03  0.21984593508E-03  0.17130000000E+03  0.17130000000E+03 0. -1.
      622    1    1    2    0    0  0.11276421799E-02 -0.67155419721E-03  0.36950932659E+01  0.36953099960E+01  0.40000000000E-01 0.  1.
</event>
<event>
 5   0  0.7212170E+07  0.9118800E+02  0.7818608E-02  0.1180000E+00
       11   -1    0    0    0    0  0.00000000000E+00  0.00000000000E+00  0.39999999673E+01  0.40000000000E+01  0.51109989000E-03 0.  1.
     -623   -1    0    0    0    0  0.00000000000E+00  0.00000000000E+00  0.12525980253E-10  0.17130000000E+03  0.17130000000E+03 0. -1.
       11    1    1    2    0    0  0.12571068376E-02  0.15761204304E-01  0.19674755417E+01  0.19675391392E+01  0.51109989000E-03 0.  1.
     -623    1    1    2    0    0 -0.11469877493E-01  0.77122799889E-02  0.61902078992E-03  0.17130000056E+03  0.17130000000E+03 0. -1.
      622    1    1    2    0    0  0.10212770655E-01 -0.23473484293E-01  0.20319054050E+01  0.20324603022E+01  0.40000000000E-01 0.  0.
</event>
<event>
 5   0  0.7212170E+07  0.9118800E+02  0.7818608E-02  0.1180000E+00
       11   -1    0    0    0    0  0.00000000000E+00  0.00000000000E+00  0.39999999673E+01  0.40000000000E+01  0.51109989000E-03 0. -1.
     -623   -1    0    0    0    0  0.00000000000E+00  0.00000000000E+00  0.12525980253E-10  0.17130000000E+03  0.17130000000E+03 0. -1.
       11    1    1    2    0    0  0.13946981867E-01 -0.28852513529E-02  0.35453768696E+00  0.35482400662E+00  0.51109989000E-03 0. -1.
     -623    1    1    2    0    0  0.58046637116E-02  0.16871291076E-01  0.58704185633E-03  0.17130000093E+03  0.17130000000E+03 0. -1.
      622    1    1    2    0    0 -0.19751645580E-01 -0.13986039727E-01  0.36448752394E+01  0.36451750641E+01  0.40000000000E-01 0. -1.
</event>
<event>
 5   0  0.7212170E+07  0.9118800E+02  0.7818608E-02  0.1180000E+00
       11   -1    0    0    0    0  0.00000000000E+00  0.00000000000E+00  0.39999999673E+01  0.40000000000E+01  0.51109989000E-03 0. -1.
     -623   -1    0    0    0    0  0.00000000000E+00  0.00000000000E+00  0.12525980253E-10  0.17130000000E+03  0.17130000000E+03 0. -1.
       11    1    1    2    0    0  0.41591393533E-02  0.11278232298E-01  0.73956749589E+00  0.73966535620E+00  0.51109989000E-03 0. -1.
     -623    1    1    2    0    0 -0.10470823877E-02 -0.20575521601E-02  0.35775149262E-03  0.17130000002E+03  0.17130000000E+03 0. -1.
      622    1    1    2    0    0 -0.31120569658E-02 -0.92206801379E-02  0.32600747194E+01  0.32603346273E+01  0.40000000000E-01 0.  0.
</event>
<event>
 5   0  0.7212170E+07  0.9118800E+02  0.7818608E-02  0.1180000E+00
       11   -1    0    0    0    0  0.00000000000E+00  0.00000000000E+00  0.39999999673E+01  0.40000000000E+01  0.51109989000E-03 0. -1.
     -623   -1    0    0    0    0  0.00000000000E+00  0.00000000000E+00  0.12525980253E-10  0.17130000000E+03  0.17130000000E+03 0. -1.
       11    1    1    2    0    0  0.59461929432E-02  0.97338722355E-03  0.26135880424E-01  0.26826296089E-01  0.51109989000E-03 0. -1.
     -623    1    1    2    0    0  0.53278021688E-02 -0.14401191874E-01  0.93111698709E-03  0.17130000069E+03  0.17130000000E+03 0. -1.
      622    1    1    2    0    0 -0.11273995112E-01  0.13427804650E-01  0.39729329699E+01  0.39731730131E+01  0.40000000000E-01 0. -1.
</event>
<event>
 5   0  0.7212170E+07  0.9118800E+02  0.7818608E-02  0.1180000E+00
       11   -1    0    0    0    0  0.00000000000E+00  0.00000000000E+00  0.39999999673E+01  0.40000000000E+01  0.51109989000E-03 0. -1.
     -623   -1    0    0    0    0  0.00000000000E+00  0.00000000000E+00  0.12525980253E-10  0.17130000000E+03  0.17130000000E+03 0. -1.
       11    1    1    2    0    0  0.17009608118E-02 -0.52093836974E-03  0.38186528819E-02  0.42435807284E-02  0.51109989000E-03 0.  1.
     -623    1    1    2    0    0 -0.16019673145E-02  0.13325371680E-03  0.62514134528E-03  0.17130000001E+03  0.17130000000E+03 0. -1.
      622    1    1    2    0    0 -0.98993497440E-04  0.38768465296E-03  0.39955561727E+01  0.39957564102E+01  0.40000000000E-01 0. -1.
</event>
<event>
 5   0  0.7212170E+07  0.9118800E+02  0.7818608E-02  0.1180000E+00
       11   -1    0    0    0    0  0.00000000000E+00  0.00000000000E+00  0.39999999673E+01  0.40000000000E+01  0.51109989000E-03 0.  1.
     -623   -1    0    0    0    0  0.00000000000E+00  0.00000000000E+00  0.12525980253E-10  0.17130000000E+03  0.17130000000E+03 0. -1.
       11    1    1    2    0    0 -0.23440282276E-01 -0.21510895999E-02  0.25378773809E+01  0.25379865910E+01  0.51109989000E-03 0.  1.
     -623    1    1    2    0    0  0.91816859147E-03  0.42757293942E-02  0.83162314034E-03  0.17130000006E+03  0.17130000000E+03 0. -1.
      622    1    1    2    0    0  0.22522113685E-01 -0.21246397943E-02  0.14612909633E+01  0.14620133512E+01  0.40000000000E-01 0. -1.
</event>
<event>
 5   0  0.7212170E+07  0.9118800E+02  0.7818608E-02  0.1180000E+00
       11   -1    0    0    0    0  0.00000000000E+00  0.00000000000E+00  0.39999999673E+01  0.40000000000E+01  0.51109989000E-03 0. -1.
     -623   -1    0    0    0    0  0.00000000000E+00  0.00000000000E+00  0.12525980253E-10  0.17130000000E+03  0.17130000000E+03 0.  1.
       11    1    1    2    0    0  0.60960471026E-02  0.73162220491E-03  0.90053127665E-02  0.10911184283E-01  0.51109989000E-03 0. -1.
     -623    1    1    2    0    0 -0.59086676950E-02 -0.13708074900E-02  0.21065669297E-02  0.17130000012E+03  0.17130000000E+03 0.  1.
      622    1    1    2    0    0 -0.18737940749E-03  0.63918528513E-03  0.39888880877E+01  0.39890886954E+01  0.40000000000E-01 0. -1.
</event>
<event>
 5   0  0.7212170E+07  0.9118800E+02  0.7818608E-02  0.1180000E+00
       11   -1    0    0    0    0  0.00000000000E+00  0.00000000000E+00  0.39999999673E+01  0.40000000000E+01  0.51109989000E-03 0. -1.
     -623   -1    0    0    0    0  0.00000000000E+00  0.00000000000E+00  0.12525980253E-10  0.17130000000E+03  0.17130000000E+03 0. -1.
       11    1    1    2    0    0 -0.11175040823E-01  0.20721035408E-02  0.93693077166E+00  0.93699984379E+00  0.51109989000E-03 0. -1.
     -623    1    1    2    0    0 -0.27871397637E-03  0.97279583050E-03  0.35316633820E-03  0.17130000000E+03  0.17130000000E+03 0. -1.
      622    1    1    2    0    0  0.11453754799E-01 -0.30448993714E-02  0.30627160295E+01  0.30630001530E+01  0.40000000000E-01 0. -1.
</event>
<event>
 5   0  0.7212170E+07  0.9118800E+02  0.7818608E-02  0.1180000E+00
       11   -1    0    0    0    0  0.00000000000E+00  0.00000000000E+00  0.39999999673E+01  0.40000000000E+01  0.51109989000E-03 0.  1.
     -623   -1    0    0    0    0  0.00000000000E+00  0.00000000000E+00  0.12525980253E-10  0.17130000000E+03  0.17130000000E+03 0.  1.
       11    1    1    2    0    0 -0.16894343446E-03  0.57521470462E-03  0.64423168222E-02  0.64903068476E-02  0.51109989000E-03 0.  1.
     -623    1    1    2    0    0  0.82985484536E-03 -0.28494338414E-03  0.24835512168E-03  0.17130000000E+03  0.17130000000E+03 0.  1.
      622    1    1    2    0    0 -0.66091141096E-03 -0.29027132046E-03  0.39933092957E+01  0.39935096910E+01  0.40000000000E-01 0.  1.
</event>
<event>
 5   0  0.7212170E+07  0.9118800E+02  0.7818608E-02  0.1180000E+00
       11   -1    0    0    0    0  0.00000000000E+00  0.00000000000E+00  0.39999999673E+01  0.40000000000E+01  0.51109989000E-03 0. -1.
     -623   -1    0    0    0    0  0.00000000000E+00  0.00000000000E+00  0.12525980253E-10  0.17130000000E+03  0.17130000000E+03 0. -1.
       11    1    1    2    0    0  0.22706535806E-01  0.57306737232E-02  0.20853007319E+01  0.20854322888E+01  0.51109989000E-03 0. -1.
     -623    1    1    2    0    0 -0.72710634295E-03  0.77296271648E-03  0.68666747773E-03  0.17130000000E+03  0.17130000000E+03 0. -1.
      622    1    1    2    0    0 -0.21979429463E-01 -0.65036364397E-02  0.19140125684E+01  0.19145677069E+01  0.40000000000E-01 0. -1.
</event>
<event>
 5   0  0.7212170E+07  0.9118800E+02  0.7818608E-02  0.1180000E+00
       11   -1    0    0    0    0  0.00000000000E+00  0.00000000000E+00  0.39999999673E+01  0.40000000000E+01  0.51109989000E-03 0.  1.
     -623   -1    0    0    0    0  0.00000000000E+00  0.00000000000E+00  0.12525980253E-10  0.17130000000E+03  0.17130000000E+03 0. -1.
       11    1    1    2    0    0  0.11538538942E-02  0.14932907618E-03  0.36407342273E-02  0.38561440318E-02  0.51109989000E-03 0.  1.
     -623    1    1    2    0    0 -0.23139201873E-03  0.23822464977E-03  0.41570126741E-03  0.17130000000E+03  0.17130000000E+03 0. -1.
      622    1    1    2    0    0 -0.92246187546E-03 -0.38755372597E-03  0.39959435321E+01  0.39961438554E+01  0.40000000000E-01 0.  1.
</event>
<event>
 5   0  0.7212170E+07  0.9118800E+02  0.7818608E-02  0.1180000E+00
       11   -1    0    0    0    0  0.00000000000E+00  0.00000000000E+00  0.39999999673E+01  0.40000000000E+01  0.51109989000E-03 0. -1.
     -623   -1    0    0    0    0  0.00000000000E+00  0.00000000000E+00  0.12525980253E-10  0.17130000000E+03  0.17130000000E+03 0. -1.
       11    1    1    2    0    0 -0.20490501048E-02 -0.47092301959E-02  0.19840992538E-01  0.20501260043E-01  0.51109989000E-03 0. -1.
     -623    1    1    2    0    0  0.79697481132E-03 -0.11663968459E-03  0.86439761648E-03  0.17130000000E+03  0.17130000000E+03 0. -1.
      622    1    1    2    0    0  0.12520752933E-02  0.48258698805E-02  0.39792945778E+01  0.39794987365E+01  0.40000000000E-01 0. -1.
</event>
<event>
 5   0  0.7212170E+07  0.9118800E+02  0.7818608E-02  0.1180000E+00
       11   -1    0    0    0    0  0.00000000000E+00  0.00000000000E+00  0.39999999673E+01  0.40000000000E+01  0.51109989000E-03 0.  1.
     -623   -1    0    0    0    0  0.00000000000E+00  0.00000000000E+00  0.12525980253E-10  0.17130000000E+03  0.17130000000E+03 0. -1.
       11    1    1    2    0    0  0.62651820718E-03 -0.39636630680E-03  0.89558850266E-02  0.90010405521E-02  0.51109989000E-03 0.  1.
     -623    1    1    2    0    0 -0.92333807575E-04  0.40240517165E-03  0.24561541614E-03  0.17130000000E+03  0.17130000000E+03 0. -1.
      622    1    1    2    0    0 -0.53418439959E-03 -0.60388648851E-05  0.39907984672E+01  0.39909989590E+01  0.40000000000E-01 0.  1.
</event>
<event>
 5   0  0.7212170E+07  0.9118800E+02  0.7818608E-02  0.1180000E+00
       11   -1    0    0    0    0  0.00000000000E+00  0.00000000000E+00  0.39999999673E+01  0.40000000000E+01  0.51109989000E-03 0.  1.
     -623   -1    0    0    0    0  0.00000000000E+00  0.00000000000E+00  0.12525980253E-10  0.17130000000E+03  0.17130000000E+03 0. -1.
       11    1    1    2    0    0  0.20969180770E-02 -0.20795166853E-02  0.77453593606E-01  0.77511559400E-01  0.51109989000E-03 0.  1.
     -623    1    1    2    0    0 -0.63351820864E-03  0.85658906048E-03  0.26235777810E-03  0.17130000000E+03  0.17130000000E+03 0. -1.
      622    1    1    2    0    0 -0.14633998686E-02  0.12229276250E-02  0.39222840148E+01  0.39224884359E+01  0.40000000000E-01 0.  1.
</event>
<event>
 5   0  0.7212170E+07  0.9118800E+02  0.7818608E-02  0.1180000E+00
       11   -1    0    0    0    0  0.00000000000E+00  0.00000000000E+00  0.39999999673E+01  0.40000000000E+01  0.51109989000E-03 0. -1.
     -623   -1    0    0    0    0  0.00000000000E+00  0.00000000000E+00  0.12525980253E-10  0.17130000000E+03  0.17130000000E+03 0.  1.
       11    1    1    2    0    0 -0.11587064977E-03 -0.70657364736E-02  0.37827146221E+00  0.37833780990E+00  0.51109989000E-03 0. -1.
     -623    1    1    2    0    0  0.90593970479E-03  0.45046915434E-02  0.28826846582E-03  0.17130000006E+03  0.17130000000E+03 0.  1.
      622    1    1    2    0    0 -0.79006905525E-03  0.25610449291E-02  0.36214402377E+01  0.36216621292E+01  0.40000000000E-01 0. -1.
</event>
<event>
 5   0  0.7212170E+07  0.9118800E+02  0.7818608E-02  0.1180000E+00
       11   -1    0    0    0    0  0.00000000000E+00  0.00000000000E+00  0.39999999673E+01  0.40000000000E+01  0.51109989000E-03 0.  1.
     -623   -1    0    0    0    0  0.00000000000E+00  0.00000000000E+00  0.12525980253E-10  0.17130000000E+03  0.17130000000E+03 0. -1.
       11    1    1    2    0    0 -0.57246588656E-02 -0.25563540872E-02  0.46300252882E+00  0.46304525652E+00  0.51109989000E-03 0.  1.
     -623    1    1    2    0    0 -0.14371600754E-03 -0.62620479378E-03  0.27518751952E-03  0.17130000000E+03  0.17130000000E+03 0. -1.
      622    1    1    2    0    0  0.58683748732E-02  0.31825588812E-02  0.35367222526E+01  0.35369547436E+01  0.40000000000E-01 0.  1.
</event>
<event>
 5   0  0.7212170E+07  0.9118800E+02  0.7818608E-02  0.1180000E+00
       11   -1    0    0    0    0  0.00000000000E+00  0.00000000000E+00  0.39999999673E+01  0.40000000000E+01  0.51109989000E-03 0. -1.
     -623   -1    0    0    0    0  0.00000000000E+00  0.00000000000E+00  0.12525980253E-10  0.17130000000E+03  0.17130000000E+03 0.  1.
       11    1    1    2    0    0 -0.39549311213E-03 -0.25312212746E-02  0.29396259634E+00  0.29397420425E+00  0.51109989000E-03 0. -1.
     -623    1    1    2    0    0  0.10163860949E-02  0.12878573394E-02  0.22771482735E-03  0.17130000001E+03  0.17130000000E+03 0.  1.
      622    1    1    2    0    0 -0.62089298323E-03  0.12433639346E-02  0.37058096580E+01  0.37060257895E+01  0.40000000000E-01 0. -1.
</event>
<event>
 5   0  0.7212170E+07  0.9118800E+02  0.7818608E-02  0.1180000E+00
       11   -1    0    0    0    0  0.00000000000E+00  0.00000000000E+00  0.39999999673E+01  0.40000000000E+01  0.51109989000E-03 0. -1.
     -623   -1    0    0    0    0  0.00000000000E+00  0.00000000000E+00  0.12525980253E-10  0.17130000000E+03  0.17130000000E+03 0.  1.
       11    1    1    2    0    0 -0.11000767192E-02  0.16821176155E-02  0.49567864017E-02  0.53731408869E-02  0.51109989000E-03 0. -1.
     -623    1    1    2    0    0  0.76247653942E-03 -0.28278356072E-03  0.61685830023E-03  0.17130000000E+03  0.17130000000E+03 0.  1.
      622    1    1    2    0    0  0.33760017984E-03 -0.13993340548E-02  0.39944263225E+01  0.39946268560E+01  0.40000000000E-01 0. -1.
</event>
<event>
 5   0  0.7212170E+07  0.9118800E+02  0.7818608E-02  0.1180000E+00
       11   -1    0    0    0    0  0.00000000000E+00  0.00000000000E+00  0.39999999673E+01  0.40000000000E+01  0.51109989000E-03 0.  1.
     -623   -1    0    0    0    0  0.00000000000E+00  0.00000000000E+00  0.12525980253E-10  0.17130000000E+03  0.17130000000E+03 0. -1.
       11    1    1    2    0    0 -0.17263625917E-01  0.13839218058E-01  0.35364011874E+00  0.35433197929E+00  0.51109989000E-03 0.  1.
     -623    1    1    2    0    0 -0.23024075524E-02  0.54786069466E-03  0.99219097172E-03  0.17130000002E+03  0.17130000000E+03 0. -1.
      622    1    1    2    0    0  0.19566033469E-01 -0.14387078752E-01  0.36453676574E+01  0.36456680013E+01  0.40000000000E-01 0.  1.
</event>
<event>
 5   0  0.7212170E+07  0.9118800E+02  0.7818608E-02  0.1180000E+00
       11   -1    0    0    0    0  0.00000000000E+00  0.00000000000E+00  0.39999999673E+01  0.40000000000E+01  0.51109989000E-03 0. -1.
     -623   -1    0    0    0    0  0.00000000000E+00  0.00000000000E+00  0.12525980253E-10  0.17130000000E+03  0.17130000000E+03 0. -1.
       11    1    1    2    0    0  0.20111703945E-02 -0.21294140186E-02  0.61058405796E-01  0.61130756186E-01  0.51109989000E-03 0. -1.
     -623    1    1    2    0    0 -0.32996008305E-02  0.30998150278E-03  0.27609021801E-03  0.17130000003E+03  0.17130000000E+03 0. -1.
      622    1    1    2    0    0  0.12884304375E-02  0.18194325157E-02  0.39386654731E+01  0.39388692133E+01  0.40000000000E-01 0. -1.
</event>
<event>
 5   0  0.7212170E+07  0.9118800E+02  0.7818608E-02  0.1180000E+00
       11   -1    0    0    0    0  0.00000000000E+00  0.00000000000E+00  0.39999999673E+01  0.40000000000E+01  0.51109989000E-03 0. -1.
     -623   -1    0    0    0    0  0.00000000000E+00  0.00000000000E+00  0.12525980253E-10  0.17130000000E+03  0.17130000000E+03 0.  1.
       11    1    1    2    0    0 -0.30479460667E-01 -0.86672015472E-02  0.18088653000E+01  0.18091429056E+01  0.51109989000E-03 0. -1.
     -623    1    1    2    0    0 -0.46958056227E-02  0.60654134090E-02  0.92692010129E-03  0.17130000017E+03  0.17130000000E+03 0.  1.
      622    1    1    2    0    0  0.35175266290E-01  0.26017881382E-02  0.21902077472E+01  0.21908569202E+01  0.40000000000E-01 0. -1.
</event>
<event>
 5   0  0.7212170E+07  0.9118800E+02  0.7818608E-02  0.1180000E+00
       11   -1    0    0    0    0  0.00000000000E+00  0.00000000000E+00  0.39999999673E+01  0.40000000000E+01  0.51109989000E-03 0.  1.
     -623   -1    0    0    0    0  0.00000000000E+00  0.00000000000E+00  0.12525980253E-10  0.17130000000E+03  0.17130000000E+03 0. -1.
       11    1    1    2    0    0  0.74375471963E-02 -0.15247131171E-02  0.25839259455E+00  0.25850461504E+00  0.51109989000E-03 0.  1.
     -623    1    1    2    0    0  0.26923230551E-02  0.47203481852E-02  0.34097735643E-03  0.17130000009E+03  0.17130000000E+03 0. -1.
      622    1    1    2    0    0 -0.10129870252E-01 -0.31956350688E-02  0.37412663961E+01  0.37414952991E+01  0.40000000000E-01 0.  1.
</event>
<event>
 5   0  0.7212170E+07  0.9118800E+02  0.7818608E-02  0.1180000E+00
       11   -1    0    0    0    0  0.00000000000E+00  0.00000000000E+00  0.39999999673E+01  0.40000000000E+01  0.51109989000E-03 0.  1.
     -623   -1    0    0    0    0  0.00000000000E+00  0.00000000000E+00  0.12525980253E-10  0.17130000000E+03  0.17130000000E+03 0.  1.
       11    1    1    2    0    0 -0.14912487064E-02 -0.13445745047E-02  0.23569310674E+00  0.23570221359E+00  0.51109989000E-03 0.  1.
     -623    1    1    2    0    0 -0.18236945006E-02  0.15048283908E-02  0.22308281921E-03  0.17130000002E+03  0.17130000000E+03 0.  1.
      622    1    1    2    0    0  0.33149432075E-02 -0.16025388652E-03  0.37640837789E+01  0.37642977710E+01  0.40000000000E-01 0.  1.
</event>
<event>
 5   0  0.7212170E+07  0.9118800E+02  0.7818608E-02  0.1180000E+00
       11   -1    0    0    0    0  0.00000000000E+00  0.00000000000E+00  0.39999999673E+01  0.40000000000E+01  0.51109989000E-03 0.  1.
     -623   -1    0    0    0    0  0.00000000000E+00  0.00000000000E+00  0.12525980253E-10  0.17130000000E+03  0.17130000000E+03 0. -1.
       11    1    1    2    0    0  0.92863484249E-03 -0.12737789296E-02  0.98440813332E-03  0.19274744882E-02  0.51109989000E-03 0. -1.
     -623    1    1    2    0    0 -0.21134110787E-02 -0.10985347025E-02  0.11440349369E-02  0.17130000002E+03  0.17130000000E+03 0. -1.
      622    1    1    2    0    0  0.11847762363E-02  0.23723136321E-02  0.39978715244E+01  0.39980725052E+01  0.40000000000E-01 0.  1.
</event>
<event>
 5   0  0.7212170E+07  0.9118800E+02  0.7818608E-02  0.1180000E+00
       11   -1    0    0    0    0  0.00000000000E+00  0.00000000000E+00  0.39999999673E+01  0.40000000000E+01  0.51109989000E-03 0.  1.
     -623   -1    0    0    0    0  0.00000000000E+00  0.00000000000E+00  0.12525980253E-10  0.17130000000E+03  0.17130000000E+03 0.  1.
       11    1    1    2    0    0  0.13820190295E-03  0.48346303823E-02  0.14767119571E+00  0.14775126401E+00  0.51109989000E-03 0.  1.
     -623    1    1    2    0    0 -0.70117611893E-03 -0.26654725132E-02  0.28838646953E-03  0.17130000002E+03  0.17130000000E+03 0.  1.
      622    1    1    2    0    0  0.56297421621E-03 -0.21691578682E-02  0.38520403865E+01  0.38522487149E+01  0.40000000000E-01 0.  1.
</event>
<event>
 5   0  0.7212170E+07  0.9118800E+02  0.7818608E-02  0.1180000E+00
       11   -1    0    0    0    0  0.00000000000E+00  0.00000000000E+00  0.39999999673E+01  0.40000000000E+01  0.51109989000E-03 0. -1.
     -623   -1    0    0    0    0  0.00000000000E+00  0.00000000000E+00  0.12525980253E-10  0.17130000000E+03  0.17130000000E+03 0. -1.
       11    1    1    2    0    0  0.39320214130E-02 -0.82587537018E-03  0.14902408259E+00  0.14907911080E+00  0.51109989000E-03 0. -1.
     -623    1    1    2    0    0 -0.10855964344E-02 -0.13975225333E-02  0.26444696247E-03  0.17130000001E+03  0.17130000000E+03 0. -1.
      622    1    1    2    0    0 -0.28464249780E-02  0.22233979043E-02  0.38507114400E+01  0.38509208821E+01  0.40000000000E-01 0. -1.
</event>
<event>
 5   0  0.7212170E+07  0.9118800E+02  0.7818608E-02  0.1180000E+00
       11   -1    0    0    0    0  0.00000000000E+00  0.00000000000E+00  0.39999999673E+01  0.40000000000E+01  0.51109989000E-03 0.  1.
     -623   -1    0    0    0    0  0.00000000000E+00  0.00000000000E+00  0.12525980253E-10  0.17130000000E+03  0.17130000000E+03 0.  1.
       11    1    1    2    0    0 -0.59311807391E-01  0.40163098809E-01  0.11378519384E+01  0.11401044952E+01  0.51109989000E-03 0.  1.
     -623    1    1    2    0    0 -0.14249322420E-01 -0.76521268906E-02  0.36642518977E-02  0.17130000080E+03  0.17130000000E+03 0.  1.
      622    1    1    2    0    0  0.73561129811E-01 -0.32510971918E-01  0.28584837772E+01  0.28598947022E+01  0.40000000000E-01 0.  1.
</event>
<event>
 5   0  0.7212170E+07  0.9118800E+02  0.7818608E-02  0.1180000E+00
       11   -1    0    0    0    0  0.00000000000E+00  0.00000000000E+00  0.39999999673E+01  0.40000000000E+01  0.51109989000E-03 0. -1.
     -623   -1    0    0    0    0  0.00000000000E+00  0.00000000000E+00  0.12525980253E-10  0.17130000000E+03  0.17130000000E+03 0. -1.
       11    1    1    2    0    0 -0.61599722749E-03 -0.82538826853E-02  0.38943522872E-01  0.39816645122E-01  0.51109989000E-03 0. -1.
     -623    1    1    2    0    0  0.64198021256E-03  0.47529581687E-03  0.10827507226E-02  0.17130000001E+03  0.17130000000E+03 0. -1.
      622    1    1    2    0    0 -0.25982985070E-04  0.77785868684E-02  0.39599736938E+01  0.39601833496E+01  0.40000000000E-01 0. -1.
</event>
<event>
 5   0  0.7212170E+07  0.9118800E+02  0.7818608E-02  0.1180000E+00
       11   -1    0    0    0    0  0.00000000000E+00  0.00000000000E+00  0.39999999673E+01  0.40000000000E+01  0.51109989000E-03 0. -1.
     -623   -1    0    0    0    0  0.00000000000E+00  0.00000000000E+00  0.12525980253E-10  0.17130000000E+03  0.17130000000E+03 0.  1.
       11    1    1    2    0    0  0.85133261875E-03 -0.17534518035E-02  0.42535956150E-01  0.42583660589E-01  0.51109989000E-03 0. -1.
     -623    1    1    2    0    0  0.38985527821E-03 -0.41139421424E-04  0.25043126072E-03  0.17130000000E+03  0.17130000000E+03 0.  1.
      622    1    1    2    0    0 -0.12411878970E-02  0.17945912249E-02  0.39572135801E+01  0.39574163389E+01  0.40000000000E-01 0. -1.
</event>
<event>
 5   0  0.7212170E+07  0.9118800E+02  0.7818608E-02  0.1180000E+00
       11   -1    0    0    0    0  0.00000000000E+00  0.00000000000E+00  0.39999999673E+01  0.40000000000E+01  0.51109989000E-03 0.  1.
     -623   -1    0    0    0    0  0.00000000000E+00  0.00000000000E+00  0.12525980253E-10  0.17130000000E+03  0.17130000000E+03 0.  1.
       11    1    1    2    0    0  0.30576491035E-02 -0.74212751167E-02  0.13406220087E+00  0.13430323700E+00  0.51109989000E-03 0.  1.
     -623    1    1    2    0    0  0.57788660106E-03  0.53778420836E-03  0.45579845774E-03  0.17130000000E+03  0.17130000000E+03 0.  1.
      622    1    1    2    0    0 -0.36355357046E-02  0.68834909083E-02  0.38654819682E+01  0.38656967608E+01  0.40000000000E-01 0.  1.
</event>
<event>
 5   0  0.7212170E+07  0.9118800E+02  0.7818608E-02  0.1180000E+00
       11   -1    0    0    0    0  0.00000000000E+00  0.00000000000E+00  0.39999999673E+01  0.40000000000E+01  0.51109989000E-03 0. -1.
     -623   -1    0    0    0    0  0.00000000000E+00  0.00000000000E+00  0.12525980253E-10  0.17130000000E+03  0.17130000000E+03 0.  1.
       11    1    1    2    0    0  0.13621141394E-02  0.49334296230E-03  0.69038634134E-02  0.70727148490E-02  0.51109989000E-03 0. -1.
     -623    1    1    2    0    0  0.12370586755E-02 -0.68596202856E-03  0.37003497172E-03  0.17130000001E+03  0.17130000000E+03 0.  1.
      622    1    1    2    0    0 -0.25991728148E-02  0.19261906622E-03  0.39927260687E+01  0.39929272787E+01  0.40000000000E-01 0. -1.
</event>
<event>
 5   0  0.7212170E+07  0.9118800E+02  0.7818608E-02  0.1180000E+00
       11   -1    0    0    0    0  0.00000000000E+00  0.00000000000E+00  0.39999999673E+01  0.40000000000E+01  0.51109989000E-03 0. -1.
     -623   -1    0    0    0    0  0.00000000000E+00  0.00000000000E+00  0.12525980253E-10  0.17130000000E+03  0.17130000000E+03 0.  1.
       11    1    1    2    0    0 -0.54618043081E-02 -0.56454520561E-02  0.96943850807E+00  0.96947046607E+00  0.51109989000E-03 0. -1.
     -623    1    1    2    0    0  0.87215355639E-04 -0.43458681298E-03  0.30678388937E-03  0.17130000000E+03  0.17130000000E+03 0.  1.
      622    1    1    2    0    0  0.53745889525E-02  0.60800388692E-02  0.30302546767E+01  0.30305295344E+01  0.40000000000E-01 0. -1.
</event>
<event>
 5   0  0.7212170E+07  0.9118800E+02  0.7818608E-02  0.1180000E+00
       11   -1    0    0    0    0  0.00000000000E+00  0.00000000000E+00  0.39999999673E+01  0.40000000000E+01  0.51109989000E-03 0. -1.
     -623   -1    0    0    0    0  0.00000000000E+00  0.00000000000E+00  0.12525980253E-10  0.17130000000E+03  0.17130000000E+03 0.  1.
       11    1    1    2    0    0 -0.38623582499E-02 -0.52266979705E-02  0.68881649180E+00  0.68884733924E+00  0.51109989000E-03 0. -1.
     -623    1    1    2    0    0 -0.24850641392E-03  0.31620325934E-02  0.27565671907E-03  0.17130000003E+03  0.17130000000E+03 0.  1.
      622    1    1    2    0    0  0.41108646639E-02  0.20646653769E-02  0.33109078191E+01  0.33111526314E+01  0.40000000000E-01 0. -1.
</event>
<event>
 5   0  0.7212170E+07  0.9118800E+02  0.7818608E-02  0.1180000E+00
       11   -1    0    0    0    0  0.00000000000E+00  0.00000000000E+00  0.39999999673E+01  0.40000000000E+01  0.51109989000E-03 0.  1.
     -623   -1    0    0    0    0  0.00000000000E+00  0.00000000000E+00  0.12525980253E-10  0.17130000000E+03  0.17130000000E+03 0.  1.
       11    1    1    2    0    0 -0.44333444585E-03  0.23767830736E-02  0.84072881313E-02  0.87629538416E-02  0.51109989000E-03 0.  1.
     -623    1    1    2    0    0  0.99616285774E-03 -0.27283019193E-02  0.55615650915E-03  0.17130000003E+03  0.17130000000E+03 0.  1.
      622    1    1    2    0    0 -0.55282841196E-03  0.35151884585E-03  0.39910365230E+01  0.39912370209E+01  0.40000000000E-01 0.  1.
</event>
<event>
 5   0  0.7212170E+07  0.9118800E+02  0.7818608E-02  0.1180000E+00
       11   -1    0    0    0    0  0.00000000000E+00  0.00000000000E+00  0.39999999673E+01  0.40000000000E+01  0.51109989000E-03 0. -1.
     -623   -1    0    0    0    0  0.00000000000E+00  0.00000000000E+00  0.12525980253E-10  0.17130000000E+03  0.17130000000E+03 0. -1.
       11    1    1    2    0    0 -0.33831626533E-02 -0.89446766017E-03  0.13338995559E+00  0.13343682902E+00  0.51109989000E-03 0. -1.
     -623    1    1    2    0    0  0.30277926553E-02 -0.75493362787E-03  0.25414517385E-03  0.17130000003E+03  0.17130000000E+03 0. -1.
      622    1    1    2    0    0  0.35536999807E-03  0.16494012880E-02  0.38663558665E+01  0.38665631423E+01  0.40000000000E-01 0. -1.
</event>
<event>
 5   0  0.7212170E+07  0.9118800E+02  0.7818608E-02  0.1180000E+00
       11   -1    0    0    0    0  0.00000000000E+00  0.00000000000E+00  0.39999999673E+01  0.40000000000E+01  0.51109989000E-03 0.  1.
     -623   -1    0    0    0    0  0.00000000000E+00  0.00000000000E+00  0.12525980253E-10  0.17130000000E+03  0.17130000000E+03 0. -1.
       11    1    1    2    0    0  0.10760920538E-01 -0.10963926288E-01  0.17147900021E+01  0.17148588915E+01  0.51109989000E-03 0.  1.
     -623    1    1    2    0    0  0.67874453755E-03  0.19078374803E-03  0.47301108069E-03  0.17130000000E+03  0.17130000000E+03 0. -1.
      622    1    1    2    0    0 -0.11439665076E-01  0.10773142540E-01  0.22847369547E+01  0.22851411070E+01  0.40000000000E-01 0. -1.
</event>
<event>
 5   0  0.7212170E+07  0.9118800E+02  0.7818608E-02  0.1180000E+00
       11   -1    0    0    0    0  0.00000000000E+00  0.00000000000E+00  0.39999999673E+01  0.40000000000E+01  0.51109989000E-03 0. -1.
     -623   -1    0    0    0    0  0.00000000000E+00  0.00000000000E+00  0.12525980253E-10  0.17130000000E+03  0.17130000000E+03 0.  1.
       11    1    1    2    0    0 -0.16108344220E-02 -0.14717615297E-02  0.68093922720E-01  0.68130788958E-01  0.51109989000E-03 0. -1.
     -623    1    1    2    0    0  0.43738569148E-05  0.49568779956E-03  0.24075467232E-03  0.17130000000E+03  0.17130000000E+03 0.  1.
      622    1    1    2    0    0  0.16064605650E-02  0.97607373000E-03  0.39316652914E+01  0.39318692116E+01  0.40000000000E-01 0. -1.
</event>
<event>
 5   0  0.7212170E+07  0.9118800E+02  0.7818608E-02  0.1180000E+00
       11   -1    0    0    0    0  0.00000000000E+00  0.00000000000E+00  0.39999999673E+01  0.40000000000E+01  0.51109989000E-03 0. -1.
     -623   -1    0    0    0    0  0.00000000000E+00  0.00000000000E+00  0.12525980253E-10  0.17130000000E+03  0.17130000000E+03 0.  1.
       11    1    1    2    0    0 -0.11116654169E-02 -0.11104380944E-02  0.22579415690E-01  0.22639790387E-01  0.51109989000E-03 0. -1.
     -623    1    1    2    0    0 -0.63532162201E-04  0.96167930061E-03  0.26166489662E-03  0.17130000000E+03  0.17130000000E+03 0.  1.
      622    1    1    2    0    0  0.11751975791E-02  0.14875879356E-03  0.39771588876E+01  0.39773602075E+01  0.40000000000E-01 0. -1.
</event>
<event>
 5   0  0.7212170E+07  0.9118800E+02  0.7818608E-02  0.1180000E+00
       11   -1    0    0    0    0  0.00000000000E+00  0.00000000000E+00  0.39999999673E+01  0.40000000000E+01  0.51109989000E-03 0.  1.
     -623   -1    0    0    0    0  0.00000000000E+00  0.00000000000E+00  0.12525980253E-10  0.17130000000E+03  0.17130000000E+03 0.  1.
       11    1    1    2    0    0  0.99240653153E-03 -0.19504016396E-02  0.66999239382E-01  0.67036916980E-01  0.51109989000E-03 0.  1.
     -623    1    1    2    0    0 -0.10869637144E-02  0.79806577905E-03  0.24123463277E-03  0.17130000001E+03  0.17130000000E+03 0.  1.
      622    1    1    2    0    0  0.94557182963E-04  0.11523358605E-02  0.39327594936E+01  0.39329630778E+01  0.40000000000E-01 0.  1.
</event>
<event>
 5   0  0.7212170E+07  0.9118800E+02  0.7818608E-02  0.1180000E+00
       11   -1    0    0    0    0  0.00000000000E+00  0.00000000000E+00  0.39999999673E+01  0.40000000000E+01  0.51109989000E-03 0. -1.
     -623   -1    0    0    0    0  0.00000000000E+00  0.00000000000E+00  0.12525980253E-10  0.17130000000E+03  0.17130000000E+03 0. -1.
       11    1    1    2    0    0 -0.89596374643E-02  0.35485278085E-04  0.44683742263E+00  0.44692753311E+00  0.51109989000E-03 0. -1.
     -623    1    1    2    0    0  0.94965653539E-02 -0.60762056639E-02  0.32078947520E-03  0.17130000037E+03  0.17130000000E+03 0. -1.
      622    1    1    2    0    0 -0.53692788933E-03  0.60407203856E-02  0.35528417551E+01  0.35530720955E+01  0.40000000000E-01 0. -1.
</event>
<event>
 5   0  0.7212170E+07  0.9118800E+02  0.7818608E-02  0.1180000E+00
       11   -1    0    0    0    0  0.00000000000E+00  0.00000000000E+00  0.39999999673E+01  0.40000000000E+01  0.51109989000E-03 0.  1.
     -623   -1    0    0    0    0  0.00000000000E+00  0.00000000000E+00  0.12525980253E-10  0.17130000000E+03  0.17130000000E+03 0. -1.
       11    1    1    2    0    0 -0.36509603215E-02  0.34742136015E-02  0.72795617475E-01  0.72971657636E-01  0.51109989000E-03 0.  1.
     -623    1    1    2    0    0  0.44480551075E-03 -0.75447337834E-03  0.38198257719E-03  0.17130000000E+03  0.17130000000E+03 0. -1.
      622    1    1    2    0    0  0.32061548107E-02 -0.27197402232E-02  0.39268223675E+01  0.39270283398E+01  0.40000000000E-01 0.  1.
</event>
<event>
 5   0  0.7212170E+07  0.9118800E+02  0.7818608E-02  0.1180000E+00
       11   -1    0    0    0    0  0.00000000000E+00  0.00000000000E+00  0.39999999673E+01  0.40000000000E+01  0.51109989000E-03 0.  1.
     -623   -1    0    0    0    0  0.00000000000E+00  0.00000000000E+00  0.12525980253E-10  0.17130000000E+03  0.17130000000E+03 0.  1.
       11    1    1    2    0    0 -0.26099552531E-01  0.13256201027E-01  0.95425235896E+00  0.95470138751E+00  0.51109989000E-03 0.  1.
     -623    1    1    2    0    0 -0.61521419069E-03  0.30467553654E-02  0.87257175180E-03  0.17130000003E+03  0.17130000000E+03 0.  1.
      622    1    1    2    0    0  0.26714766722E-01 -0.16302956392E-01  0.30448750367E+01  0.30452985821E+01  0.40000000000E-01 0.  1.
</event>
<event>
 5   0  0.7212170E+07  0.9118800E+02  0.7818608E-02  0.1180000E+00
       11   -1    0    0    0    0  0.00000000000E+00  0.00000000000E+00  0.39999999673E+01  0.40000000000E+01  0.51109989000E-03 0.  1.
     -623   -1    0    0    0    0  0.00000000000E+00  0.00000000000E+00  0.12525980253E-10  0.17130000000E+03  0.17130000000E+03 0. -1.
       11    1    1    2    0    0 -0.40535187656E-02  0.36072493096E-02  0.13213680042E+00  0.13224915315E+00  0.51109989000E-03 0.  1.
     -623    1    1    2    0    0  0.64108067094E-02  0.76047886620E-02  0.33642361160E-03  0.17130000029E+03  0.17130000000E+03 0. -1.
      622    1    1    2    0    0 -0.23572879429E-02 -0.11212037970E-01  0.38675267427E+01  0.38677505572E+01  0.40000000000E-01 0.  1.
</event>
<event>
 5   0  0.7212170E+07  0.9118800E+02  0.7818608E-02  0.1180000E+00
       11   -1    0    0    0    0  0.00000000000E+00  0.00000000000E+00  0.39999999673E+01  0.40000000000E+01  0.51109989000E-03 0.  1.
     -623   -1    0    0    0    0  0.00000000000E+00  0.00000000000E+00  0.12525980253E-10  0.17130000000E+03  0.17130000000E+03 0. -1.
       11    1    1    2    0    0 -0.91569970963E-02 -0.24562448975E-02  0.31813754004E+00  0.31827918459E+00  0.51109989000E-03 0.  1.
     -623    1    1    2    0    0 -0.39287455268E-04  0.12680981655E-02  0.37059088098E-03  0.17130000001E+03  0.17130000000E+03 0. -1.
      622    1    1    2    0    0  0.91962845515E-02  0.11881467316E-02  0.36814918378E+01  0.36817208116E+01  0.40000000000E-01 0.  1.
</event>
<event>
 5   0  0.7212170E+07  0.9118800E+02  0.7818608E-02  0.1180000E+00
       11   -1    0    0    0    0  0.00000000000E+00  0.00000000000E+00  0.39999999673E+01  0.40000000000E+01  0.51109989000E-03 0.  1.
     -623   -1    0    0    0    0  0.00000000000E+00  0.00000000000E+00  0.12525980253E-10  0.17130000000E+03  0.17130000000E+03 0.  1.
       11    1    1    2    0    0  0.36363752157E-01 -0.59188179255E-02  0.58517928213E+00  0.58633813481E+00  0.51109989000E-03 0.  1.
     -623    1    1    2    0    0 -0.16812203783E-01  0.21721381535E-02  0.14520762889E-02  0.17130000084E+03  0.17130000000E+03 0.  1.
      622    1    1    2    0    0 -0.19551548375E-01  0.37466797720E-02  0.34133686089E+01  0.34136610202E+01  0.40000000000E-01 0.  0.
</event>
<event>
 5   0  0.7212170E+07  0.9118800E+02  0.7818608E-02  0.1180000E+00
       11   -1    0    0    0    0  0.00000000000E+00  0.00000000000E+00  0.39999999673E+01  0.40000000000E+01  0.51109989000E-03 0.  1.
     -623   -1    0    0    0    0  0.00000000000E+00  0.00000000000E+00  0.12525980253E-10  0.17130000000E+03  0.17130000000E+03 0. -1.
       11    1    1    2    0    0 -0.45035782398E-03  0.20489591420E-03  0.79289596425E-02  0.79608057768E-02  0.51109989000E-03 0.  1.
     -623    1    1    2    0    0  0.23549160680E-02  0.15153232654E-02  0.23306540282E-03  0.17130000002E+03  0.17130000000E+03 0. -1.
      622    1    1    2    0    0 -0.19045582430E-02 -0.17202191790E-02  0.39918379407E+01  0.39920391695E+01  0.40000000000E-01 0.  1.
</event>
<event>
 5   0  0.7212170E+07  0.9118800E+02  0.7818608E-02  0.1180000E+00
       11   -1    0    0    0    0  0.00000000000E+00  0.00000000000E+00  0.39999999673E+01  0.40000000000E+01  0.51109989000E-03 0. -1.
     -623   -1    0    0    0    0  0.00000000000E+00  0.00000000000E+00  0.12525980253E-10  0.17130000000E+03  0.17130000000E+03 0. -1.
       11    1    1    2    0    0 -0.55603831091E-02 -0.50547473079E-02  0.31543249716E-01  0.32430019371E-01  0.51109989000E-03 0. -1.
     -623    1    1    2    0    0  0.48922438889E-02 -0.26765486214E-02  0.10960605143E-02  0.17130000009E+03  0.17130000000E+03 0. -1.
      622    1    1    2    0    0  0.66813922018E-03  0.77312959293E-02  0.39673606571E+01  0.39675698863E+01  0.40000000000E-01 0. -1.
</event>
<event>
 5   0  0.7212170E+07  0.9118800E+02  0.7818608E-02  0.1180000E+00
       11   -1    0    0    0    0  0.00000000000E+00  0.00000000000E+00  0.39999999673E+01  0.40000000000E+01  0.51109989000E-03 0. -1.
     -623   -1    0    0    0    0  0.00000000000E+00  0.00000000000E+00  0.12525980253E-10  0.17130000000E+03  0.17130000000E+03 0. -1.
       11    1    1    2    0    0 -0.16610292995E-01 -0.56384281248E-02  0.20139713666E+01  0.20140478197E+01  0.51109989000E-03 0. -1.
     -623    1    1    2    0    0 -0.95883244128E-02 -0.90156990016E-02  0.70672834577E-03  0.17130000051E+03  0.17130000000E+03 0. -1.
      622    1    1    2    0    0  0.26198617409E-01  0.14654127127E-01  0.19853218728E+01  0.19859516735E+01  0.40000000000E-01 0.  0.
</event>
<event>
 5   0  0.7212170E+07  0.9118800E+02  0.7818608E-02  0.1180000E+00
       11   -1    0    0    0    0  0.00000000000E+00  0.00000000000E+00  0.39999999673E+01  0.40000000000E+01  0.51109989000E-03 0.  1.
     -623   -1    0    0    0    0  0.00000000000E+00  0.00000000000E+00  0.12525980253E-10  0.17130000000E+03  0.17130000000E+03 0. -1.
       11    1    1    2    0    0  0.28281711266E-03 -0.66328273575E-03  0.12203421563E-02  0.15067805357E-02  0.51109989000E-03 0.  1.
     -623    1    1    2    0    0  0.65188541727E-03 -0.73814719409E-03  0.48684449611E-03  0.17130000000E+03  0.17130000000E+03 0. -1.
      622    1    1    2    0    0 -0.93470252993E-03  0.14014299299E-02  0.39982927808E+01  0.39984932160E+01  0.40000000000E-01 0.  1.
</event>
<event>
 5   0  0.7212170E+07  0.9118800E+02  0.7818608E-02  0.1180000E+00
       11   -1    0    0    0    0  0.00000000000E+00  0.00000000000E+00  0.39999999673E+01  0.40000000000E+01  0.51109989000E-03 0.  1.
     -623   -1    0    0    0    0  0.00000000000E+00  0.00000000000E+00  0.12525980253E-10  0.17130000000E+03  0.17130000000E+03 0.  1.
       11    1    1    2    0    0  0.13011762783E-01 -0.11022820460E-02  0.28415305943E+00  0.28445341166E+00  0.51109989000E-03 0.  1.
     -623    1    1    2    0    0 -0.35628142911E-03  0.17707617991E-02  0.53726201186E-03  0.17130000001E+03  0.17130000000E+03 0.  1.
      622    1    1    2    0    0 -0.12655481354E-01 -0.66847975282E-03  0.37153096454E+01  0.37155465774E+01  0.40000000000E-01 0.  1.
</event>
<event>
 5   0  0.7212170E+07  0.9118800E+02  0.7818608E-02  0.1180000E+00
       11   -1    0    0    0    0  0.00000000000E+00  0.00000000000E+00  0.39999999673E+01  0.40000000000E+01  0.51109989000E-03 0.  1.
     -623   -1    0    0    0    0  0.00000000000E+00  0.00000000000E+00  0.12525980253E-10  0.17130000000E+03  0.17130000000E+03 0.  1.
       11    1    1    2    0    0 -0.66568464434E-03  0.10033665576E-02 -0.58083218857E-03  0.14312475759E-02  0.51109989000E-03 0.  1.
     -623    1    1    2    0    0  0.69117789103E-02  0.20349535860E-02  0.22183227191E-02  0.17130000017E+03  0.17130000000E+03 0.  1.
      622    1    1    2    0    0 -0.62460942662E-02 -0.30383201437E-02  0.39983624770E+01  0.39985685867E+01  0.40000000000E-01 0.  1.
</event>
<event>
 5   0  0.7212170E+07  0.9118800E+02  0.7818608E-02  0.1180000E+00
       11   -1    0    0    0    0  0.00000000000E+00  0.00000000000E+00  0.39999999673E+01  0.40000000000E+01  0.51109989000E-03 0. -1.
     -623   -1    0    0    0    0  0.00000000000E+00  0.00000000000E+00  0.12525980253E-10  0.17130000000E+03  0.17130000000E+03 0.  1.
       11    1    1    2    0    0  0.19358233695E-03 -0.28841441644E-04  0.11851642762E-01  0.11864272637E-01  0.51109989000E-03 0. -1.
     -623    1    1    2    0    0 -0.22617756848E-03 -0.97409924742E-04  0.21319969958E-03  0.17130000000E+03  0.17130000000E+03 0.  1.
      622    1    1    2    0    0  0.32595231571E-04  0.12625136640E-03  0.39879351257E+01  0.39881357278E+01  0.40000000000E-01 0. -1.
</event>
<event>
 5   0  0.7212170E+07  0.9118800E+02  0.7818608E-02  0.1180000E+00
       11   -1    0    0    0    0  0.00000000000E+00  0.00000000000E+00  0.39999999673E+01  0.40000000000E+01  0.51109989000E-03 0.  1.
     -623   -1    0    0    0    0  0.00000000000E+00  0.00000000000E+00  0.12525980253E-10  0.17130000000E+03  0.17130000000E+03 0.  1.
       11    1    1    2    0    0  0.14338184316E-02  0.80343500715E-03  0.33585552395E-02  0.37739183219E-02  0.51109989000E-03 0.  1.
     -623    1    1    2    0    0 -0.29478519022E-02  0.44683508145E-04  0.61592763424E-03  0.17130000003E+03  0.17130000000E+03 0.  1.
      622    1    1    2    0    0  0.15140334708E-02 -0.84811851530E-03  0.39960254848E+01  0.39962260555E+01  0.40000000000E-01 0.  1.
</event>
<event>
 5   0  0.7212170E+07  0.9118800E+02  0.7818608E-02  0.1180000E+00
       11   -1    0    0    0    0  0.00000000000E+00  0.00000000000E+00  0.39999999673E+01  0.40000000000E+01  0.51109989000E-03 0. -1.
     -623   -1    0    0    0    0  0.00000000000E+00  0.00000000000E+00  0.12525980253E-10  0.17130000000E+03  0.17130000000E+03 0. -1.
       11    1    1    2    0    0  0.18103786643E-01  0.53422499218E-02  0.54740878761E+00  0.54773435961E+00  0.51109989000E-03 0. -1.
     -623    1    1    2    0    0 -0.12912891112E-02 -0.32665773119E-02  0.59888146361E-03  0.17130000004E+03  0.17130000000E+03 0. -1.
      622    1    1    2    0    0 -0.16812497532E-01 -0.20756726094E-02  0.34519922989E+01  0.34522656040E+01  0.40000000000E-01 0.  0.
</event>
<event>
 5   0  0.7212170E+07  0.9118800E+02  0.7818608E-02  0.1180000E+00
       11   -1    0    0    0    0  0.00000000000E+00  0.00000000000E+00  0.39999999673E+01  0.40000000000E+01  0.51109989000E-03 0.  1.
     -623   -1    0    0    0    0  0.00000000000E+00  0.00000000000E+00  0.12525980253E-10  0.17130000000E+03  0.17130000000E+03 0.  1.
       11    1    1    2    0    0  0.69657814546E-02 -0.48330293451E-03  0.99825123887E-01  0.10007033664E+00  0.51109989000E-03 0.  1.
     -623    1    1    2    0    0  0.63255586038E-03  0.50827279897E-03  0.45772244395E-03  0.17130000000E+03  0.17130000000E+03 0.  1.
      622    1    1    2    0    0 -0.75983373152E-02 -0.24969864638E-04  0.38997171224E+01  0.38999296622E+01  0.40000000000E-01 0.  1.
</event>
<event>
 5   0  0.7212170E+07  0.9118800E+02  0.7818608E-02  0.1180000E+00
       11   -1    0    0    0    0  0.00000000000E+00  0.00000000000E+00  0.39999999673E+01  0.40000000000E+01  0.51109989000E-03 0.  1.
     -623   -1    0    0    0    0  0.00000000000E+00  0.00000000000E+00  0.12525980253E-10  0.17130000000E+03  0.17130000000E+03 0. -1.
       11    1    1    2    0    0 -0.77723435890E-03 -0.29173585641E-03  0.46005997391E-03  0.10779987642E-02  0.51109989000E-03 0.  1.
     -623    1    1    2    0    0  0.19738342323E-02 -0.11722650319E-04  0.81816894903E-03  0.17130000001E+03  0.17130000000E+03 0. -1.
      622    1    1    2    0    0 -0.11965998735E-02  0.30345850673E-03  0.39987217385E+01  0.39989219880E+01  0.40000000000E-01 0.  1.
</event>
<event>
 5   0  0.7212170E+07  0.9118800E+02  0.7818608E-02  0.1180000E+00
       11   -1    0    0    0    0  0.00000000000E+00  0.00000000000E+00  0.39999999673E+01  0.40000000000E+01  0.51109989000E-03 0. -1.
     -623   -1    0    0    0    0  0.00000000000E+00  0.00000000000E+00  0.12525980253E-10  0.17130000000E+03  0.17130000000E+03 0.  1.
       11    1    1    2    0    0 -0.38966576304E-02 -0.61370391470E-02  0.29754099965E+00  0.29763023181E+00  0.51109989000E-03 0. -1.
     -623    1    1    2    0    0  0.73723754762E-02  0.59945492539E-02  0.30718177906E-03  0.17130000026E+03  0.17130000000E+03 0.  1.
      622    1    1    2    0    0 -0.34757178478E-02  0.14248989148E-03  0.37021517870E+01  0.37023695055E+01  0.40000000000E-01 0. -1.
</event>
<event>
 5   0  0.7212170E+07  0.9118800E+02  0.7818608E-02  0.1180000E+00
       11   -1    0    0    0    0  0.00000000000E+00  0.00000000000E+00  0.39999999673E+01  0.40000000000E+01  0.51109989000E-03 0. -1.
     -623   -1    0    0    0    0  0.00000000000E+00  0.00000000000E+00  0.12525980253E-10  0.17130000000E+03  0.17130000000E+03 0.  1.
       11    1    1    2    0    0 -0.74442367613E-02 -0.21240682111E-02  0.71522915527E-01  0.71942456139E-01  0.51109989000E-03 0. -1.
     -623    1    1    2    0    0  0.53802208894E-02  0.39776426707E-02  0.62428773033E-03  0.17130000013E+03  0.17130000000E+03 0.  1.
      622    1    1    2    0    0  0.20640158722E-02 -0.18535744594E-02  0.39278527639E+01  0.39280574118E+01  0.40000000000E-01 0. -1.
</event>
<event>
 5   0  0.7212170E+07  0.9118800E+02  0.7818608E-02  0.1180000E+00
       11   -1    0    0    0    0  0.00000000000E+00  0.00000000000E+00  0.39999999673E+01  0.40000000000E+01  0.51109989000E-03 0. -1.
     -623   -1    0    0    0    0  0.00000000000E+00  0.00000000000E+00  0.12525980253E-10  0.17130000000E+03  0.17130000000E+03 0. -1.
       11    1    1    2    0    0 -0.16589028911E-01  0.16183449683E-01  0.83453145448E+00  0.83485334620E+00  0.51109989000E-03 0. -1.
     -623    1    1    2    0    0  0.94456259652E-03 -0.57277910089E-06  0.65466672414E-03  0.17130000000E+03  0.17130000000E+03 0. -1.
      622    1    1    2    0    0  0.15644466314E-01 -0.16182876904E-01  0.31648138470E+01  0.31651466508E+01  0.40000000000E-01 0.  0.
</event>
<event>
 5   0  0.7212170E+07  0.9118800E+02  0.7818608E-02  0.1180000E+00
       11   -1    0    0    0    0  0.00000000000E+00  0.00000000000E+00  0.39999999673E+01  0.40000000000E+01  0.51109989000E-03 0.  1.
     -623   -1    0    0    0    0  0.00000000000E+00  0.00000000000E+00  0.12525980253E-10  0.17130000000E+03  0.17130000000E+03 0. -1.
       11    1    1    2    0    0  0.10512323962E-02  0.13164145740E-02  0.58744629957E-01  0.58771003129E-01  0.51109989000E-03 0.  1.
     -623    1    1    2    0    0 -0.36551832771E-03 -0.78928644992E-03  0.22942539834E-03  0.17130000000E+03  0.17130000000E+03 0. -1.
      622    1    1    2    0    0 -0.68571406864E-03 -0.52712812436E-03  0.39410259107E+01  0.39412289932E+01  0.40000000000E-01 0.  1.
</event>
<event>
 5   0  0.7212170E+07  0.9118800E+02  0.7818608E-02  0.1180000E+00
       11   -1    0    0    0    0  0.00000000000E+00  0.00000000000E+00  0.39999999673E+01  0.40000000000E+01  0.51109989000E-03 0. -1.
     -623   -1    0    0    0    0  0.00000000000E+00  0.00000000000E+00  0.12525980253E-10  0.17130000000E+03  0.17130000000E+03 0.  1.
       11    1    1    2    0    0  0.52481023898E-02 -0.10699464099E-01  0.13332450634E+01  0.13332984217E+01  0.51109989000E-03 0. -1.
     -623    1    1    2    0    0  0.17958221085E-03  0.60523479443E-04  0.38008824675E-03  0.17130000000E+03  0.17130000000E+03 0.  1.
      622    1    1    2    0    0 -0.54276846007E-02  0.10638940619E-01  0.26663748160E+01  0.26667015780E+01  0.40000000000E-01 0.  1.
</event>
<event>
 5   0  0.7212170E+07  0.9118800E+02  0.7818608E-02  0.1180000E+00
       11   -1    0    0    0    0  0.00000000000E+00  0.00000000000E+00  0.39999999673E+01  0.40000000000E+01  0.51109989000E-03 0. -1.
     -623   -1    0    0    0    0  0.00000000000E+00  0.00000000000E+00  0.12525980253E-10  0.17130000000E+03  0.17130000000E+03 0. -1.
       11    1    1    2    0    0 -0.82710399051E-02 -0.59619058120E-02  0.38204731910E+00  0.38218368578E+00  0.51109989000E-03 0. -1.
     -623    1    1    2    0    0  0.23216246897E-05 -0.47700760025E-03  0.37264992011E-03  0.17130000000E+03  0.17130000000E+03 0. -1.
      622    1    1    2    0    0  0.82687182804E-02  0.64389134122E-02  0.36175799986E+01  0.36178163134E+01  0.40000000000E-01 0. -1.
</event>
<event>
 5   0  0.7212170E+07  0.9118800E+02  0.7818608E-02  0.1180000E+00
       11   -1    0    0    0    0  0.00000000000E+00  0.00000000000E+00  0.39999999673E+01  0.40000000000E+01  0.51109989000E-03 0.  1.
     -623   -1    0    0    0    0  0.00000000000E+00  0.00000000000E+00  0.12525980253E-10  0.17130000000E+03  0.17130000000E+03 0. -1.
       11    1    1    2    0    0 -0.53409919373E-02  0.73041846068E-02  0.99313865097E-01  0.99726537748E-01  0.51109989000E-03 0.  1.
     -623    1    1    2    0    0  0.42218577952E-02  0.21732203977E-03  0.62522594108E-03  0.17130000005E+03  0.17130000000E+03 0. -1.
      622    1    1    2    0    0  0.11191341417E-02 -0.75215066466E-02  0.39000608766E+01  0.39002734093E+01  0.40000000000E-01 0.  1.
</event>
<event>
 5   0  0.7212170E+07  0.9118800E+02  0.7818608E-02  0.1180000E+00
       11   -1    0    0    0    0  0.00000000000E+00  0.00000000000E+00  0.39999999673E+01  0.40000000000E+01  0.51109989000E-03 0.  1.
     -623   -1    0    0    0    0  0.00000000000E+00  0.00000000000E+00  0.12525980253E-10  0.17130000000E+03  0.17130000000E+03 0.  1.
       11    1    1    2    0    0 -0.32476232310E-01  0.29218347176E-02  0.13494313626E+01  0.13498253614E+01  0.51109989000E-03 0.  1.
     -623    1    1    2    0    0 -0.24817705790E-02  0.48791265766E-02  0.93802282460E-03  0.17130000009E+03  0.17130000000E+03 0.  1.
      622    1    1    2    0    0  0.34958002889E-01 -0.78009612946E-02  0.26496305823E+01  0.26501745489E+01  0.40000000000E-01 0. -1.
</event>
<event>
 5   0  0.7212170E+07  0.9118800E+02  0.7818608E-02  0.1180000E+00
       11   -1    0    0    0    0  0.00000000000E+00  0.00000000000E+00  0.39999999673E+01  0.40000000000E+01  0.51109989000E-03 0.  1.
     -623   -1    0    0    0    0  0.00000000000E+00  0.00000000000E+00  0.12525980253E-10  0.17130000000E+03  0.17130000000E+03 0. -1.
       11    1    1    2    0    0 -0.15240284340E-01  0.14251913075E-01  0.55605820118E+00  0.55644978895E+00  0.51109989000E-03 0.  1.
     -623    1    1    2    0    0 -0.89273248556E-03 -0.16602066782E-01  0.66328587425E-03  0.17130000081E+03  0.17130000000E+03 0. -1.
      622    1    1    2    0    0  0.16133016825E-01  0.23501537108E-02  0.34432784811E+01  0.34435494038E+01  0.40000000000E-01 0.  1.
</event>
<event>
 5   0  0.7212170E+07  0.9118800E+02  0.7818608E-02  0.1180000E+00
       11   -1    0    0    0    0  0.00000000000E+00  0.00000000000E+00  0.39999999673E+01  0.40000000000E+01  0.51109989000E-03 0. -1.
     -623   -1    0    0    0    0  0.00000000000E+00  0.00000000000E+00  0.12525980253E-10  0.17130000000E+03  0.17130000000E+03 0. -1.
       11    1    1    2    0    0  0.40201586668E-03 -0.53635006821E-02  0.87634925356E-02  0.10295085276E-01  0.51109989000E-03 0. -1.
     -623    1    1    2    0    0  0.17128030919E-02  0.92871695842E-02  0.17348403282E-02  0.17130000027E+03  0.17130000000E+03 0. -1.
      622    1    1    2    0    0 -0.21148189586E-02 -0.39236689021E-02  0.39895016345E+01  0.39897046456E+01  0.40000000000E-01 0. -1.
</event>
<event>
 5   0  0.7212170E+07  0.9118800E+02  0.7818608E-02  0.1180000E+00
       11   -1    0    0    0    0  0.00000000000E+00  0.00000000000E+00  0.39999999673E+01  0.40000000000E+01  0.51109989000E-03 0. -1.
     -623   -1    0    0    0    0  0.00000000000E+00  0.00000000000E+00  0.12525980253E-10  0.17130000000E+03  0.17130000000E+03 0. -1.
       11    1    1    2    0    0  0.64515988665E-02 -0.11357839831E-02  0.64274199291E+00  0.64277557810E+00  0.51109989000E-03 0. -1.
     -623    1    1    2    0    0  0.30282288589E-02  0.96499359222E-03  0.28527228064E-03  0.17130000003E+03  0.17130000000E+03 0. -1.
      622    1    1    2    0    0 -0.94798277260E-02  0.17079039074E-03  0.33569727030E+01  0.33572243930E+01  0.40000000000E-01 0.  0.
</event>
<event>
 5   0  0.7212170E+07  0.9118800E+02  0.7818608E-02  0.1180000E+00
       11   -1    0    0    0    0  0.00000000000E+00  0.00000000000E+00  0.39999999673E+01  0.40000000000E+01  0.51109989000E-03 0. -1.
     -623   -1    0    0    0    0  0.00000000000E+00  0.00000000000E+00  0.12525980253E-10  0.17130000000E+03  0.17130000000E+03 0.  1.
       11    1    1    2    0    0 -0.33061045666E-02  0.61222262914E-03  0.21157827075E+00  0.21160560252E+00  0.51109989000E-03 0. -1.
     -623    1    1    2    0    0  0.34088367537E-02 -0.10881559587E-01  0.25277694606E-03  0.17130000038E+03  0.17130000000E+03 0.  1.
      622    1    1    2    0    0 -0.10273218657E-03  0.10269336956E-01  0.37881689190E+01  0.37883940171E+01  0.40000000000E-01 0. -1.
</event>
<event>
 5   0  0.7212170E+07  0.9118800E+02  0.7818608E-02  0.1180000E+00
       11   -1    0    0    0    0  0.00000000000E+00  0.00000000000E+00  0.39999999673E+01  0.40000000000E+01  0.51109989000E-03 0.  1.
     -623   -1    0    0    0    0  0.00000000000E+00  0.00000000000E+00  0.12525980253E-10  0.17130000000E+03  0.17130000000E+03 0.  1.
       11    1    1    2    0    0 -0.14095118572E-01 -0.31708404977E-02  0.98753659298E+00  0.98764240001E+00  0.51109989000E-03 0.  1.
     -623    1    1    2    0    0 -0.21127053627E-02  0.13659268873E-02  0.41552538774E-03  0.17130000002E+03  0.17130000000E+03 0.  1.
      622    1    1    2    0    0  0.16207823935E-01  0.18049136104E-02  0.30120478492E+01  0.30123575812E+01  0.40000000000E-01 0.  0.
</event>
<event>
 5   0  0.7212170E+07  0.9118800E+02  0.7818608E-02  0.1180000E+00
       11   -1    0    0    0    0  0.00000000000E+00  0.00000000000E+00  0.39999999673E+01  0.40000000000E+01  0.51109989000E-03 0. -1.
     -623   -1    0    0    0    0  0.00000000000E+00  0.00000000000E+00  0.12525980253E-10  0.17130000000E+03  0.17130000000E+03 0.  1.
       11    1    1    2    0    0 -0.55308823328E-04  0.31295217992E-02  0.95926629784E-01  0.95979041934E-01  0.51109989000E-03 0. -1.
     -623    1    1    2    0    0 -0.16328073206E-02 -0.51819133925E-03  0.25854895775E-03  0.17130000001E+03  0.17130000000E+03 0.  1.
      622    1    1    2    0    0  0.16881161450E-02 -0.26113304597E-02  0.39038147911E+01  0.39040209518E+01  0.40000000000E-01 0. -1.
</event>
<event>
 5   0  0.7212170E+07  0.9118800E+02  0.7818608E-02  0.1180000E+00
       11   -1    0    0    0    0  0.00000000000E+00  0.00000000000E+00  0.39999999673E+01  0.40000000000E+01  0.51109989000E-03 0.  1.
     -623   -1    0    0    0    0  0.00000000000E+00  0.00000000000E+00  0.12525980253E-10  0.17130000000E+03  0.17130000000E+03 0.  1.
       11    1    1    2    0    0 -0.60137460602E-03 -0.92446446941E-02  0.36552477381E+00  0.36564251202E+00  0.51109989000E-03 0.  1.
     -623    1    1    2    0    0  0.13655697510E-01  0.27153484095E-02  0.36771196994E-03  0.17130000057E+03  0.17130000000E+03 0.  1.
      622    1    1    2    0    0 -0.13054322906E-01  0.65292962842E-02  0.36341074822E+01  0.36343569223E+01  0.40000000000E-01 0.  1.
</event>
<event>
 5   0  0.7212170E+07  0.9118800E+02  0.7818608E-02  0.1180000E+00
       11   -1    0    0    0    0  0.00000000000E+00  0.00000000000E+00  0.39999999673E+01  0.40000000000E+01  0.51109989000E-03 0. -1.
     -623   -1    0    0    0    0  0.00000000000E+00  0.00000000000E+00  0.12525980253E-10  0.17130000000E+03  0.17130000000E+03 0.  1.
       11    1    1    2    0    0  0.18669459258E-02  0.22998402901E-02  0.21228595654E-01  0.21440364945E-01  0.51109989000E-03 0. -1.
     -623    1    1    2    0    0  0.35873041869E-03 -0.13129731448E-02  0.41357040823E-03  0.17130000001E+03  0.17130000000E+03 0.  1.
      622    1    1    2    0    0 -0.22256763446E-02 -0.98686714495E-03  0.39783578026E+01  0.39785596304E+01  0.40000000000E-01 0. -1.
</event>
<event>
 5   0  0.7212170E+07  0.9118800E+02  0.7818608E-02  0.1180000E+00
       11   -1    0    0    0    0  0.00000000000E+00  0.00000000000E+00  0.39999999673E+01  0.40000000000E+01  0.51109989000E-03 0. -1.
     -623   -1    0    0    0    0  0.00000000000E+00  0.00000000000E+00  0.12525980253E-10  0.17130000000E+03  0.17130000000E+03 0. -1.
       11    1    1    2    0    0 -0.22215723173E-02 -0.20657242600E-02  0.49952284031E-01  0.50046923015E-01  0.51109989000E-03 0. -1.
     -623    1    1    2    0    0 -0.27734266316E-03 -0.63324458797E-03  0.29885988540E-03  0.17130000000E+03  0.17130000000E+03 0. -1.
      622    1    1    2    0    0  0.24989149804E-02  0.26989688480E-02  0.39497488236E+01  0.39499530755E+01  0.40000000000E-01 0. -1.
</event>
<event>
 5   0  0.7212170E+07  0.9118800E+02  0.7818608E-02  0.1180000E+00
       11   -1    0    0    0    0  0.00000000000E+00  0.00000000000E+00  0.39999999673E+01  0.40000000000E+01  0.51109989000E-03 0.  1.
     -623   -1    0    0    0    0  0.00000000000E+00  0.00000000000E+00  0.12525980253E-10  0.17130000000E+03  0.17130000000E+03 0. -1.
       11    1    1    2    0    0  0.21004274722E-02  0.36807707097E-02  0.63119401659E-01  0.63263575282E-01  0.51109989000E-03 0.  1.
     -623    1    1    2    0    0 -0.55716382446E-02  0.16242144648E-03  0.35085777076E-03  0.17130000009E+03  0.17130000000E+03 0. -1.
      622    1    1    2    0    0  0.34712107727E-02 -0.38431921562E-02  0.39365297081E+01  0.39367363339E+01  0.40000000000E-01 0.  1.
</event>
<event>
 5   0  0.7212170E+07  0.9118800E+02  0.7818608E-02  0.1180000E+00
       11   -1    0    0    0    0  0.00000000000E+00  0.00000000000E+00  0.39999999673E+01  0.40000000000E+01  0.51109989000E-03 0.  1.
     -623   -1    0    0    0    0  0.00000000000E+00  0.00000000000E+00  0.12525980253E-10  0.17130000000E+03  0.17130000000E+03 0. -1.
       11    1    1    2    0    0  0.73128234783E-02  0.52518241714E-02  0.36838791050E-01  0.37926465607E-01  0.51109989000E-03 0.  1.
     -623    1    1    2    0    0 -0.23530296742E-02  0.10215112186E-02  0.12976568916E-02  0.17130000002E+03  0.17130000000E+03 0. -1.
      622    1    1    2    0    0 -0.49597938041E-02 -0.62733353900E-02  0.39618635195E+01  0.39620735103E+01  0.40000000000E-01 0.  1.
</event>
<event>
 5   0  0.7212170E+07  0.9118800E+02  0.7818608E-02  0.1180000E+00
       11   -1    0    0    0    0  0.00000000000E+00  0.00000000000E+00  0.39999999673E+01  0.40000000000E+01  0.51109989000E-03 0.  1.
     -623   -1    0    0    0    0  0.00000000000E+00  0.00000000000E+00  0.12525980253E-10  0.17130000000E+03  0.17130000000E+03 0. -1.
       11    1    1    2    0    0  0.18296589412E-02  0.60316449289E-03  0.50562591864E-01  0.50601861412E-01  0.51109989000E-03 0.  1.
     -623    1    1    2    0    0 -0.36877061937E-03  0.60341657081E-03  0.24226077115E-03  0.17130000000E+03  0.17130000000E+03 0. -1.
      622    1    1    2    0    0 -0.14608883220E-02 -0.12065810634E-02  0.39491951129E+01  0.39493981352E+01  0.40000000000E-01 0.  1.
</event>
<event>
 5   0  0.7212170E+07  0.9118800E+02  0.7818608E-02  0.1180000E+00
       11   -1    0    0    0    0  0.00000000000E+00  0.00000000000E+00  0.39999999673E+01  0.40000000000E+01  0.51109989000E-03 0.  1.
     -623   -1    0    0    0    0  0.00000000000E+00  0.00000000000E+00  0.12525980253E-10  0.17130000000E+03  0.17130000000E+03 0. -1.
       11    1    1    2    0    0  0.50136166836E-01 -0.18809257780E-01  0.12168559724E+01  0.12180337197E+01  0.51109989000E-03 0.  1.
     -623    1    1    2    0    0  0.47218601558E-01 -0.16929027752E-01  0.34065690603E-02  0.17130000738E+03  0.17130000000E+03 0. -1.
      622    1    1    2    0    0 -0.97354768394E-01  0.35738285532E-01  0.27797374259E+01  0.27819589021E+01  0.40000000000E-01 0.  1.
</event>
<event>
 5   0  0.7212170E+07  0.9118800E+02  0.7818608E-02  0.1180000E+00
       11   -1    0    0    0    0  0.00000000000E+00  0.00000000000E+00  0.39999999673E+01  0.40000000000E+01  0.51109989000E-03 0. -1.
     -623   -1    0    0    0    0  0.00000000000E+00  0.00000000000E+00  0.12525980253E-10  0.17130000000E+03  0.17130000000E+03 0.  1.
       11    1    1    2    0    0 -0.40565264440E-02 -0.18057980051E-02  0.71742166898E-02  0.84526280786E-02  0.51109989000E-03 0. -1.
     -623    1    1    2    0    0  0.62756432746E-03 -0.96934753750E-03  0.14812552799E-02  0.17130000001E+03  0.17130000000E+03 0.  1.
      622    1    1    2    0    0  0.34289621165E-02  0.27751455427E-02  0.39913444959E+01  0.39915473621E+01  0.40000000000E-01 0. -1.
</event>
<event>
 5   0  0.7212170E+07  0.9118800E+02  0.7818608E-02  0.1180000E+00
       11   -1    0    0    0    0  0.00000000000E+00  0.00000000000E+00  0.39999999673E+01  0.40000000000E+01  0.51109989000E-03 0. -1.
     -623   -1    0    0    0    0  0.00000000000E+00  0.00000000000E+00  0.12525980253E-10  0.17130000000E+03  0.17130000000E+03 0. -1.
       11    1    1    2    0    0  0.10322129940E-01  0.21641313180E-01  0.10301638339E+01  0.10304429527E+01  0.51109989000E-03 0. -1.
     -623    1    1    2    0    0 -0.31179137784E-02  0.19520947945E-02  0.65101531678E-03  0.17130000004E+03  0.17130000000E+03 0. -1.
      622    1    1    2    0    0 -0.72042161618E-02 -0.23593407974E-01  0.29691851178E+01  0.29695570063E+01  0.40000000000E-01 0. -1.
</event>
<event>
 5   0  0.7212170E+07  0.9118800E+02  0.7818608E-02  0.1180000E+00
       11   -1    0    0    0    0  0.00000000000E+00  0.00000000000E+00  0.39999999673E+01  0.40000000000E+01  0.51109989000E-03 0. -1.
     -623   -1    0    0    0    0  0.00000000000E+00  0.00000000000E+00  0.12525980253E-10  0.17130000000E+03  0.17130000000E+03 0. -1.
       11    1    1    2    0    0  0.67115818574E-03  0.67470006966E-02  0.49572017534E-01  0.50036173087E-01  0.51109989000E-03 0. -1.
     -623    1    1    2    0    0 -0.27673477580E-02 -0.63773513461E-02  0.66737751295E-03  0.17130000014E+03  0.17130000000E+03 0. -1.
      622    1    1    2    0    0  0.20961895727E-02 -0.36964934965E-03  0.39497605729E+01  0.39499636851E+01  0.40000000000E-01 0. -1.
</event>
<event>
 5   0  0.7212170E+07  0.9118800E+02  0.7818608E-02  0.1180000E+00
       11   -1    0    0    0    0  0.00000000000E+00  0.00000000000E+00  0.39999999673E+01  0.40000000000E+01  0.51109989000E-03 0.  1.
     -623   -1    0    0    0    0  0.00000000000E+00  0.00000000000E+00  0.12525980253E-10  0.17130000000E+03  0.17130000000E+03 0. -1.
       11    1    1    2    0    0 -0.13649576911E-02 -0.11258377103E-02  0.30490629160E-01  0.30546199595E-01  0.51109989000E-03 0.  1.
     -623    1    1    2    0    0 -0.57022469419E-04  0.52309601041E-03  0.25738345182E-03  0.17130000000E+03  0.17130000000E+03 0. -1.
      622    1    1    2    0    0  0.14219801606E-02  0.60274169976E-03  0.39692519555E+01  0.39694538002E+01  0.40000000000E-01 0.  1.
</event>
<event>
 5   0  0.7212170E+07  0.9118800E+02  0.7818608E-02  0.1180000E+00
       11   -1    0    0    0    0  0.00000000000E+00  0.00000000000E+00  0.39999999673E+01  0.40000000000E+01  0.51109989000E-03 0.  1.
     -623   -1    0    0    0    0  0.00000000000E+00  0.00000000000E+00  0.12525980253E-10  0.17130000000E+03  0.17130000000E+03 0.  1.
       11    1    1    2    0    0  0.11293495503E-02 -0.20393351226E-01  0.28605171622E+00  0.28678042084E+00  0.51109989000E-03 0.  1.
     -623    1    1    2    0    0 -0.23689396676E-02 -0.66805205702E-02  0.10431891638E-02  0.17130000015E+03  0.17130000000E+03 0.  1.
      622    1    1    2    0    0  0.12395901175E-02  0.27073871797E-01  0.37129050622E+01  0.37132194296E+01  0.40000000000E-01 0.  1.
</event>
<event>
 5   0  0.7212170E+07  0.9118800E+02  0.7818608E-02  0.1180000E+00
       11   -1    0    0    0    0  0.00000000000E+00  0.00000000000E+00  0.39999999673E+01  0.40000000000E+01  0.51109989000E-03 0. -1.
     -623   -1    0    0    0    0  0.00000000000E+00  0.00000000000E+00  0.12525980253E-10  0.17130000000E+03  0.17130000000E+03 0. -1.
       11    1    1    2    0    0 -0.26842062872E-01 -0.22565313942E-01  0.22216437845E+01  0.22219205783E+01  0.51109989000E-03 0. -1.
     -623    1    1    2    0    0 -0.19675003477E-01  0.19351305607E-01  0.13406120569E-02  0.17130000223E+03  0.17130000000E+03 0. -1.
      622    1    1    2    0    0  0.46517066349E-01  0.32140083354E-02  0.17770155707E+01  0.17780771935E+01  0.40000000000E-01 0.  0.
</event>
<event>
 5   0  0.7212170E+07  0.9118800E+02  0.7818608E-02  0.1180000E+00
       11   -1    0    0    0    0  0.00000000000E+00  0.00000000000E+00  0.39999999673E+01  0.40000000000E+01  0.51109989000E-03 0. -1.
     -623   -1    0    0    0    0  0.00000000000E+00  0.00000000000E+00  0.12525980253E-10  0.17130000000E+03  0.17130000000E+03 0. -1.
       11    1    1    2    0    0  0.47354390788E-02  0.97539432611E-03  0.18039927202E+01  0.18039992715E+01  0.51109989000E-03 0. -1.
     -623    1    1    2    0    0 -0.39711394266E-02 -0.14565850181E-02  0.37108586355E-03  0.17130000005E+03  0.17130000000E+03 0. -1.
      622    1    1    2    0    0 -0.76429965123E-03  0.48119069235E-03  0.21956361622E+01  0.21960006768E+01  0.40000000000E-01 0. -1.
</event>
<event>
 5   0  0.7212170E+07  0.9118800E+02  0.7818608E-02  0.1180000E+00
       11   -1    0    0    0    0  0.00000000000E+00  0.00000000000E+00  0.39999999673E+01  0.40000000000E+01  0.51109989000E-03 0.  1.
     -623   -1    0    0    0    0  0.00000000000E+00  0.00000000000E+00  0.12525980253E-10  0.17130000000E+03  0.17130000000E+03 0. -1.
       11    1    1    2    0    0  0.40140864331E-02 -0.24269328621E-02  0.10904472315E-01  0.11881566924E-01  0.51109989000E-03 0.  1.
     -623    1    1    2    0    0  0.18627325667E-02  0.12247605100E-02  0.11821928558E-02  0.17130000002E+03  0.17130000000E+03 0. -1.
      622    1    1    2    0    0 -0.58768189998E-02  0.12021723521E-02  0.39879133023E+01  0.39881184146E+01  0.40000000000E-01 0.  1.
</event>
<event>
 5   0  0.7212170E+07  0.9118800E+02  0.7818608E-02  0.1180000E+00
       11   -1    0    0    0    0  0.00000000000E+00  0.00000000000E+00  0.39999999673E+01  0.40000000000E+01  0.51109989000E-03 0. -1.
     -623   -1    0    0    0    0  0.00000000000E+00  0.00000000000E+00  0.12525980253E-10  0.17130000000E+03  0.17130000000E+03 0. -1.
       11    1    1    2    0    0  0.11903844819E-01  0.30825252054E-02  0.99393324174E-01  0.10015237190E+00  0.51109989000E-03 0. -1.
     -623    1    1    2    0    0 -0.30547737980E-03  0.20556102661E-02  0.98480517980E-03  0.17130000002E+03  0.17130000000E+03 0. -1.
      622    1    1    2    0    0 -0.11598367440E-01 -0.51381354714E-02  0.38996218378E+01  0.38998476125E+01  0.40000000000E-01 0. -1.
</event>
<event>
 5   0  0.7212170E+07  0.9118800E+02  0.7818608E-02  0.1180000E+00
       11   -1    0    0    0    0  0.00000000000E+00  0.00000000000E+00  0.39999999673E+01  0.40000000000E+01  0.51109989000E-03 0.  1.
     -623   -1    0    0    0    0  0.00000000000E+00  0.00000000000E+00  0.12525980253E-10  0.17130000000E+03  0.17130000000E+03 0. -1.
       11    1    1    2    0    0  0.56466086576E-03 -0.24114782793E-02  0.18464570859E+00  0.18466302552E+00  0.51109989000E-03 0.  1.
     -623    1    1    2    0    0  0.13792053574E-03  0.28352221716E-03  0.22762867372E-03  0.17130000000E+03  0.17130000000E+03 0. -1.
      622    1    1    2    0    0 -0.70258140148E-03  0.21279560622E-02  0.38151266295E+01  0.38153369734E+01  0.40000000000E-01 0.  1.
</event>
<event>
 5   0  0.7212170E+07  0.9118800E+02  0.7818608E-02  0.1180000E+00
       11   -1    0    0    0    0  0.00000000000E+00  0.00000000000E+00  0.39999999673E+01  0.40000000000E+01  0.51109989000E-03 0. -1.
     -623   -1    0    0    0    0  0.00000000000E+00  0.00000000000E+00  0.12525980253E-10  0.17130000000E+03  0.17130000000E+03 0. -1.
       11    1    1    2    0    0 -0.12852325875E-01 -0.55864622767E-02  0.52109878757E-01  0.53963798313E-01  0.51109989000E-03 0. -1.
     -623    1    1    2    0    0  0.20768133385E-02 -0.80468175526E-03  0.20765434601E-02  0.17130000003E+03  0.17130000000E+03 0. -1.
      622    1    1    2    0    0  0.10775512536E-01  0.63911440320E-02  0.39458135453E+01  0.39460361748E+01  0.40000000000E-01 0. -1.
</event>
<event>
 5   0  0.7212170E+07  0.9118800E+02  0.7818608E-02  0.1180000E+00
       11   -1    0    0    0    0  0.00000000000E+00  0.00000000000E+00  0.39999999673E+01  0.40000000000E+01  0.51109989000E-03 0.  1.
     -623   -1    0    0    0    0  0.00000000000E+00  0.00000000000E+00  0.12525980253E-10  0.17130000000E+03  0.17130000000E+03 0.  1.
       11    1    1    2    0    0  0.78366876805E-03  0.51179784343E-03  0.34698816390E-02  0.36300654893E-02  0.51109989000E-03 0.  1.
     -623    1    1    2    0    0 -0.54607241243E-03 -0.70191425009E-03  0.36035216551E-03  0.17130000000E+03  0.17130000000E+03 0.  1.
      622    1    1    2    0    0 -0.23759635565E-03  0.19011640663E-03  0.39961697334E+01  0.39963699317E+01  0.40000000000E-01 0.  1.
</event>
<event>
 5   0  0.7212170E+07  0.9118800E+02  0.7818608E-02  0.1180000E+00
       11   -1    0    0    0    0  0.00000000000E+00  0.00000000000E+00  0.39999999673E+01  0.40000000000E+01  0.51109989000E-03 0. -1.
     -623   -1    0    0    0    0  0.00000000000E+00  0.00000000000E+00  0.12525980253E-10  0.17130000000E+03  0.17130000000E+03 0.  1.
       11    1    1    2    0    0  0.10176797909E-01 -0.37407363142E-02  0.36797502704E+00  0.36813508672E+00  0.51109989000E-03 0. -1.
     -623    1    1    2    0    0  0.11865413690E-03  0.23060069885E-03  0.39659669886E-03  0.17130000000E+03  0.17130000000E+03 0.  1.
      622    1    1    2    0    0 -0.10295452046E-01  0.35101356153E-02  0.36316283438E+01  0.36318649128E+01  0.40000000000E-01 0. -1.
</event>
<event>
 5   0  0.7212170E+07  0.9118800E+02  0.7818608E-02  0.1180000E+00
       11   -1    0    0    0    0  0.00000000000E+00  0.00000000000E+00  0.39999999673E+01  0.40000000000E+01  0.51109989000E-03 0.  1.
     -623   -1    0    0    0    0  0.00000000000E+00  0.00000000000E+00  0.12525980253E-10  0.17130000000E+03  0.17130000000E+03 0.  1.
       11    1    1    2    0    0 -0.39131260284E-02 -0.20792250188E-02  0.17165190524E-01  0.17735295904E-01  0.51109989000E-03 0.  1.
     -623    1    1    2    0    0  0.51369044388E-02 -0.13971271505E-02  0.77275846875E-03  0.17130000008E+03  0.17130000000E+03 0.  1.
      622    1    1    2    0    0 -0.12237784102E-02  0.34763521692E-02  0.39820620182E+01  0.39822646195E+01  0.40000000000E-01 0.  1.
</event>
<event>
 5   0  0.7212170E+07  0.9118800E+02  0.7818608E-02  0.1180000E+00
       11   -1    0    0    0    0  0.00000000000E+00  0.00000000000E+00  0.39999999673E+01  0.40000000000E+01  0.51109989000E-03 0. -1.
     -623   -1    0    0    0    0  0.00000000000E+00  0.00000000000E+00  0.12525980253E-10  0.17130000000E+03  0.17130000000E+03 0.  1.
       11    1    1    2    0    0 -0.14098520585E-02  0.22467443742E-02  0.44739145194E+00  0.44739960665E+00  0.51109989000E-03 0. -1.
     -623    1    1    2    0    0 -0.35772579365E-03 -0.19464562188E-03  0.23434948850E-03  0.17130000000E+03  0.17130000000E+03 0.  1.
      622    1    1    2    0    0  0.17675778523E-02 -0.20520987522E-02  0.35523741685E+01  0.35526003953E+01  0.40000000000E-01 0. -1.
</event>
<event>
 5   0  0.7212170E+07  0.9118800E+02  0.7818608E-02  0.1180000E+00
       11   -1    0    0    0    0  0.00000000000E+00  0.00000000000E+00  0.39999999673E+01  0.40000000000E+01  0.51109989000E-03 0. -1.
     -623   -1    0    0    0    0  0.00000000000E+00  0.00000000000E+00  0.12525980253E-10  0.17130000000E+03  0.17130000000E+03 0. -1.
       11    1    1    2    0    0  0.16038955088E-02 -0.97312488025E-02  0.21311305763E-01  0.23488351591E-01  0.51109989000E-03 0. -1.
     -623    1    1    2    0    0 -0.13192747283E-02 -0.53753904846E-02  0.24070125287E-02  0.17130000011E+03  0.17130000000E+03 0. -1.
      622    1    1    2    0    0 -0.28462078052E-03  0.15106639287E-01  0.39762816491E+01  0.39765115421E+01  0.40000000000E-01 0. -1.
</event>
<event>
 5   0  0.7212170E+07  0.9118800E+02  0.7818608E-02  0.1180000E+00
       11   -1    0    0    0    0  0.00000000000E+00  0.00000000000E+00  0.39999999673E+01  0.40000000000E+01  0.51109989000E-03 0.  1.
     -623   -1    0    0    0    0  0.00000000000E+00  0.00000000000E+00  0.12525980253E-10  0.17130000000E+03  0.17130000000E+03 0.  1.
       11    1    1    2    0    0  0.16289093456E-02  0.18698238788E-02  0.16697828443E-01  0.16888702875E-01  0.51109989000E-03 0.  1.
     -623    1    1    2    0    0 -0.74680300162E-03  0.10930856621E-02  0.39290018195E-03  0.17130000001E+03  0.17130000000E+03 0.  1.
      622    1    1    2    0    0 -0.88210634384E-03 -0.29629095411E-02  0.39829092394E+01  0.39831112922E+01  0.40000000000E-01 0.  1.
</event>
<event>
 5   0  0.7212170E+07  0.9118800E+02  0.7818608E-02  0.1180000E+00
       11   -1    0    0    0    0  0.00000000000E+00  0.00000000000E+00  0.39999999673E+01  0.40000000000E+01  0.51109989000E-03 0.  1.
     -623   -1    0    0    0    0  0.00000000000E+00  0.00000000000E+00  0.12525980253E-10  0.17130000000E+03  0.17130000000E+03 0. -1.
       11    1    1    2    0    0 -0.15622988066E-02  0.40456335521E-02  0.12028584037E+00  0.12036508026E+00  0.51109989000E-03 0.  1.
     -623    1    1    2    0    0  0.46625433930E-02 -0.82485348385E-02  0.28919545606E-03  0.17130000026E+03  0.17130000000E+03 0. -1.
      622    1    1    2    0    0 -0.31002445856E-02  0.42029012850E-02  0.38794249309E+01  0.38796346568E+01  0.40000000000E-01 0.  1.
</event>
<event>
 5   0  0.7212170E+07  0.9118800E+02  0.7818608E-02  0.1180000E+00
       11   -1    0    0    0    0  0.00000000000E+00  0.00000000000E+00  0.39999999673E+01  0.40000000000E+01  0.51109989000E-03 0.  1.
     -623   -1    0    0    0    0  0.00000000000E+00  0.00000000000E+00  0.12525980253E-10  0.17130000000E+03  0.17130000000E+03 0. -1.
       11    1    1    2    0    0  0.67960535853E-01 -0.60340519668E-01  0.11535054909E+01  0.11570802874E+01  0.51109989000E-03 0.  1.
     -623    1    1    2    0    0 -0.92813797860E-02 -0.44075473765E-01  0.63866964325E-02  0.17130000604E+03  0.17130000000E+03 0. -1.
      622    1    1    2    0    0 -0.58679156067E-01  0.10441599343E+00  0.28401077801E+01  0.28429136718E+01  0.40000000000E-01 0.  1.
</event>
<event>
 5   0  0.7212170E+07  0.9118800E+02  0.7818608E-02  0.1180000E+00
       11   -1    0    0    0    0  0.00000000000E+00  0.00000000000E+00  0.39999999673E+01  0.40000000000E+01  0.51109989000E-03 0. -1.
     -623   -1    0    0    0    0  0.00000000000E+00  0.00000000000E+00  0.12525980253E-10  0.17130000000E+03  0.17130000000E+03 0. -1.
       11    1    1    2    0    0  0.49850414923E-02 -0.29501062418E-04  0.19223803030E+00  0.19230333597E+00  0.51109989000E-03 0. -1.
     -623    1    1    2    0    0  0.15359144604E-02  0.28699724911E-02  0.28205440568E-03  0.17130000003E+03  0.17130000000E+03 0. -1.
      622    1    1    2    0    0 -0.65209559527E-02 -0.28404714285E-02  0.38074798825E+01  0.38076966327E+01  0.40000000000E-01 0.  0.
</event>
<event>
 5   0  0.7212170E+07  0.9118800E+02  0.7818608E-02  0.1180000E+00
       11   -1    0    0    0    0  0.00000000000E+00  0.00000000000E+00  0.39999999673E+01  0.40000000000E+01  0.51109989000E-03 0. -1.
     -623   -1    0    0    0    0  0.00000000000E+00  0.00000000000E+00  0.12525980253E-10  0.17130000000E+03  0.17130000000E+03 0. -1.
       11    1    1    2    0    0  0.17108133969E-01  0.92779169754E-02  0.59693414173E+00  0.59725153728E+00  0.51109989000E-03 0. -1.
     -623    1    1    2    0    0  0.38346392782E-02 -0.33232392371E-02  0.62221500570E-03  0.17130000008E+03  0.17130000000E+03 0. -1.
      622    1    1    2    0    0 -0.20942773247E-01 -0.59546777377E-02  0.34024436113E+01  0.34027483871E+01  0.40000000000E-01 0. -1.
</event>
<event>
 5   0  0.7212170E+07  0.9118800E+02  0.7818608E-02  0.1180000E+00
       11   -1    0    0    0    0  0.00000000000E+00  0.00000000000E+00  0.39999999673E+01  0.40000000000E+01  0.51109989000E-03 0. -1.
     -623   -1    0    0    0    0  0.00000000000E+00  0.00000000000E+00  0.12525980253E-10  0.17130000000E+03  0.17130000000E+03 0.  1.
       11    1    1    2    0    0 -0.12588738087E-02 -0.18711742119E-03  0.36059196107E-02  0.38579341016E-02  0.51109989000E-03 0. -1.
     -623    1    1    2    0    0 -0.16845304018E-03  0.16975284002E-03  0.45243566680E-03  0.17130000000E+03  0.17130000000E+03 0.  1.
      622    1    1    2    0    0  0.14273268489E-02  0.17364581127E-04  0.39959416131E+01  0.39961420662E+01  0.40000000000E-01 0. -1.
</event>
<event>
 5   0  0.7212170E+07  0.9118800E+02  0.7818608E-02  0.1180000E+00
       11   -1    0    0    0    0  0.00000000000E+00  0.00000000000E+00  0.39999999673E+01  0.40000000000E+01  0.51109989000E-03 0. -1.
     -623   -1    0    0    0    0  0.00000000000E+00  0.00000000000E+00  0.12525980253E-10  0.17130000000E+03  0.17130000000E+03 0. -1.
       11    1    1    2    0    0  0.41729416897E-02  0.82066084213E-03  0.10719300660E+00  0.10727855710E+00  0.51109989000E-03 0. -1.
     -623    1    1    2    0    0 -0.39261634880E-05  0.20186692886E-03  0.29340228996E-03  0.17130000000E+03  0.17130000000E+03 0. -1.
      622    1    1    2    0    0 -0.41690155262E-02 -0.10225277710E-02  0.38925135588E+01  0.38927214429E+01  0.40000000000E-01 0. -1.
</event>
<event>
 5   0  0.7212170E+07  0.9118800E+02  0.7818608E-02  0.1180000E+00
       11   -1    0    0    0    0  0.00000000000E+00  0.00000000000E+00  0.39999999673E+01  0.40000000000E+01  0.51109989000E-03 0. -1.
     -623   -1    0    0    0    0  0.00000000000E+00  0.00000000000E+00  0.12525980253E-10  0.17130000000E+03  0.17130000000E+03 0.  1.
       11    1    1    2    0    0  0.44730384634E-03  0.15091024437E-03  0.10378582049E-02  0.12494908498E-02  0.51109989000E-03 0. -1.
     -623    1    1    2    0    0 -0.46365603315E-04 -0.25387416693E-03  0.41168961977E-03  0.17130000000E+03  0.17130000000E+03 0.  1.
      622    1    1    2    0    0 -0.40093824301E-03  0.10296392261E-03  0.39985504203E+01  0.39987505092E+01  0.40000000000E-01 0. -1.
</event>
<event>
 5   0  0.7212170E+07  0.9118800E+02  0.7818608E-02  0.1180000E+00
       11   -1    0    0    0    0  0.00000000000E+00  0.00000000000E+00  0.39999999673E+01  0.40000000000E+01  0.51109989000E-03 0. -1.
     -623   -1    0    0    0    0  0.00000000000E+00  0.00000000000E+00  0.12525980253E-10  0.17130000000E+03  0.17130000000E+03 0.  1.
       11    1    1    2    0    0 -0.10245149612E-02  0.10195892446E-02  0.93252837410E-02  0.94504673472E-02  0.51109989000E-03 0. -1.
     -623    1    1    2    0    0  0.81799995273E-03 -0.16992845652E-02  0.32570356788E-03  0.17130000001E+03  0.17130000000E+03 0.  1.
      622    1    1    2    0    0  0.20651500851E-03  0.67969532053E-03  0.39903489799E+01  0.39905495218E+01  0.40000000000E-01 0. -1.
</event>
<event>
 5   0  0.7212170E+07  0.9118800E+02  0.7818608E-02  0.1180000E+00
       11   -1    0    0    0    0  0.00000000000E+00  0.00000000000E+00  0.39999999673E+01  0.40000000000E+01  0.51109989000E-03 0.  1.
     -623   -1    0    0    0    0  0.00000000000E+00  0.00000000000E+00  0.12525980253E-10  0.17130000000E+03  0.17130000000E+03 0.  1.
       11    1    1    2    0    0 -0.81963759273E-02 -0.39104604946E-02  0.18242789181E+00  0.18265450778E+00  0.51109989000E-03 0.  1.
     -623    1    1    2    0    0  0.19101367573E-02 -0.14453703669E-02  0.44510976067E-03  0.17130000002E+03  0.17130000000E+03 0.  1.
      622    1    1    2    0    0  0.62862391699E-02  0.53558308616E-02  0.38171269659E+01  0.38173454750E+01  0.40000000000E-01 0.  1.
</event>
<event>
 5   0  0.7212170E+07  0.9118800E+02  0.7818608E-02  0.1180000E+00
       11   -1    0    0    0    0  0.00000000000E+00  0.00000000000E+00  0.39999999673E+01  0.40000000000E+01  0.51109989000E-03 0.  1.
     -623   -1    0    0    0    0  0.00000000000E+00  0.00000000000E+00  0.12525980253E-10  0.17130000000E+03  0.17130000000E+03 0.  1.
       11    1    1    2    0    0  0.48728948871E-02  0.43643146202E-02  0.18369311090E+00  0.18381026239E+00  0.51109989000E-03 0.  1.
     -623    1    1    2    0    0 -0.46587546292E-03  0.11516527185E-02  0.33329407443E-03  0.17130000000E+03  0.17130000000E+03 0.  1.
      622    1    1    2    0    0 -0.44070194242E-02 -0.55159673386E-02  0.38159735622E+01  0.38161897326E+01  0.40000000000E-01 0.  1.
</event>
<event>
 5   0  0.7212170E+07  0.9118800E+02  0.7818608E-02  0.1180000E+00
       11   -1    0    0    0    0  0.00000000000E+00  0.00000000000E+00  0.39999999673E+01  0.40000000000E+01  0.51109989000E-03 0.  1.
     -623   -1    0    0    0    0  0.00000000000E+00  0.00000000000E+00  0.12525980253E-10  0.17130000000E+03  0.17130000000E+03 0. -1.
       11    1    1    2    0    0 -0.15302697371E-01  0.17075107051E-01  0.97827205531E+00  0.97854085620E+00  0.51109989000E-03 0.  1.
     -623    1    1    2    0    0 -0.30035728789E-03  0.16477695253E-02  0.63186926829E-03  0.17130000001E+03  0.17130000000E+03 0. -1.
      622    1    1    2    0    0  0.15603054659E-01 -0.18722876576E-01  0.30210960427E+01  0.30214591344E+01  0.40000000000E-01 0.  0.
</event>
<event>
 5   0  0.7212170E+07  0.9118800E+02  0.7818608E-02  0.1180000E+00
       11   -1    0    0    0    0  0.00000000000E+00  0.00000000000E+00  0.39999999673E+01  0.40000000000E+01  0.51109989000E-03 0.  1.
     -623   -1    0    0    0    0  0.00000000000E+00  0.00000000000E+00  0.12525980253E-10  0.17130000000E+03  0.17130000000E+03 0. -1.
       11    1    1    2    0    0  0.66045360004E-03  0.12844746606E-02  0.11548464300E-01  0.11649649132E-01  0.51109989000E-03 0.  1.
     -623    1    1    2    0    0 -0.14383353436E-02 -0.13140001125E-02  0.30182873587E-03  0.17130000001E+03  0.17130000000E+03 0. -1.
      622    1    1    2    0    0  0.77788174425E-03  0.29525452544E-04  0.39881496763E+01  0.39883503415E+01  0.40000000000E-01 0.  1.
</event>
<event>
 5   0  0.7212170E+07  0.9118800E+02  0.7818608E-02  0.1180000E+00
       11   -1    0    0    0    0  0.00000000000E+00  0.00000000000E+00  0.39999999673E+01  0.40000000000E+01  0.51109989000E-03 0. -1.
     -623   -1    0    0    0    0  0.00000000000E+00  0.00000000000E+00  0.12525980253E-10  0.17130000000E+03  0.17130000000E+03 0.  1.
       11    1    1    2    0    0  0.43407257576E-02  0.19379588116E-02  0.31088789813E-01  0.31454278875E-01  0.51109989000E-03 0. -1.
     -623    1    1    2    0    0 -0.15812968517E-01  0.46844744338E-01  0.89062240492E-03  0.17130000714E+03  0.17130000000E+03 0.  1.
      622    1    1    2    0    0  0.11472242761E-01 -0.48782703155E-01  0.39680205556E+01  0.39685385842E+01  0.40000000000E-01 0. -1.
</event>
<event>
 5   0  0.7212170E+07  0.9118800E+02  0.7818608E-02  0.1180000E+00
       11   -1    0    0    0    0  0.00000000000E+00  0.00000000000E+00  0.39999999673E+01  0.40000000000E+01  0.51109989000E-03 0. -1.
     -623   -1    0    0    0    0  0.00000000000E+00  0.00000000000E+00  0.12525980253E-10  0.17130000000E+03  0.17130000000E+03 0.  1.
       11    1    1    2    0    0  0.29734943916E-02 -0.94100262732E-02  0.14229431420E+01  0.14229774548E+01  0.51109989000E-03 0. -1.
     -623    1    1    2    0    0  0.63735150045E-03 -0.58800217754E-03  0.36666424535E-03  0.17130000000E+03  0.17130000000E+03 0.  1.
      622    1    1    2    0    0 -0.36108458919E-02  0.99980284506E-02  0.25766901603E+01  0.25770225418E+01  0.40000000000E-01 0. -1.
</event>
<event>
 5   0  0.7212170E+07  0.9118800E+02  0.7818608E-02  0.1180000E+00
       11   -1    0    0    0    0  0.00000000000E+00  0.00000000000E+00  0.39999999673E+01  0.40000000000E+01  0.51109989000E-03 0.  1.
     -623   -1    0    0    0    0  0.00000000000E+00  0.00000000000E+00  0.12525980253E-10  0.17130000000E+03  0.17130000000E+03 0.  1.
       11    1    1    2    0    0  0.21348539055E-02  0.13132480593E-02  0.90377545813E-01  0.90413739177E-01  0.51109989000E-03 0.  1.
     -623    1    1    2    0    0 -0.73372034505E-03  0.17840924097E-03  0.24132880878E-03  0.17130000000E+03  0.17130000000E+03 0.  1.
      622    1    1    2    0    0 -0.14011335604E-02 -0.14916573002E-02  0.39093810930E+01  0.39095862592E+01  0.40000000000E-01 0.  1.
</event>
<event>
 5   0  0.7212170E+07  0.9118800E+02  0.7818608E-02  0.1180000E+00
       11   -1    0    0    0    0  0.00000000000E+00  0.00000000000E+00  0.39999999673E+01  0.40000000000E+01  0.51109989000E-03 0. -1.
     -623   -1    0    0    0    0  0.00000000000E+00  0.00000000000E+00  0.12525980253E-10  0.17130000000E+03  0.17130000000E+03 0.  1.
       11    1    1    2    0    0 -0.55281935760E-02 -0.39383013315E-01  0.16754719529E+01  0.16759439456E+01  0.51109989000E-03 0. -1.
     -623    1    1    2    0    0  0.33599864780E-01  0.33837139988E-01  0.99903797334E-03  0.17130000664E+03  0.17130000000E+03 0.  1.
      622    1    1    2    0    0 -0.28071671208E-01  0.55458733227E-02  0.23235289769E+01  0.23240494147E+01  0.40000000000E-01 0. -1.
</event>
<event>
 5   0  0.7212170E+07  0.9118800E+02  0.7818608E-02  0.1180000E+00
       11   -1    0    0    0    0  0.00000000000E+00  0.00000000000E+00  0.39999999673E+01  0.40000000000E+01  0.51109989000E-03 0.  1.
     -623   -1    0    0    0    0  0.00000000000E+00  0.00000000000E+00  0.12525980253E-10  0.17130000000E+03  0.17130000000E+03 0. -1.
       11    1    1    2    0    0  0.51419777455E-03 -0.36324462886E-03  0.49301104508E-02  0.49963544876E-02  0.51109989000E-03 0.  1.
     -623    1    1    2    0    0 -0.11314232381E-03  0.24474087848E-03  0.26648885483E-03  0.17130000000E+03  0.17130000000E+03 0. -1.
      622    1    1    2    0    0 -0.40105545071E-03  0.11850375031E-03  0.39948033692E+01  0.39950036462E+01  0.40000000000E-01 0.  1.
</event>
<event>
 5   0  0.7212170E+07  0.9118800E+02  0.7818608E-02  0.1180000E+00
       11   -1    0    0    0    0  0.00000000000E+00  0.00000000000E+00  0.39999999673E+01  0.40000000000E+01  0.51109989000E-03 0.  1.
     -623   -1    0    0    0    0  0.00000000000E+00  0.00000000000E+00  0.12525980253E-10  0.17130000000E+03  0.17130000000E+03 0.  1.
       11    1    1    2    0    0  0.20304882587E-02  0.14080868744E-02  0.12312687798E-01  0.12568575700E-01  0.51109989000E-03 0.  1.
     -623    1    1    2    0    0 -0.55168682618E-03 -0.13079730845E-02  0.45677269927E-03  0.17130000001E+03  0.17130000000E+03 0.  1.
      622    1    1    2    0    0 -0.14788014325E-02 -0.10011378977E-03  0.39872305071E+01  0.39874314181E+01  0.40000000000E-01 0.  1.
</event>
<event>
 5   0  0.7212170E+07  0.9118800E+02  0.7818608E-02  0.1180000E+00
       11   -1    0    0    0    0  0.00000000000E+00  0.00000000000E+00  0.39999999673E+01  0.40000000000E+01  0.51109989000E-03 0.  1.
     -623   -1    0    0    0    0  0.00000000000E+00  0.00000000000E+00  0.12525980253E-10  0.17130000000E+03  0.17130000000E+03 0. -1.
       11    1    1    2    0    0 -0.17831278387E-01 -0.55769529483E-01  0.28888338465E+01  0.28894271835E+01  0.51109989000E-03 0.  1.
     -623    1    1    2    0    0  0.44176521064E-02 -0.40371871864E-02  0.30077742547E-02  0.17130000013E+03  0.17130000000E+03 0. -1.
      622    1    1    2    0    0  0.13413626280E-01  0.59806716669E-01  0.11081583467E+01  0.11105726856E+01  0.40000000000E-01 0. -1.
</event>
<event>
 5   0  0.7212170E+07  0.9118800E+02  0.7818608E-02  0.1180000E+00
       11   -1    0    0    0    0  0.00000000000E+00  0.00000000000E+00  0.39999999673E+01  0.40000000000E+01  0.51109989000E-03 0. -1.
     -623   -1    0    0    0    0  0.00000000000E+00  0.00000000000E+00  0.12525980253E-10  0.17130000000E+03  0.17130000000E+03 0. -1.
       11    1    1    2    0    0 -0.81419061784E-03 -0.21437471015E-01  0.13296034297E+01  0.13297765864E+01  0.51109989000E-03 0. -1.
     -623    1    1    2    0    0  0.22971964569E-02 -0.22235349414E-02  0.57802850178E-03  0.17130000003E+03  0.17130000000E+03 0. -1.
      622    1    1    2    0    0 -0.14830058393E-02  0.23661005956E-01  0.26698185095E+01  0.26702233832E+01  0.40000000000E-01 0. -1.
</event>
<event>
 5   0  0.7212170E+07  0.9118800E+02  0.7818608E-02  0.1180000E+00
       11   -1    0    0    0    0  0.00000000000E+00  0.00000000000E+00  0.39999999673E+01  0.40000000000E+01  0.51109989000E-03 0.  1.
     -623   -1    0    0    0    0  0.00000000000E+00  0.00000000000E+00  0.12525980253E-10  0.17130000000E+03  0.17130000000E+03 0.  1.
       11    1    1    2    0    0  0.29994815852E-02  0.78558208821E-03  0.35054074851E+00  0.35055483397E+00  0.51109989000E-03 0.  1.
     -623    1    1    2    0    0  0.27464032472E-02  0.15064693740E-02  0.23854301649E-03  0.17130000003E+03  0.17130000000E+03 0.  1.
      622    1    1    2    0    0 -0.57458848325E-02 -0.22920514622E-02  0.36492206759E+01  0.36494451373E+01  0.40000000000E-01 0.  1.
</event>
<event>
 5   0  0.7212170E+07  0.9118800E+02  0.7818608E-02  0.1180000E+00
       11   -1    0    0    0    0  0.00000000000E+00  0.00000000000E+00  0.39999999673E+01  0.40000000000E+01  0.51109989000E-03 0. -1.
     -623   -1    0    0    0    0  0.00000000000E+00  0.00000000000E+00  0.12525980253E-10  0.17130000000E+03  0.17130000000E+03 0.  1.
       11    1    1    2    0    0  0.54758225251E-03 -0.29985582724E-03  0.33869767846E-01  0.33879376572E-01  0.51109989000E-03 0. -1.
     -623    1    1    2    0    0 -0.20871738168E-03 -0.19613057536E-03  0.21133551521E-03  0.17130000000E+03  0.17130000000E+03 0.  1.
      622    1    1    2    0    0 -0.33886487072E-03  0.49598640269E-03  0.39659188659E+01  0.39661206250E+01  0.40000000000E-01 0. -1.
</event>
<event>
 5   0  0.7212170E+07  0.9118800E+02  0.7818608E-02  0.1180000E+00
       11   -1    0    0    0    0  0.00000000000E+00  0.00000000000E+00  0.39999999673E+01  0.40000000000E+01  0.51109989000E-03 0.  1.
     -623   -1    0    0    0    0  0.00000000000E+00  0.00000000000E+00  0.12525980253E-10  0.17130000000E+03  0.17130000000E+03 0.  1.
       11    1    1    2    0    0  0.42772244029E-03 -0.94359144653E-03  0.15647020730E-02  0.19449490942E-02  0.51109989000E-03 0.  1.
     -623    1    1    2    0    0  0.33218052203E-02  0.36495021520E-03  0.58215045948E-03  0.17130000003E+03  0.17130000000E+03 0.  1.
      622    1    1    2    0    0 -0.37495276604E-02  0.57864123134E-03  0.39978531146E+01  0.39980550171E+01  0.40000000000E-01 0.  1.
</event>
<event>
 5   0  0.7212170E+07  0.9118800E+02  0.7818608E-02  0.1180000E+00
       11   -1    0    0    0    0  0.00000000000E+00  0.00000000000E+00  0.39999999673E+01  0.40000000000E+01  0.51109989000E-03 0. -1.
     -623   -1    0    0    0    0  0.00000000000E+00  0.00000000000E+00  0.12525980253E-10  0.17130000000E+03  0.17130000000E+03 0.  1.
       11    1    1    2    0    0 -0.22683882734E-02  0.77690354204E-03  0.80724052400E-02  0.84364752076E-02  0.51109989000E-03 0. -1.
     -623    1    1    2    0    0  0.33128881977E-04 -0.10784289418E-02  0.56510669402E-03  0.17130000000E+03  0.17130000000E+03 0.  1.
      622    1    1    2    0    0  0.22352593915E-02  0.30152539966E-03  0.39913624549E+01  0.39915635199E+01  0.40000000000E-01 0. -1.
</event>
<event>
 5   0  0.7212170E+07  0.9118800E+02  0.7818608E-02  0.1180000E+00
       11   -1    0    0    0    0  0.00000000000E+00  0.00000000000E+00  0.39999999673E+01  0.40000000000E+01  0.51109989000E-03 0.  1.
     -623   -1    0    0    0    0  0.00000000000E+00  0.00000000000E+00  0.12525980253E-10  0.17130000000E+03  0.17130000000E+03 0. -1.
       11    1    1    2    0    0 -0.17102798620E-02  0.90302821411E-02  0.12909590319E+00  0.12942366281E+00  0.51109989000E-03 0.  1.
     -623    1    1    2    0    0 -0.64595951683E-02 -0.29520577520E-02  0.54796378366E-03  0.17130000015E+03  0.17130000000E+03 0. -1.
      622    1    1    2    0    0  0.81698750306E-02 -0.60782243889E-02  0.38703561006E+01  0.38705761893E+01  0.40000000000E-01 0.  1.
</event>
<event>
 5   0  0.7212170E+07  0.9118800E+02  0.7818608E-02  0.1180000E+00
       11   -1    0    0    0    0  0.00000000000E+00  0.00000000000E+00  0.39999999673E+01  0.40000000000E+01  0.51109989000E-03 0.  1.
     -623   -1    0    0    0    0  0.00000000000E+00  0.00000000000E+00  0.12525980253E-10  0.17130000000E+03  0.17130000000E+03 0.  1.
       11    1    1    2    0    0 -0.32656784079E-03 -0.44760769985E-02  0.12378522270E+01  0.12378604683E+01  0.51109989000E-03 0.  1.
     -623    1    1    2    0    0  0.31042603864E-03  0.91719006599E-05  0.30146731026E-03  0.17130000000E+03  0.17130000000E+03 0.  1.
      622    1    1    2    0    0  0.16141802262E-04  0.44669050978E-02  0.27618462716E+01  0.27621395297E+01  0.40000000000E-01 0.  1.
</event>
<event>
 5   0  0.7212170E+07  0.9118800E+02  0.7818608E-02  0.1180000E+00
       11   -1    0    0    0    0  0.00000000000E+00  0.00000000000E+00  0.39999999673E+01  0.40000000000E+01  0.51109989000E-03 0. -1.
     -623   -1    0    0    0    0  0.00000000000E+00  0.00000000000E+00  0.12525980253E-10  0.17130000000E+03  0.17130000000E+03 0. -1.
       11    1    1    2    0    0  0.99067782548E-02  0.52815316516E-03  0.50626227511E+00  0.50635972947E+00  0.51109989000E-03 0. -1.
     -623    1    1    2    0    0 -0.50335283033E-03  0.13411987605E-01  0.36741250665E-03  0.17130000053E+03  0.17130000000E+03 0. -1.
      622    1    1    2    0    0 -0.94034254244E-02 -0.13940140772E-01  0.34933702804E+01  0.34936397450E+01  0.40000000000E-01 0. -1.
</event>
<event>
 5   0  0.7212170E+07  0.9118800E+02  0.7818608E-02  0.1180000E+00
       11   -1    0    0    0    0  0.00000000000E+00  0.00000000000E+00  0.39999999673E+01  0.40000000000E+01  0.51109989000E-03 0.  1.
     -623   -1    0    0    0    0  0.00000000000E+00  0.00000000000E+00  0.12525980253E-10  0.17130000000E+03  0.17130000000E+03 0. -1.
       11    1    1    2    0    0  0.20789535144E-01  0.83543416884E-02  0.72299400694E+00  0.72334127152E+00  0.51109989000E-03 0.  1.
     -623    1    1    2    0    0  0.58804551915E-03  0.12751204767E-02  0.67529197993E-03  0.17130000001E+03  0.17130000000E+03 0. -1.
      622    1    1    2    0    0 -0.21377580663E-01 -0.96294621652E-02  0.32763306690E+01  0.32766587220E+01  0.40000000000E-01 0.  1.
</event>
<event>
 5   0  0.7212170E+07  0.9118800E+02  0.7818608E-02  0.1180000E+00
       11   -1    0    0    0    0  0.00000000000E+00  0.00000000000E+00  0.39999999673E+01  0.40000000000E+01  0.51109989000E-03 0.  1.
     -623   -1    0    0    0    0  0.00000000000E+00  0.00000000000E+00  0.12525980253E-10  0.17130000000E+03  0.17130000000E+03 0. -1.
       11    1    1    2    0    0  0.10095871501E-01  0.87428670566E-02  0.14485791367E+00  0.14547316152E+00  0.51109989000E-03 0.  1.
     -623    1    1    2    0    0 -0.40286051124E-01  0.95490124359E-02  0.98942105462E-03  0.17130000501E+03  0.17130000000E+03 0. -1.
      622    1    1    2    0    0  0.30190179621E-01 -0.18291879492E-01  0.38541526325E+01  0.38545218322E+01  0.40000000000E-01 0.  1.
</event>
<event>
 5   0  0.7212170E+07  0.9118800E+02  0.7818608E-02  0.1180000E+00
       11   -1    0    0    0    0  0.00000000000E+00  0.00000000000E+00  0.39999999673E+01  0.40000000000E+01  0.51109989000E-03 0. -1.
     -623   -1    0    0    0    0  0.00000000000E+00  0.00000000000E+00  0.12525980253E-10  0.17130000000E+03  0.17130000000E+03 0. -1.
       11    1    1    2    0    0 -0.18920577154E-01  0.70960562628E-02  0.48311069500E+00  0.48353339812E+00  0.51109989000E-03 0. -1.
     -623    1    1    2    0    0  0.86966754325E-02 -0.50039426775E-02  0.66596015319E-03  0.17130000030E+03  0.17130000000E+03 0. -1.
      622    1    1    2    0    0  0.10223901720E-01 -0.20921135845E-02  0.35162233128E+01  0.35164663073E+01  0.40000000000E-01 0.  0.
</event>
<event>
 5   0  0.7212170E+07  0.9118800E+02  0.7818608E-02  0.1180000E+00
       11   -1    0    0    0    0  0.00000000000E+00  0.00000000000E+00  0.39999999673E+01  0.40000000000E+01  0.51109989000E-03 0. -1.
     -623   -1    0    0    0    0  0.00000000000E+00  0.00000000000E+00  0.12525980253E-10  0.17130000000E+03  0.17130000000E+03 0. -1.
       11    1    1    2    0    0 -0.24172252883E-01 -0.77618646761E-02  0.19477025426E+00  0.19641857733E+00  0.51109989000E-03 0. -1.
     -623    1    1    2    0    0  0.43480017634E-02 -0.18169484899E-02  0.19224274403E-02  0.17130000008E+03  0.17130000000E+03 0. -1.
      622    1    1    2    0    0  0.19824251119E-01  0.95788131661E-02  0.38033072857E+01  0.38035813471E+01  0.40000000000E-01 0. -1.
</event>
<event>
 5   0  0.7212170E+07  0.9118800E+02  0.7818608E-02  0.1180000E+00
       11   -1    0    0    0    0  0.00000000000E+00  0.00000000000E+00  0.39999999673E+01  0.40000000000E+01  0.51109989000E-03 0.  1.
     -623   -1    0    0    0    0  0.00000000000E+00  0.00000000000E+00  0.12525980253E-10  0.17130000000E+03  0.17130000000E+03 0.  1.
       11    1    1    2    0    0  0.73101595233E-03  0.85260286536E-03  0.28231607107E-02  0.30810348042E-02  0.51109989000E-03 0.  1.
     -623    1    1    2    0    0  0.10027719039E-02  0.32353883464E-02  0.46050148103E-03  0.17130000003E+03  0.17130000000E+03 0.  1.
      622    1    1    2    0    0 -0.17337878563E-02 -0.40879912117E-02  0.39967163052E+01  0.39969189311E+01  0.40000000000E-01 0.  1.
</event>
<event>
 5   0  0.7212170E+07  0.9118800E+02  0.7818608E-02  0.1180000E+00
       11   -1    0    0    0    0  0.00000000000E+00  0.00000000000E+00  0.39999999673E+01  0.40000000000E+01  0.51109989000E-03 0. -1.
     -623   -1    0    0    0    0  0.00000000000E+00  0.00000000000E+00  0.12525980253E-10  0.17130000000E+03  0.17130000000E+03 0.  1.
       11    1    1    2    0    0  0.69307849528E-03 -0.60192240434E-03  0.11382257922E-01  0.11430646827E-01  0.51109989000E-03 0. -1.
     -623    1    1    2    0    0  0.67161689130E-03  0.80418272346E-03  0.24917647070E-03  0.17130000000E+03  0.17130000000E+03 0.  1.
      622    1    1    2    0    0 -0.13646953867E-02 -0.20226031926E-03  0.39883685337E+01  0.39885693505E+01  0.40000000000E-01 0. -1.
</event>
<event>
 5   0  0.7212170E+07  0.9118800E+02  0.7818608E-02  0.1180000E+00
       11   -1    0    0    0    0  0.00000000000E+00  0.00000000000E+00  0.39999999673E+01  0.40000000000E+01  0.51109989000E-03 0. -1.
     -623   -1    0    0    0    0  0.00000000000E+00  0.00000000000E+00  0.12525980253E-10  0.17130000000E+03  0.17130000000E+03 0. -1.
       11    1    1    2    0    0 -0.10252920303E-02 -0.20023333483E-02  0.38660772155E-02  0.45020371743E-02  0.51109989000E-03 0. -1.
     -623    1    1    2    0    0  0.19080528105E-02  0.31953294534E-03  0.83662257632E-03  0.17130000001E+03  0.17130000000E+03 0. -1.
      622    1    1    2    0    0 -0.88276078032E-03  0.16828004030E-02  0.39952972679E+01  0.39954979502E+01  0.40000000000E-01 0. -1.
</event>
<event>
 5   0  0.7212170E+07  0.9118800E+02  0.7818608E-02  0.1180000E+00
       11   -1    0    0    0    0  0.00000000000E+00  0.00000000000E+00  0.39999999673E+01  0.40000000000E+01  0.51109989000E-03 0.  1.
     -623   -1    0    0    0    0  0.00000000000E+00  0.00000000000E+00  0.12525980253E-10  0.17130000000E+03  0.17130000000E+03 0. -1.
       11    1    1    2    0    0 -0.13479309601E-02  0.71256278015E-02  0.48202733533E-02  0.87228291131E-02  0.51109989000E-03 0.  1.
     -623    1    1    2    0    0 -0.38301307705E-02 -0.30659493848E-02  0.41085085472E-02  0.17130000012E+03  0.17130000000E+03 0. -1.
      622    1    1    2    0    0  0.51780617306E-02 -0.40596784167E-02  0.39910711855E+01  0.39912770514E+01  0.40000000000E-01 0.  1.
</event>
<event>
 5   0  0.7212170E+07  0.9118800E+02  0.7818608E-02  0.1180000E+00
       11   -1    0    0    0    0  0.00000000000E+00  0.00000000000E+00  0.39999999673E+01  0.40000000000E+01  0.51109989000E-03 0. -1.
     -623   -1    0    0    0    0  0.00000000000E+00  0.00000000000E+00  0.12525980253E-10  0.17130000000E+03  0.17130000000E+03 0.  1.
       11    1    1    2    0    0 -0.12245709427E-01 -0.30031647385E-02  0.20556965276E+01  0.20557352581E+01  0.51109989000E-03 0. -1.
     -623    1    1    2    0    0  0.95970270041E-03  0.23876772612E-02  0.48308895755E-03  0.17130000002E+03  0.17130000000E+03 0.  1.
      622    1    1    2    0    0  0.11286006726E-01  0.61548747636E-03  0.19438203523E+01  0.19442647235E+01  0.40000000000E-01 0.  1.
</event>
<event>
 5   0  0.7212170E+07  0.9118800E+02  0.7818608E-02  0.1180000E+00
       11   -1    0    0    0    0  0.00000000000E+00  0.00000000000E+00  0.39999999673E+01  0.40000000000E+01  0.51109989000E-03 0. -1.
     -623   -1    0    0    0    0  0.00000000000E+00  0.00000000000E+00  0.12525980253E-10  0.17130000000E+03  0.17130000000E+03 0.  1.
       11    1    1    2    0    0 -0.17655083938E-01 -0.14091441813E-01  0.71107793637E+00  0.71143683032E+00  0.51109989000E-03 0. -1.
     -623    1    1    2    0    0 -0.62997740329E-02  0.22561478958E-01  0.70190440833E-03  0.17130000160E+03  0.17130000000E+03 0.  1.
      622    1    1    2    0    0  0.23954857973E-01 -0.84700371507E-02  0.32882201275E+01  0.32885615676E+01  0.40000000000E-01 0. -1.
</event>
<event>
 5   0  0.7212170E+07  0.9118800E+02  0.7818608E-02  0.1180000E+00
       11   -1    0    0    0    0  0.00000000000E+00  0.00000000000E+00  0.39999999673E+01  0.40000000000E+01  0.51109989000E-03 0. -1.
     -623   -1    0    0    0    0  0.00000000000E+00  0.00000000000E+00  0.12525980253E-10  0.17130000000E+03  0.17130000000E+03 0. -1.
       11    1    1    2    0    0 -0.33828010007E-01 -0.66043837644E-02  0.25073125497E+01  0.25075494881E+01  0.51109989000E-03 0. -1.
     -623    1    1    2    0    0  0.78713467362E-03 -0.90268748366E-03  0.11578501543E-02  0.17130000001E+03  0.17130000000E+03 0. -1.
      622    1    1    2    0    0  0.33040875334E-01  0.75070712481E-02  0.14915295678E+01  0.14924505041E+01  0.40000000000E-01 0.  1.
</event>
<event>
 5   0  0.7212170E+07  0.9118800E+02  0.7818608E-02  0.1180000E+00
       11   -1    0    0    0    0  0.00000000000E+00  0.00000000000E+00  0.39999999673E+01  0.40000000000E+01  0.51109989000E-03 0. -1.
     -623   -1    0    0    0    0  0.00000000000E+00  0.00000000000E+00  0.12525980253E-10  0.17130000000E+03  0.17130000000E+03 0. -1.
       11    1    1    2    0    0 -0.26593076856E-02  0.27865508406E-02  0.41799050086E+00  0.41800856070E+00  0.51109989000E-03 0. -1.
     -623    1    1    2    0    0  0.36571358944E-02  0.25094606382E-02  0.24548554942E-03  0.17130000006E+03  0.17130000000E+03 0. -1.
      622    1    1    2    0    0 -0.99782821033E-03 -0.52960114798E-02  0.35817639826E+01  0.35819913834E+01  0.40000000000E-01 0. -1.
</event>
<event>
 5   0  0.7212170E+07  0.9118800E+02  0.7818608E-02  0.1180000E+00
       11   -1    0    0    0    0  0.00000000000E+00  0.00000000000E+00  0.39999999673E+01  0.40000000000E+01  0.51109989000E-03 0.  1.
     -623   -1    0    0    0    0  0.00000000000E+00  0.00000000000E+00  0.12525980253E-10  0.17130000000E+03  0.17130000000E+03 0. -1.
       11    1    1    2    0    0  0.12690647161E-01  0.35771457552E-02  0.30159116928E+00  0.30187968316E+00  0.51109989000E-03 0.  1.
     -623    1    1    2    0    0 -0.15677426193E-01 -0.69934553956E-03  0.50785930335E-03  0.17130000072E+03  0.17130000000E+03 0. -1.
      622    1    1    2    0    0  0.29867790311E-02 -0.28778002156E-02  0.36979009388E+01  0.36981195972E+01  0.40000000000E-01 0.  1.
</event>
<event>
 5   0  0.7212170E+07  0.9118800E+02  0.7818608E-02  0.1180000E+00
       11   -1    0    0    0    0  0.00000000000E+00  0.00000000000E+00  0.39999999673E+01  0.40000000000E+01  0.51109989000E-03 0.  1.
     -623   -1    0    0    0    0  0.00000000000E+00  0.00000000000E+00  0.12525980253E-10  0.17130000000E+03  0.17130000000E+03 0.  1.
       11    1    1    2    0    0 -0.87507499666E-02  0.56513144269E-02  0.34893752670E+00  0.34909335677E+00  0.51109989000E-03 0.  1.
     -623    1    1    2    0    0  0.59307282973E-02  0.30205459996E-02  0.38644619073E-03  0.17130000013E+03  0.17130000000E+03 0.  1.
      622    1    1    2    0    0  0.28200216697E-02 -0.86718604264E-02  0.36506759942E+01  0.36509065133E+01  0.40000000000E-01 0.  1.
</event>
<event>
 5   0  0.7212170E+07  0.9118800E+02  0.7818608E-02  0.1180000E+00
       11   -1    0    0    0    0  0.00000000000E+00  0.00000000000E+00  0.39999999673E+01  0.40000000000E+01  0.51109989000E-03 0. -1.
     -623   -1    0    0    0    0  0.00000000000E+00  0.00000000000E+00  0.12525980253E-10  0.17130000000E+03  0.17130000000E+03 0. -1.
       11    1    1    2    0    0  0.16511024822E-02  0.33202655465E-03  0.48943188372E-01  0.48974823043E-01  0.51109989000E-03 0. -1.
     -623    1    1    2    0    0  0.31834863010E-03 -0.80159800457E-03  0.23460742912E-03  0.17130000000E+03  0.17130000000E+03 0. -1.
      622    1    1    2    0    0 -0.19694511122E-02  0.46957144988E-03  0.39508221714E+01  0.39510251744E+01  0.40000000000E-01 0. -1.
</event>
<event>
 5   0  0.7212170E+07  0.9118800E+02  0.7818608E-02  0.1180000E+00
       11   -1    0    0    0    0  0.00000000000E+00  0.00000000000E+00  0.39999999673E+01  0.40000000000E+01  0.51109989000E-03 0. -1.
     -623   -1    0    0    0    0  0.00000000000E+00  0.00000000000E+00  0.12525980253E-10  0.17130000000E+03  0.17130000000E+03 0.  1.
       11    1    1    2    0    0 -0.17273856780E-02 -0.11870943130E-02  0.10964719655E-01  0.11174943150E-01  0.51109989000E-03 0. -1.
     -623    1    1    2    0    0  0.16666397670E-02  0.18033345462E-02  0.41082236979E-03  0.17130000002E+03  0.17130000000E+03 0.  1.
      622    1    1    2    0    0  0.60745910842E-04 -0.61624023328E-03  0.39886244256E+01  0.39888250390E+01  0.40000000000E-01 0. -1.
</event>
<event>
 5   0  0.7212170E+07  0.9118800E+02  0.7818608E-02  0.1180000E+00
       11   -1    0    0    0    0  0.00000000000E+00  0.00000000000E+00  0.39999999673E+01  0.40000000000E+01  0.51109989000E-03 0.  1.
     -623   -1    0    0    0    0  0.00000000000E+00  0.00000000000E+00  0.12525980253E-10  0.17130000000E+03  0.17130000000E+03 0.  1.
       11    1    1    2    0    0 -0.34662285327E-02  0.48386332214E-02  0.18777415720E+00  0.18786916311E+00  0.51109989000E-03 0.  1.
     -623    1    1    2    0    0 -0.13905284146E-03 -0.13683140772E-02  0.30812581730E-03  0.17130000001E+03  0.17130000000E+03 0.  1.
      622    1    1    2    0    0  0.36052813742E-02 -0.34703191442E-02  0.38119176842E+01  0.38121308310E+01  0.40000000000E-01 0.  1.
</event>
<event>
 5   0  0.7212170E+07  0.9118800E+02  0.7818608E-02  0.1180000E+00
       11   -1    0    0    0    0  0.00000000000E+00  0.00000000000E+00  0.39999999673E+01  0.40000000000E+01  0.51109989000E-03 0. -1.
     -623   -1    0    0    0    0  0.00000000000E+00  0.00000000000E+00  0.12525980253E-10  0.17130000000E+03  0.17130000000E+03 0. -1.
       11    1    1    2    0    0  0.43528876152E-02 -0.32330445543E-02  0.17039525969E+00  0.17048227461E+00  0.51109989000E-03 0. -1.
     -623    1    1    2    0    0  0.42487838520E-03  0.32778769410E-02  0.29890455113E-03  0.17130000003E+03  0.17130000000E+03 0. -1.
      622    1    1    2    0    0 -0.47777660004E-02 -0.44832386511E-04  0.38293058029E+01  0.38295176930E+01  0.40000000000E-01 0. -1.
</event>
<event>
 5   0  0.7212170E+07  0.9118800E+02  0.7818608E-02  0.1180000E+00
       11   -1    0    0    0    0  0.00000000000E+00  0.00000000000E+00  0.39999999673E+01  0.40000000000E+01  0.51109989000E-03 0. -1.
     -623   -1    0    0    0    0  0.00000000000E+00  0.00000000000E+00  0.12525980253E-10  0.17130000000E+03  0.17130000000E+03 0. -1.
       11    1    1    2    0    0  0.62713237553E-02 -0.18873969375E-01  0.10578122592E+01  0.10579993352E+01  0.51109989000E-03 0. -1.
     -623    1    1    2    0    0 -0.13827567749E-01  0.20148691387E-01  0.47070437801E-03  0.17130000174E+03  0.17130000000E+03 0. -1.
      622    1    1    2    0    0  0.75562439945E-02 -0.12747220139E-02  0.29417170040E+01  0.29419989214E+01  0.40000000000E-01 0. -1.
</event>
<event>
 5   0  0.7212170E+07  0.9118800E+02  0.7818608E-02  0.1180000E+00
       11   -1    0    0    0    0  0.00000000000E+00  0.00000000000E+00  0.39999999673E+01  0.40000000000E+01  0.51109989000E-03 0.  1.
     -623   -1    0    0    0    0  0.00000000000E+00  0.00000000000E+00  0.12525980253E-10  0.17130000000E+03  0.17130000000E+03 0. -1.
       11    1    1    2    0    0 -0.83887225233E-03  0.15182587868E-02  0.27469975179E-01  0.27529431084E-01  0.51109989000E-03 0.  1.
     -623    1    1    2    0    0 -0.66328100020E-03 -0.18263861494E-02  0.26112157885E-03  0.17130000001E+03  0.17130000000E+03 0. -1.
      622    1    1    2    0    0  0.15021532523E-02  0.30812736210E-03  0.39722688694E+01  0.39724705565E+01  0.40000000000E-01 0.  1.
</event>
<event>
 5   0  0.7212170E+07  0.9118800E+02  0.7818608E-02  0.1180000E+00
       11   -1    0    0    0    0  0.00000000000E+00  0.00000000000E+00  0.39999999673E+01  0.40000000000E+01  0.51109989000E-03 0. -1.
     -623   -1    0    0    0    0  0.00000000000E+00  0.00000000000E+00  0.12525980253E-10  0.17130000000E+03  0.17130000000E+03 0. -1.
       11    1    1    2    0    0 -0.37729939119E-01  0.22223067609E-01  0.24522553882E+01  0.24526463592E+01  0.51109989000E-03 0. -1.
     -623    1    1    2    0    0 -0.70146468238E-02  0.14288715367E-01  0.19872317433E-02  0.17130000075E+03  0.17130000000E+03 0. -1.
      622    1    1    2    0    0  0.44744585943E-01 -0.36511782977E-01  0.15457573477E+01  0.15473528900E+01  0.40000000000E-01 0.  0.
</event>
<event>
 5   0  0.7212170E+07  0.9118800E+02  0.7818608E-02  0.1180000E+00
       11   -1    0    0    0    0  0.00000000000E+00  0.00000000000E+00  0.39999999673E+01  0.40000000000E+01  0.51109989000E-03 0.  1.
     -623   -1    0    0    0    0  0.00000000000E+00  0.00000000000E+00  0.12525980253E-10  0.17130000000E+03  0.17130000000E+03 0. -1.
       11    1    1    2    0    0  0.14008683502E-01 -0.21035482479E-01  0.23061193574E+01  0.23062578968E+01  0.51109989000E-03 0.  1.
     -623    1    1    2    0    0  0.14940884287E-02 -0.41743120795E-02  0.86961157647E-03  0.17130000006E+03  0.17130000000E+03 0. -1.
      622    1    1    2    0    0 -0.15502771931E-01  0.25209794559E-01  0.16930109985E+01  0.16937420437E+01  0.40000000000E-01 0.  0.
</event>
<event>
 5   0  0.7212170E+07  0.9118800E+02  0.7818608E-02  0.1180000E+00
       11   -1    0    0    0    0  0.00000000000E+00  0.00000000000E+00  0.39999999673E+01  0.40000000000E+01  0.51109989000E-03 0.  1.
     -623   -1    0    0    0    0  0.00000000000E+00  0.00000000000E+00  0.12525980253E-10  0.17130000000E+03  0.17130000000E+03 0. -1.
       11    1    1    2    0    0  0.44755533705E-03 -0.77229434279E-03  0.18871980655E-01  0.18899989981E-01  0.51109989000E-03 0.  1.
     -623    1    1    2    0    0  0.79019695535E-04  0.65535382593E-03  0.22896921229E-03  0.17130000000E+03  0.17130000000E+03 0. -1.
      622    1    1    2    0    0 -0.52657503257E-03  0.11694051696E-03  0.39808990169E+01  0.39811000080E+01  0.40000000000E-01 0.  1.
</event>
<event>
 5   0  0.7212170E+07  0.9118800E+02  0.7818608E-02  0.1180000E+00
       11   -1    0    0    0    0  0.00000000000E+00  0.00000000000E+00  0.39999999673E+01  0.40000000000E+01  0.51109989000E-03 0. -1.
     -623   -1    0    0    0    0  0.00000000000E+00  0.00000000000E+00  0.12525980253E-10  0.17130000000E+03  0.17130000000E+03 0.  1.
       11    1    1    2    0    0 -0.42545028470E-02 -0.12528095714E-01  0.71547815805E+00  0.71560066367E+00  0.51109989000E-03 0. -1.
     -623    1    1    2    0    0  0.21412443632E-02  0.52374242007E-03  0.38869171949E-03  0.17130000001E+03  0.17130000000E+03 0.  1.
      622    1    1    2    0    0  0.21132584838E-02  0.12004353294E-01  0.32841331175E+01  0.32843993216E+01  0.40000000000E-01 0. -1.
</event>
<event>
 5   0  0.7212170E+07  0.9118800E+02  0.7818608E-02  0.1180000E+00
       11   -1    0    0    0    0  0.00000000000E+00  0.00000000000E+00  0.39999999673E+01  0.40000000000E+01  0.51109989000E-03 0. -1.
     -623   -1    0    0    0    0  0.00000000000E+00  0.00000000000E+00  0.12525980253E-10  0.17130000000E+03  0.17130000000E+03 0. -1.
       11    1    1    2    0    0 -0.35967763599E-01  0.12530593667E-01  0.43397583434E+00  0.43564432948E+00  0.51109989000E-03 0. -1.
     -623    1    1    2    0    0  0.24280944698E-02  0.44670294822E-02  0.20913490764E-02  0.17130000009E+03  0.17130000000E+03 0. -1.
      622    1    1    2    0    0  0.33539669129E-01 -0.16997623149E-01  0.35639327840E+01  0.35643555824E+01  0.40000000000E-01 0. -1.
</event>
<event>
 5   0  0.7212170E+07  0.9118800E+02  0.7818608E-02  0.1180000E+00
       11   -1    0    0    0    0  0.00000000000E+00  0.00000000000E+00  0.39999999673E+01  0.40000000000E+01  0.51109989000E-03 0. -1.
     -623   -1    0    0    0    0  0.00000000000E+00  0.00000000000E+00  0.12525980253E-10  0.17130000000E+03  0.17130000000E+03 0.  1.
       11    1    1    2    0    0 -0.92701193424E-03 -0.15326780869E-02  0.89228137502E-02  0.91151676650E-02  0.51109989000E-03 0. -1.
     -623    1    1    2    0    0 -0.27070763965E-01 -0.19491193324E-01  0.54962767202E-03  0.17130000325E+03  0.17130000000E+03 0.  1.
      622    1    1    2    0    0  0.27997775905E-01  0.21023871415E-01  0.39905275268E+01  0.39908815844E+01  0.40000000000E-01 0. -1.
</event>
<event>
 5   0  0.7212170E+07  0.9118800E+02  0.7818608E-02  0.1180000E+00
       11   -1    0    0    0    0  0.00000000000E+00  0.00000000000E+00  0.39999999673E+01  0.40000000000E+01  0.51109989000E-03 0. -1.
     -623   -1    0    0    0    0  0.00000000000E+00  0.00000000000E+00  0.12525980253E-10  0.17130000000E+03  0.17130000000E+03 0. -1.
       11    1    1    2    0    0  0.42506084180E-02 -0.96498878486E-03  0.23260650794E-01  0.23671036600E-01  0.51109989000E-03 0. -1.
     -623    1    1    2    0    0 -0.29557263433E-03 -0.85045061521E-02  0.62500463523E-03  0.17130000021E+03  0.17130000000E+03 0. -1.
      622    1    1    2    0    0 -0.39550357837E-02  0.94694949375E-02  0.39761143122E+01  0.39763287512E+01  0.40000000000E-01 0. -1.
</event>
<event>
 5   0  0.7212170E+07  0.9118800E+02  0.7818608E-02  0.1180000E+00
       11   -1    0    0    0    0  0.00000000000E+00  0.00000000000E+00  0.39999999673E+01  0.40000000000E+01  0.51109989000E-03 0. -1.
     -623   -1    0    0    0    0  0.00000000000E+00  0.00000000000E+00  0.12525980253E-10  0.17130000000E+03  0.17130000000E+03 0. -1.
       11    1    1    2    0    0  0.10530523170E-03  0.18808996163E-02  0.38294965311E-01  0.38344679733E-01  0.51109989000E-03 0. -1.
     -623    1    1    2    0    0 -0.50820956409E-03 -0.33603216816E-03  0.25194570684E-03  0.17130000000E+03  0.17130000000E+03 0. -1.
      622    1    1    2    0    0  0.40290433266E-03 -0.15448674480E-02  0.39614530585E+01  0.39616553212E+01  0.40000000000E-01 0. -1.
</event>
<event>
 5   0  0.7212170E+07  0.9118800E+02  0.7818608E-02  0.1180000E+00
       11   -1    0    0    0    0  0.00000000000E+00  0.00000000000E+00  0.39999999673E+01  0.40000000000E+01  0.51109989000E-03 0. -1.
     -623   -1    0    0    0    0  0.00000000000E+00  0.00000000000E+00  0.12525980253E-10  0.17130000000E+03  0.17130000000E+03 0.  1.
       11    1    1    2    0    0  0.17024224973E-02 -0.23683791883E-02  0.80538847410E-02  0.85810107131E-02  0.51109989000E-03 0. -1.
     -623    1    1    2    0    0  0.38751777450E-03  0.25935616816E-02  0.72810349292E-03  0.17130000002E+03  0.17130000000E+03 0.  1.
      622    1    1    2    0    0 -0.20899402718E-02 -0.22518249368E-03  0.39912179797E+01  0.39914189683E+01  0.40000000000E-01 0. -1.
</event>
<event>
 5   0  0.7212170E+07  0.9118800E+02  0.7818608E-02  0.1180000E+00
       11   -1    0    0    0    0  0.00000000000E+00  0.00000000000E+00  0.39999999673E+01  0.40000000000E+01  0.51109989000E-03 0. -1.
     -623   -1    0    0    0    0  0.00000000000E+00  0.00000000000E+00  0.12525980253E-10  0.17130000000E+03  0.17130000000E+03 0.  1.
       11    1    1    2    0    0  0.18466233092E-02 -0.45970567606E-02  0.11520339843E+00  0.11531100200E+00  0.51109989000E-03 0. -1.
     -623    1    1    2    0    0 -0.19400140618E-03  0.79636059990E-03  0.31572623498E-03  0.17130000000E+03  0.17130000000E+03 0.  1.
      622    1    1    2    0    0 -0.16526219030E-02  0.38006961606E-02  0.38844808431E+01  0.38846889961E+01  0.40000000000E-01 0. -1.
</event>
<event>
 5   0  0.7212170E+07  0.9118800E+02  0.7818608E-02  0.1180000E+00
       11   -1    0    0    0    0  0.00000000000E+00  0.00000000000E+00  0.39999999673E+01  0.40000000000E+01  0.51109989000E-03 0. -1.
     -623   -1    0    0    0    0  0.00000000000E+00  0.00000000000E+00  0.12525980253E-10  0.17130000000E+03  0.17130000000E+03 0.  1.
       11    1    1    2    0    0 -0.24149642830E-02 -0.43337608333E-03  0.37559688406E-01  0.37643210325E-01  0.51109989000E-03 0. -1.
     -623    1    1    2    0    0 -0.57677556194E-04  0.11214827757E-02  0.28622968086E-03  0.17130000000E+03  0.17130000000E+03 0.  1.
      622    1    1    2    0    0  0.24726418392E-02 -0.68810669234E-03  0.39621540493E+01  0.39623567857E+01  0.40000000000E-01 0. -1.
</event>
<event>
 5   0  0.7212170E+07  0.9118800E+02  0.7818608E-02  0.1180000E+00
       11   -1    0    0    0    0  0.00000000000E+00  0.00000000000E+00  0.39999999673E+01  0.40000000000E+01  0.51109989000E-03 0.  1.
     -623   -1    0    0    0    0  0.00000000000E+00  0.00000000000E+00  0.12525980253E-10  0.17130000000E+03  0.17130000000E+03 0.  1.
       11    1    1    2    0    0  0.80959016883E-02 -0.85056045592E-02  0.93952848651E+00  0.93960200464E+00  0.51109989000E-03 0.  1.
     -623    1    1    2    0    0  0.22167131908E-02 -0.73827675525E-03  0.36625541646E-03  0.17130000002E+03  0.17130000000E+03 0.  1.
      622    1    1    2    0    0 -0.10312614879E-01  0.92438813145E-02  0.30601052258E+01  0.30603979794E+01  0.40000000000E-01 0.  1.
</event>
<event>
 5   0  0.7212170E+07  0.9118800E+02  0.7818608E-02  0.1180000E+00
       11   -1    0    0    0    0  0.00000000000E+00  0.00000000000E+00  0.39999999673E+01  0.40000000000E+01  0.51109989000E-03 0.  1.
     -623   -1    0    0    0    0  0.00000000000E+00  0.00000000000E+00  0.12525980253E-10  0.17130000000E+03  0.17130000000E+03 0. -1.
       11    1    1    2    0    0 -0.15601561976E-03 -0.16873906628E-01  0.16343250423E+01  0.16344122363E+01  0.51109989000E-03 0.  1.
     -623    1    1    2    0    0 -0.35610948148E-02  0.98487133554E-02  0.43904248454E-03  0.17130000032E+03  0.17130000000E+03 0. -1.
      622    1    1    2    0    0  0.37171104357E-02  0.70251932695E-02  0.23652358838E+01  0.23655874442E+01  0.40000000000E-01 0.  1.
</event>
<event>
 5   0  0.7212170E+07  0.9118800E+02  0.7818608E-02  0.1180000E+00
       11   -1    0    0    0    0  0.00000000000E+00  0.00000000000E+00  0.39999999673E+01  0.40000000000E+01  0.51109989000E-03 0.  1.
     -623   -1    0    0    0    0  0.00000000000E+00  0.00000000000E+00  0.12525980253E-10  0.17130000000E+03  0.17130000000E+03 0. -1.
       11    1    1    2    0    0 -0.19766971128E-01 -0.77685529449E-01  0.14737271712E+01  0.14759057596E+01  0.51109989000E-03 0.  1.
     -623    1    1    2    0    0 -0.90749114840E-02  0.16456070645E-01  0.34042979029E-02  0.17130000106E+03  0.17130000000E+03 0. -1.
      622    1    1    2    0    0  0.28841882612E-01  0.61229458804E-01  0.25228684982E+01  0.25240931758E+01  0.40000000000E-01 0.  1.
</event>
<event>
 5   0  0.7212170E+07  0.9118800E+02  0.7818608E-02  0.1180000E+00
       11   -1    0    0    0    0  0.00000000000E+00  0.00000000000E+00  0.39999999673E+01  0.40000000000E+01  0.51109989000E-03 0.  1.
     -623   -1    0    0    0    0  0.00000000000E+00  0.00000000000E+00  0.12525980253E-10  0.17130000000E+03  0.17130000000E+03 0. -1.
       11    1    1    2    0    0  0.11991304518E-02 -0.89706995322E-03  0.11723823950E-01  0.11830127617E-01  0.51109989000E-03 0.  1.
     -623    1    1    2    0    0 -0.39968738453E-02  0.14302720760E-02  0.30793923053E-03  0.17130000005E+03  0.17130000000E+03 0. -1.
      622    1    1    2    0    0  0.27977433945E-02 -0.53320212312E-03  0.39879682052E+01  0.39881698206E+01  0.40000000000E-01 0.  1.
</event>
<event>
 5   0  0.7212170E+07  0.9118800E+02  0.7818608E-02  0.1180000E+00
       11   -1    0    0    0    0  0.00000000000E+00  0.00000000000E+00  0.39999999673E+01  0.40000000000E+01  0.51109989000E-03 0. -1.
     -623   -1    0    0    0    0  0.00000000000E+00  0.00000000000E+00  0.12525980253E-10  0.17130000000E+03  0.17130000000E+03 0. -1.
       11    1    1    2    0    0  0.38214877802E-01  0.39602502034E-02  0.39396249001E+00  0.39583173852E+00  0.51109989000E-03 0. -1.
     -623    1    1    2    0    0 -0.28510804861E-04  0.48092378718E-02  0.23042524700E-02  0.17130000008E+03  0.17130000000E+03 0. -1.
      622    1    1    2    0    0 -0.38186366997E-01 -0.87694880751E-02  0.36037332249E+01  0.36041681785E+01  0.40000000000E-01 0. -1.
</event>
<event>
 5   0  0.7212170E+07  0.9118800E+02  0.7818608E-02  0.1180000E+00
       11   -1    0    0    0    0  0.00000000000E+00  0.00000000000E+00  0.39999999673E+01  0.40000000000E+01  0.51109989000E-03 0. -1.
     -623   -1    0    0    0    0  0.00000000000E+00  0.00000000000E+00  0.12525980253E-10  0.17130000000E+03  0.17130000000E+03 0. -1.
       11    1    1    2    0    0  0.36264547056E-02 -0.33344904742E-02  0.46227906816E-01  0.46492478877E-01  0.51109989000E-03 0. -1.
     -623    1    1    2    0    0 -0.81037636465E-03 -0.47203384510E-03  0.46973536577E-03  0.17130000000E+03  0.17130000000E+03 0. -1.
      622    1    1    2    0    0 -0.28160783410E-02  0.38065243192E-02  0.39533023249E+01  0.39535075176E+01  0.40000000000E-01 0. -1.
</event>
<event>
 5   0  0.7212170E+07  0.9118800E+02  0.7818608E-02  0.1180000E+00
       11   -1    0    0    0    0  0.00000000000E+00  0.00000000000E+00  0.39999999673E+01  0.40000000000E+01  0.51109989000E-03 0.  1.
     -623   -1    0    0    0    0  0.00000000000E+00  0.00000000000E+00  0.12525980253E-10  0.17130000000E+03  0.17130000000E+03 0.  1.
       11    1    1    2    0    0  0.14825520217E-03 -0.17454877147E-02  0.29642112789E-02  0.34808732483E-02  0.51109989000E-03 0.  1.
     -623    1    1    2    0    0 -0.34922001414E-02  0.91728152169E-03  0.71833295217E-03  0.17130000004E+03  0.17130000000E+03 0.  1.
      622    1    1    2    0    0  0.33439449390E-02  0.82820619310E-03  0.39963174228E+01  0.39965190869E+01  0.40000000000E-01 0.  1.
</event>
<event>
 5   0  0.7212170E+07  0.9118800E+02  0.7818608E-02  0.1180000E+00
       11   -1    0    0    0    0  0.00000000000E+00  0.00000000000E+00  0.39999999673E+01  0.40000000000E+01  0.51109989000E-03 0. -1.
     -623   -1    0    0    0    0  0.00000000000E+00  0.00000000000E+00  0.12525980253E-10  0.17130000000E+03  0.17130000000E+03 0. -1.
       11    1    1    2    0    0 -0.42256533304E-02  0.74071987921E-02  0.20745034671E-01  0.22435249644E-01  0.51109989000E-03 0. -1.
     -623    1    1    2    0    0 -0.12877011898E-01 -0.24035971948E-01  0.19650298368E-02  0.17130000218E+03  0.17130000000E+03 0. -1.
      622    1    1    2    0    0  0.17102665229E-01  0.16628773157E-01  0.39772899030E+01  0.39775625689E+01  0.40000000000E-01 0. -1.
</event>
<event>
 5   0  0.7212170E+07  0.9118800E+02  0.7818608E-02  0.1180000E+00
       11   -1    0    0    0    0  0.00000000000E+00  0.00000000000E+00  0.39999999673E+01  0.40000000000E+01  0.51109989000E-03 0.  1.
     -623   -1    0    0    0    0  0.00000000000E+00  0.00000000000E+00  0.12525980253E-10  0.17130000000E+03  0.17130000000E+03 0. -1.
       11    1    1    2    0    0 -0.22455807136E-02 -0.29616963336E-02  0.98180936853E-01  0.98252592141E-01  0.51109989000E-03 0.  1.
     -623    1    1    2    0    0  0.21271611188E-02 -0.62692582613E-04  0.27785183451E-03  0.17130000001E+03  0.17130000000E+03 0. -1.
      622    1    1    2    0    0  0.11841959416E-03  0.30243889163E-02  0.39015411797E+01  0.39017473955E+01  0.40000000000E-01 0.  1.
</event>
<event>
 5   0  0.7212170E+07  0.9118800E+02  0.7818608E-02  0.1180000E+00
       11   -1    0    0    0    0  0.00000000000E+00  0.00000000000E+00  0.39999999673E+01  0.40000000000E+01  0.51109989000E-03 0. -1.
     -623   -1    0    0    0    0  0.00000000000E+00  0.00000000000E+00  0.12525980253E-10  0.17130000000E+03  0.17130000000E+03 0.  1.
       11    1    1    2    0    0 -0.13204513676E-02 -0.43624748140E-03  0.54140935287E-02  0.56131573570E-02  0.51109989000E-03 0. -1.
     -623    1    1    2    0    0 -0.19374004139E-02  0.94582223082E-03  0.40069243473E-03  0.17130000001E+03  0.17130000000E+03 0.  1.
      622    1    1    2    0    0  0.32578517817E-02 -0.50957474955E-03  0.39941851819E+01  0.39943868291E+01  0.40000000000E-01 0. -1.
</event>
<event>
 5   0  0.7212170E+07  0.9118800E+02  0.7818608E-02  0.1180000E+00
       11   -1    0    0    0    0  0.00000000000E+00  0.00000000000E+00  0.39999999673E+01  0.40000000000E+01  0.51109989000E-03 0.  1.
     -623   -1    0    0    0    0  0.00000000000E+00  0.00000000000E+00  0.12525980253E-10  0.17130000000E+03  0.17130000000E+03 0. -1.
       11    1    1    2    0    0  0.26889568012E-02  0.32194269978E-02  0.65067666520E+00  0.65069038648E+00  0.51109989000E-03 0.  1.
     -623    1    1    2    0    0  0.11997212792E-02  0.28729050790E-04  0.25638950520E-03  0.17130000000E+03  0.17130000000E+03 0. -1.
      622    1    1    2    0    0 -0.38886780806E-02 -0.32481560486E-02  0.33490669137E+01  0.33493096101E+01  0.40000000000E-01 0.  1.
</event>
<event>
 5   0  0.7212170E+07  0.9118800E+02  0.7818608E-02  0.1180000E+00
       11   -1    0    0    0    0  0.00000000000E+00  0.00000000000E+00  0.39999999673E+01  0.40000000000E+01  0.51109989000E-03 0. -1.
     -623   -1    0    0    0    0  0.00000000000E+00  0.00000000000E+00  0.12525980253E-10  0.17130000000E+03  0.17130000000E+03 0. -1.
       11    1    1    2    0    0  0.24515621747E-02 -0.48545825605E-02  0.44422825024E+00  0.44426183345E+00  0.51109989000E-03 0. -1.
     -623    1    1    2    0    0  0.83696896396E-03  0.60372432829E-03  0.26261134261E-03  0.17130000000E+03  0.17130000000E+03 0. -1.
      622    1    1    2    0    0 -0.32885311385E-02  0.42508582323E-02  0.35555091052E+01  0.35557381626E+01  0.40000000000E-01 0. -1.
</event>
<event>
 5   0  0.7212170E+07  0.9118800E+02  0.7818608E-02  0.1180000E+00
       11   -1    0    0    0    0  0.00000000000E+00  0.00000000000E+00  0.39999999673E+01  0.40000000000E+01  0.51109989000E-03 0. -1.
     -623   -1    0    0    0    0  0.00000000000E+00  0.00000000000E+00  0.12525980253E-10  0.17130000000E+03  0.17130000000E+03 0.  1.
       11    1    1    2    0    0 -0.28044020184E-01  0.64196974115E-01  0.10516594838E+01  0.10539903461E+01  0.51109989000E-03 0. -1.
     -623    1    1    2    0    0  0.61570223398E-01 -0.16278636953E-01  0.31948540085E-02  0.17130001187E+03  0.17130000000E+03 0.  1.
      622    1    1    2    0    0 -0.33526203216E-01 -0.47918337162E-01  0.29451456296E+01  0.29459977857E+01  0.40000000000E-01 0. -1.
</event>
<event>
 5   0  0.7212170E+07  0.9118800E+02  0.7818608E-02  0.1180000E+00
       11   -1    0    0    0    0  0.00000000000E+00  0.00000000000E+00  0.39999999673E+01  0.40000000000E+01  0.51109989000E-03 0.  1.
     -623   -1    0    0    0    0  0.00000000000E+00  0.00000000000E+00  0.12525980253E-10  0.17130000000E+03  0.17130000000E+03 0. -1.
       11    1    1    2    0    0  0.36896521058E-03 -0.59406809591E-03  0.10650313297E-01  0.10685478401E-01  0.51109989000E-03 0.  1.
     -623    1    1    2    0    0 -0.13521506246E-03 -0.24918709733E-04  0.23572829860E-03  0.17130000000E+03  0.17130000000E+03 0. -1.
      622    1    1    2    0    0 -0.23375014807E-03  0.61898680565E-03  0.39891139273E+01  0.39893145229E+01  0.40000000000E-01 0.  1.
</event>
<event>
 5   0  0.7212170E+07  0.9118800E+02  0.7818608E-02  0.1180000E+00
       11   -1    0    0    0    0  0.00000000000E+00  0.00000000000E+00  0.39999999673E+01  0.40000000000E+01  0.51109989000E-03 0. -1.
     -623   -1    0    0    0    0  0.00000000000E+00  0.00000000000E+00  0.12525980253E-10  0.17130000000E+03  0.17130000000E+03 0.  1.
       11    1    1    2    0    0 -0.34601637567E-01 -0.46420133624E-01  0.91434953092E+00  0.91618089264E+00  0.51109989000E-03 0. -1.
     -623    1    1    2    0    0  0.42772324691E-01  0.50358037697E-01  0.21168544547E-02  0.17130001276E+03  0.17130000000E+03 0.  1.
      622    1    1    2    0    0 -0.81706871259E-02 -0.39379040758E-02  0.30835335822E+01  0.30838063525E+01  0.40000000000E-01 0.  0.
</event>
<event>
 5   0  0.7212170E+07  0.9118800E+02  0.7818608E-02  0.1180000E+00
       11   -1    0    0    0    0  0.00000000000E+00  0.00000000000E+00  0.39999999673E+01  0.40000000000E+01  0.51109989000E-03 0. -1.
     -623   -1    0    0    0    0  0.00000000000E+00  0.00000000000E+00  0.12525980253E-10  0.17130000000E+03  0.17130000000E+03 0.  1.
       11    1    1    2    0    0 -0.83132486888E-02  0.12219304559E-01  0.63464361186E+00  0.63481587631E+00  0.51109989000E-03 0. -1.
     -623    1    1    2    0    0  0.62796382807E-03  0.38570785663E-04  0.44107340463E-03  0.17130000000E+03  0.17130000000E+03 0.  1.
      622    1    1    2    0    0  0.76852848607E-02 -0.12257875344E-01  0.33649152824E+01  0.33651841222E+01  0.40000000000E-01 0.  0.
</event>
<event>
 5   0  0.7212170E+07  0.9118800E+02  0.7818608E-02  0.1180000E+00
       11   -1    0    0    0    0  0.00000000000E+00  0.00000000000E+00  0.39999999673E+01  0.40000000000E+01  0.51109989000E-03 0.  1.
     -623   -1    0    0    0    0  0.00000000000E+00  0.00000000000E+00  0.12525980253E-10  0.17130000000E+03  0.17130000000E+03 0. -1.
       11    1    1    2    0    0  0.19713061691E-02  0.50789785807E-02  0.66592779136E-01  0.66817224783E-01  0.51109989000E-03 0.  1.
     -623    1    1    2    0    0  0.59691199625E-03  0.34616434551E-03  0.43239805224E-03  0.17130000000E+03  0.17130000000E+03 0. -1.
      622    1    1    2    0    0 -0.25682181655E-02 -0.54251429262E-02  0.39329747910E+01  0.39331827741E+01  0.40000000000E-01 0.  1.
</event>
<event>
 5   0  0.7212170E+07  0.9118800E+02  0.7818608E-02  0.1180000E+00
       11   -1    0    0    0    0  0.00000000000E+00  0.00000000000E+00  0.39999999673E+01  0.40000000000E+01  0.51109989000E-03 0.  1.
     -623   -1    0    0    0    0  0.00000000000E+00  0.00000000000E+00  0.12525980253E-10  0.17130000000E+03  0.17130000000E+03 0.  1.
       11    1    1    2    0    0 -0.35796422128E-02 -0.10235422330E-02  0.58398107011E+00  0.58399316173E+00  0.51109989000E-03 0.  1.
     -623    1    1    2    0    0 -0.48769645920E-03 -0.70847380851E-04  0.24885638080E-03  0.17130000000E+03  0.17130000000E+03 0.  1.
      622    1    1    2    0    0  0.40673386719E-02  0.10943896139E-02  0.34157700405E+01  0.34160068370E+01  0.40000000000E-01 0.  1.
</event>
<event>
 5   0  0.7212170E+07  0.9118800E+02  0.7818608E-02  0.1180000E+00
       11   -1    0    0    0    0  0.00000000000E+00  0.00000000000E+00  0.39999999673E+01  0.40000000000E+01  0.51109989000E-03 0.  1.
     -623   -1    0    0    0    0  0.00000000000E+00  0.00000000000E+00  0.12525980253E-10  0.17130000000E+03  0.17130000000E+03 0.  1.
       11    1    1    2    0    0  0.89216659324E-03  0.14771193166E-02  0.11358206224E-01  0.11499909322E-01  0.51109989000E-03 0.  1.
     -623    1    1    2    0    0 -0.15405680688E-02 -0.42462863564E-03  0.34245153237E-03  0.17130000001E+03  0.17130000000E+03 0.  1.
      622    1    1    2    0    0  0.64840147601E-03 -0.10524906808E-02  0.39882993108E+01  0.39885000841E+01  0.40000000000E-01 0.  1.
</event>
<event>
 5   0  0.7212170E+07  0.9118800E+02  0.7818608E-02  0.1180000E+00
       11   -1    0    0    0    0  0.00000000000E+00  0.00000000000E+00  0.39999999673E+01  0.40000000000E+01  0.51109989000E-03 0.  1.
     -623   -1    0    0    0    0  0.00000000000E+00  0.00000000000E+00  0.12525980253E-10  0.17130000000E+03  0.17130000000E+03 0.  1.
       11    1    1    2    0    0 -0.11934275324E-01  0.31466253461E-02  0.13826856000E+00  0.13881924969E+00  0.51109989000E-03 0.  1.
     -623    1    1    2    0    0  0.23149182388E-03 -0.42531936730E-03  0.77655046317E-03  0.17130000000E+03  0.17130000000E+03 0.  1.
      622    1    1    2    0    0  0.11702783500E-01 -0.27213059787E-02  0.38609548577E+01  0.38611807487E+01  0.40000000000E-01 0.  1.
</event>
<event>
 5   0  0.7212170E+07  0.9118800E+02  0.7818608E-02  0.1180000E+00
       11   -1    0    0    0    0  0.00000000000E+00  0.00000000000E+00  0.39999999673E+01  0.40000000000E+01  0.51109989000E-03 0. -1.
     -623   -1    0    0    0    0  0.00000000000E+00  0.00000000000E+00  0.12525980253E-10  0.17130000000E+03  0.17130000000E+03 0.  1.
       11    1    1    2    0    0 -0.60506202796E-03  0.22490330021E-01  0.23666309137E+00  0.23773064818E+00  0.51109989000E-03 0. -1.
     -623    1    1    2    0    0  0.10013519229E-01 -0.69552108357E-02  0.13244473277E-02  0.17130000044E+03  0.17130000000E+03 0.  1.
      622    1    1    2    0    0 -0.94084572007E-02 -0.15535119185E-01  0.37620124287E+01  0.37622689128E+01  0.40000000000E-01 0. -1.
</event>
<event>
 5   0  0.7212170E+07  0.9118800E+02  0.7818608E-02  0.1180000E+00
       11   -1    0    0    0    0  0.00000000000E+00  0.00000000000E+00  0.39999999673E+01  0.40000000000E+01  0.51109989000E-03 0. -1.
     -623   -1    0    0    0    0  0.00000000000E+00  0.00000000000E+00  0.12525980253E-10  0.17130000000E+03  0.17130000000E+03 0.  1.
       11    1    1    2    0    0 -0.10882766107E-02  0.43211694867E-03  0.24332181444E-01  0.24365700236E-01  0.51109989000E-03 0. -1.
     -623    1    1    2    0    0 -0.19202547954E-03 -0.72842501870E-03  0.23493601846E-03  0.17130000000E+03  0.17130000000E+03 0.  1.
      622    1    1    2    0    0  0.12803020903E-02  0.29630807042E-03  0.39754328520E+01  0.39756343001E+01  0.40000000000E-01 0. -1.
</event>
<event>
 5   0  0.7212170E+07  0.9118800E+02  0.7818608E-02  0.1180000E+00
       11   -1    0    0    0    0  0.00000000000E+00  0.00000000000E+00  0.39999999673E+01  0.40000000000E+01  0.51109989000E-03 0. -1.
     -623   -1    0    0    0    0  0.00000000000E+00  0.00000000000E+00  0.12525980253E-10  0.17130000000E+03  0.17130000000E+03 0. -1.
       11    1    1    2    0    0 -0.24767648426E-02  0.28924286069E-02  0.19542446813E+01  0.19542484581E+01  0.51109989000E-03 0. -1.
     -623    1    1    2    0    0  0.25224847276E-02 -0.16146049958E-02  0.39526221697E-03  0.17130000003E+03  0.17130000000E+03 0. -1.
      622    1    1    2    0    0 -0.45719885185E-04 -0.12778236110E-02  0.20453600242E+01  0.20457515156E+01  0.40000000000E-01 0. -1.
</event>
<event>
 5   0  0.7212170E+07  0.9118800E+02  0.7818608E-02  0.1180000E+00
       11   -1    0    0    0    0  0.00000000000E+00  0.00000000000E+00  0.39999999673E+01  0.40000000000E+01  0.51109989000E-03 0. -1.
     -623   -1    0    0    0    0  0.00000000000E+00  0.00000000000E+00  0.12525980253E-10  0.17130000000E+03  0.17130000000E+03 0. -1.
       11    1    1    2    0    0 -0.28189788495E-01 -0.24457487337E-01  0.22288997672E+01  0.22292122524E+01  0.51109989000E-03 0. -1.
     -623    1    1    2    0    0  0.21521360668E-01  0.20212968133E-01  0.78448103863E-03  0.17130000255E+03  0.17130000000E+03 0. -1.
      622    1    1    2    0    0  0.66684278250E-02  0.42445192011E-02  0.17703157196E+01  0.17707852018E+01  0.40000000000E-01 0. -1.
</event>
<event>
 5   0  0.7212170E+07  0.9118800E+02  0.7818608E-02  0.1180000E+00
       11   -1    0    0    0    0  0.00000000000E+00  0.00000000000E+00  0.39999999673E+01  0.40000000000E+01  0.51109989000E-03 0. -1.
     -623   -1    0    0    0    0  0.00000000000E+00  0.00000000000E+00  0.12525980253E-10  0.17130000000E+03  0.17130000000E+03 0. -1.
       11    1    1    2    0    0 -0.27909224307E-02  0.35619219121E-02  0.14620908350E+01  0.14620979268E+01  0.51109989000E-03 0. -1.
     -623    1    1    2    0    0 -0.18281215094E-03 -0.58837526525E-03  0.32578577097E-03  0.17130000000E+03  0.17130000000E+03 0. -1.
      622    1    1    2    0    0  0.29737345817E-02 -0.29735466467E-02  0.25375833474E+01  0.25379020726E+01  0.40000000000E-01 0. -1.
</event>
<event>
 5   0  0.7212170E+07  0.9118800E+02  0.7818608E-02  0.1180000E+00
       11   -1    0    0    0    0  0.00000000000E+00  0.00000000000E+00  0.39999999673E+01  0.40000000000E+01  0.51109989000E-03 0. -1.
     -623   -1    0    0    0    0  0.00000000000E+00  0.00000000000E+00  0.12525980253E-10  0.17130000000E+03  0.17130000000E+03 0.  1.
       11    1    1    2    0    0  0.69648569776E-01  0.22504729456E-02  0.21264854865E+01  0.21276270287E+01  0.51109989000E-03 0. -1.
     -623    1    1    2    0    0 -0.82928264684E-03 -0.52324523009E-02  0.28367527901E-02  0.17130000011E+03  0.17130000000E+03 0.  1.
      622    1    1    2    0    0 -0.68819287129E-01  0.29819793555E-02  0.18706777282E+01  0.18723728660E+01  0.40000000000E-01 0.  1.
</event>
<event>
 5   0  0.7212170E+07  0.9118800E+02  0.7818608E-02  0.1180000E+00
       11   -1    0    0    0    0  0.00000000000E+00  0.00000000000E+00  0.39999999673E+01  0.40000000000E+01  0.51109989000E-03 0. -1.
     -623   -1    0    0    0    0  0.00000000000E+00  0.00000000000E+00  0.12525980253E-10  0.17130000000E+03  0.17130000000E+03 0.  1.
       11    1    1    2    0    0 -0.89958146791E-03 -0.20043930577E-02  0.10428474003E+00  0.10430913222E+00  0.51109989000E-03 0. -1.
     -623    1    1    2    0    0  0.71423004377E-03 -0.75615913191E-04  0.23028145053E-03  0.17130000000E+03  0.17130000000E+03 0.  1.
      622    1    1    2    0    0  0.18535142395E-03  0.20800089710E-02  0.38954849470E+01  0.38956908672E+01  0.40000000000E-01 0. -1.
</event>
<event>
 5   0  0.7212170E+07  0.9118800E+02  0.7818608E-02  0.1180000E+00
       11   -1    0    0    0    0  0.00000000000E+00  0.00000000000E+00  0.39999999673E+01  0.40000000000E+01  0.51109989000E-03 0. -1.
     -623   -1    0    0    0    0  0.00000000000E+00  0.00000000000E+00  0.12525980253E-10  0.17130000000E+03  0.17130000000E+03 0.  1.
       11    1    1    2    0    0 -0.14458646863E-02 -0.23075838396E-02  0.54668765229E-01  0.54738931142E-01  0.51109989000E-03 0. -1.
     -623    1    1    2    0    0 -0.43305502316E-03 -0.72631901135E-03  0.27452974560E-03  0.17130000000E+03  0.17130000000E+03 0.  1.
      622    1    1    2    0    0  0.18789197095E-02  0.30339028510E-02  0.39450566726E+01  0.39452610668E+01  0.40000000000E-01 0.  0.
</event>
<event>
 5   0  0.7212170E+07  0.9118800E+02  0.7818608E-02  0.1180000E+00
       11   -1    0    0    0    0  0.00000000000E+00  0.00000000000E+00  0.39999999673E+01  0.40000000000E+01  0.51109989000E-03 0. -1.
     -623   -1    0    0    0    0  0.00000000000E+00  0.00000000000E+00  0.12525980253E-10  0.17130000000E+03  0.17130000000E+03 0. -1.
       11    1    1    2    0    0 -0.28398475848E-02 -0.10017342744E-02  0.15723540722E+00  0.15726507149E+00  0.51109989000E-03 0. -1.
     -623    1    1    2    0    0  0.36632429084E-03  0.31204437732E-03  0.23868120490E-03  0.17130000000E+03  0.17130000000E+03 0. -1.
      622    1    1    2    0    0  0.24735232938E-02  0.68968989690E-03  0.38425258807E+01  0.38427349295E+01  0.40000000000E-01 0. -1.
</event>
<event>
 5   0  0.7212170E+07  0.9118800E+02  0.7818608E-02  0.1180000E+00
       11   -1    0    0    0    0  0.00000000000E+00  0.00000000000E+00  0.39999999673E+01  0.40000000000E+01  0.51109989000E-03 0.  1.
     -623   -1    0    0    0    0  0.00000000000E+00  0.00000000000E+00  0.12525980253E-10  0.17130000000E+03  0.17130000000E+03 0.  1.
       11    1    1    2    0    0 -0.20241258095E-02 -0.28492808354E-02  0.78384084738E-01  0.78463631383E-01  0.51109989000E-03 0.  1.
     -623    1    1    2    0    0  0.12810820975E-02  0.54381707293E-03  0.28427500248E-03  0.17130000001E+03  0.17130000000E+03 0.  1.
      622    1    1    2    0    0  0.74304371154E-03  0.23054637623E-02  0.39213316090E+01  0.39215363641E+01  0.40000000000E-01 0.  1.
</event>
<event>
 5   0  0.7212170E+07  0.9118800E+02  0.7818608E-02  0.1180000E+00
       11   -1    0    0    0    0  0.00000000000E+00  0.00000000000E+00  0.39999999673E+01  0.40000000000E+01  0.51109989000E-03 0.  1.
     -623   -1    0    0    0    0  0.00000000000E+00  0.00000000000E+00  0.12525980253E-10  0.17130000000E+03  0.17130000000E+03 0. -1.
       11    1    1    2    0    0 -0.33541934295E-02  0.35681199607E-02  0.15045084007E+00  0.15053138741E+00  0.51109989000E-03 0.  1.
     -623    1    1    2    0    0 -0.48350688103E-03 -0.37791757543E-03  0.29157762734E-03  0.17130000000E+03  0.17130000000E+03 0. -1.
      622    1    1    2    0    0  0.38377003104E-02 -0.31902023853E-02  0.38492575486E+01  0.38494686102E+01  0.40000000000E-01 0.  1.
</event>
<event>
 5   0  0.7212170E+07  0.9118800E+02  0.7818608E-02  0.1180000E+00
       11   -1    0    0    0    0  0.00000000000E+00  0.00000000000E+00  0.39999999673E+01  0.40000000000E+01  0.51109989000E-03 0. -1.
     -623   -1    0    0    0    0  0.00000000000E+00  0.00000000000E+00  0.12525980253E-10  0.17130000000E+03  0.17130000000E+03 0.  1.
       11    1    1    2    0    0  0.12019198778E-01  0.21310537170E-01  0.10980135014E+00  0.11249532368E+00  0.51109989000E-03 0. -1.
     -623    1    1    2    0    0 -0.17335267908E-01 -0.75950231593E-02  0.29286357391E-02  0.17130000107E+03  0.17130000000E+03 0.  1.
      622    1    1    2    0    0  0.53160691307E-02 -0.13715514011E-01  0.38872699815E+01  0.38875036058E+01  0.40000000000E-01 0. -1.
</event>
<event>
 5   0  0.7212170E+07  0.9118800E+02  0.7818608E-02  0.1180000E+00
       11   -1    0    0    0    0  0.00000000000E+00  0.00000000000E+00  0.39999999673E+01  0.40000000000E+01  0.51109989000E-03 0. -1.
     -623   -1    0    0    0    0  0.00000000000E+00  0.00000000000E+00  0.12525980253E-10  0.17130000000E+03  0.17130000000E+03 0.  1.
       11    1    1    2    0    0 -0.15883215662E-01 -0.49569566130E-02  0.41540115622E+00  0.41573456648E+00  0.51109989000E-03 0. -1.
     -623    1    1    2    0    0  0.45247409014E-01  0.27306370091E-01  0.75471657541E-03  0.17130000815E+03  0.17130000000E+03 0.  1.
      622    1    1    2    0    0 -0.29364193361E-01 -0.22349413483E-01  0.35838440953E+01  0.35842572803E+01  0.40000000000E-01 0. -1.
</event>
<event>
 5   0  0.7212170E+07  0.9118800E+02  0.7818608E-02  0.1180000E+00
       11   -1    0    0    0    0  0.00000000000E+00  0.00000000000E+00  0.39999999673E+01  0.40000000000E+01  0.51109989000E-03 0.  1.
     -623   -1    0    0    0    0  0.00000000000E+00  0.00000000000E+00  0.12525980253E-10  0.17130000000E+03  0.17130000000E+03 0.  1.
       11    1    1    2    0    0 -0.10386455258E-02 -0.33622525558E-02  0.17782840800E-01  0.18134888387E-01  0.51109989000E-03 0.  1.
     -623    1    1    2    0    0  0.18297513143E-02  0.63707168439E-03  0.55395393546E-03  0.17130000001E+03  0.17130000000E+03 0.  1.
      622    1    1    2    0    0 -0.79110578840E-03  0.27251808715E-02  0.39816631724E+01  0.39818650995E+01  0.40000000000E-01 0.  1.
</event>
<event>
 5   0  0.7212170E+07  0.9118800E+02  0.7818608E-02  0.1180000E+00
       11   -1    0    0    0    0  0.00000000000E+00  0.00000000000E+00  0.39999999673E+01  0.40000000000E+01  0.51109989000E-03 0. -1.
     -623   -1    0    0    0    0  0.00000000000E+00  0.00000000000E+00  0.12525980253E-10  0.17130000000E+03  0.17130000000E+03 0.  1.
       11    1    1    2    0    0 -0.17058153936E-02 -0.86894927690E-03  0.85772132775E-02  0.88031068214E-02  0.51109989000E-03 0. -1.
     -623    1    1    2    0    0 -0.44329139553E-03  0.42399019547E-03  0.42691213309E-03  0.17130000000E+03  0.17130000000E+03 0.  1.
      622    1    1    2    0    0  0.21491067891E-02  0.44495908146E-03  0.39909958416E+01  0.39911968912E+01  0.40000000000E-01 0. -1.
</event>
<event>
 5   0  0.7212170E+07  0.9118800E+02  0.7818608E-02  0.1180000E+00
       11   -1    0    0    0    0  0.00000000000E+00  0.00000000000E+00  0.39999999673E+01  0.40000000000E+01  0.51109989000E-03 0.  1.
     -623   -1    0    0    0    0  0.00000000000E+00  0.00000000000E+00  0.12525980253E-10  0.17130000000E+03  0.17130000000E+03 0. -1.
       11    1    1    2    0    0 -0.19498801692E-02 -0.24514713668E-01  0.64415093197E+00  0.64462039806E+00  0.51109989000E-03 0.  1.
     -623    1    1    2    0    0 -0.54492469862E-02  0.17131822653E-02  0.79360146580E-03  0.17130000010E+03  0.17130000000E+03 0. -1.
      622    1    1    2    0    0  0.73991271559E-02  0.22801531403E-01  0.33550554343E+01  0.33553795053E+01  0.40000000000E-01 0.  1.
</event>
<event>
 5   0  0.7212170E+07  0.9118800E+02  0.7818608E-02  0.1180000E+00
       11   -1    0    0    0    0  0.00000000000E+00  0.00000000000E+00  0.39999999673E+01  0.40000000000E+01  0.51109989000E-03 0.  1.
     -623   -1    0    0    0    0  0.00000000000E+00  0.00000000000E+00  0.12525980253E-10  0.17130000000E+03  0.17130000000E+03 0.  1.
       11    1    1    2    0    0 -0.28433128535E-03 -0.16483426745E-02  0.33005994359E+00  0.33006457772E+00  0.51109989000E-03 0.  1.
     -623    1    1    2    0    0 -0.34819270289E-03  0.19342041102E-02  0.22267251327E-03  0.17130000001E+03  0.17130000000E+03 0.  1.
      622    1    1    2    0    0  0.63252398832E-03 -0.28586143613E-03  0.36697173521E+01  0.36699354117E+01  0.40000000000E-01 0.  1.
</event>
<event>
 5   0  0.7212170E+07  0.9118800E+02  0.7818608E-02  0.1180000E+00
       11   -1    0    0    0    0  0.00000000000E+00  0.00000000000E+00  0.39999999673E+01  0.40000000000E+01  0.51109989000E-03 0.  1.
     -623   -1    0    0    0    0  0.00000000000E+00  0.00000000000E+00  0.12525980253E-10  0.17130000000E+03  0.17130000000E+03 0.  1.
       11    1    1    2    0    0  0.48963358626E-02  0.21478191394E-01  0.56426442939E+00  0.56469451414E+00  0.51109989000E-03 0.  1.
     -623    1    1    2    0    0  0.25726219854E-03  0.35608403954E-03  0.73619717927E-03  0.17130000000E+03  0.17130000000E+03 0.  1.
      622    1    1    2    0    0 -0.51535980611E-02 -0.21834275434E-01  0.34349993409E+01  0.34353054838E+01  0.40000000000E-01 0.  1.
</event>
<event>
 5   0  0.7212170E+07  0.9118800E+02  0.7818608E-02  0.1180000E+00
       11   -1    0    0    0    0  0.00000000000E+00  0.00000000000E+00  0.39999999673E+01  0.40000000000E+01  0.51109989000E-03 0.  1.
     -623   -1    0    0    0    0  0.00000000000E+00  0.00000000000E+00  0.12525980253E-10  0.17130000000E+03  0.17130000000E+03 0. -1.
       11    1    1    2    0    0 -0.16915618786E-01  0.18561209678E-01  0.26230891238E+00  0.26350879188E+00  0.51109989000E-03 0.  1.
     -623    1    1    2    0    0  0.16768368678E-01 -0.90235082998E-02  0.14271985070E-02  0.17130000106E+03  0.17130000000E+03 0. -1.
      622    1    1    2    0    0  0.14725010976E-03 -0.95377013789E-02  0.37362638562E+01  0.37364901435E+01  0.40000000000E-01 0.  1.
</event>
<event>
 5   0  0.7212170E+07  0.9118800E+02  0.7818608E-02  0.1180000E+00
       11   -1    0    0    0    0  0.00000000000E+00  0.00000000000E+00  0.39999999673E+01  0.40000000000E+01  0.51109989000E-03 0. -1.
     -623   -1    0    0    0    0  0.00000000000E+00  0.00000000000E+00  0.12525980253E-10  0.17130000000E+03  0.17130000000E+03 0. -1.
       11    1    1    2    0    0  0.57850332708E-02  0.14402532191E-02  0.36140199533E-01  0.36632174173E-01  0.51109989000E-03 0. -1.
     -623    1    1    2    0    0 -0.26791675464E-02  0.66348927937E-02  0.70339034718E-03  0.17130000015E+03  0.17130000000E+03 0. -1.
      622    1    1    2    0    0 -0.31058657243E-02 -0.80751460129E-02  0.39631563775E+01  0.39633676750E+01  0.40000000000E-01 0. -1.
</event>
<event>
 5   0  0.7212170E+07  0.9118800E+02  0.7818608E-02  0.1180000E+00
       11   -1    0    0    0    0  0.00000000000E+00  0.00000000000E+00  0.39999999673E+01  0.40000000000E+01  0.51109989000E-03 0. -1.
     -623   -1    0    0    0    0  0.00000000000E+00  0.00000000000E+00  0.12525980253E-10  0.17130000000E+03  0.17130000000E+03 0.  1.
       11    1    1    2    0    0  0.49437900610E-03 -0.43077905256E-02  0.71061400455E-02  0.83402589443E-02  0.51109989000E-03 0. -1.
     -623    1    1    2    0    0 -0.20273288615E-02  0.76363362894E-02  0.14363796482E-02  0.17130000019E+03  0.17130000000E+03 0.  1.
      622    1    1    2    0    0  0.15329498554E-02 -0.33285457640E-02  0.39914574478E+01  0.39916595530E+01  0.40000000000E-01 0. -1.
</event>
<event>
 5   0  0.7212170E+07  0.9118800E+02  0.7818608E-02  0.1180000E+00
       11   -1    0    0    0    0  0.00000000000E+00  0.00000000000E+00  0.39999999673E+01  0.40000000000E+01  0.51109989000E-03 0.  1.
     -623   -1    0    0    0    0  0.00000000000E+00  0.00000000000E+00  0.12525980253E-10  0.17130000000E+03  0.17130000000E+03 0.  1.
       11    1    1    2    0    0 -0.97297255774E-03 -0.19660981962E-03  0.57303670399E-01  0.57314546106E-01  0.51109989000E-03 0.  1.
     -623    1    1    2    0    0  0.21647023722E-02 -0.16511913315E-03  0.21396627768E-03  0.17130000001E+03  0.17130000000E+03 0.  1.
      622    1    1    2    0    0 -0.11917298159E-02  0.36172895287E-03  0.39424823332E+01  0.39426854426E+01  0.40000000000E-01 0.  1.
</event>
<event>
 5   0  0.7212170E+07  0.9118800E+02  0.7818608E-02  0.1180000E+00
       11   -1    0    0    0    0  0.00000000000E+00  0.00000000000E+00  0.39999999673E+01  0.40000000000E+01  0.51109989000E-03 0. -1.
     -623   -1    0    0    0    0  0.00000000000E+00  0.00000000000E+00  0.12525980253E-10  0.17130000000E+03  0.17130000000E+03 0.  1.
       11    1    1    2    0    0 -0.52100256049E-01 -0.69203564942E-02  0.83554831009E+00  0.83719983740E+00  0.51109989000E-03 0. -1.
     -623    1    1    2    0    0  0.64939970459E-01  0.93398015586E-02  0.19440111055E-02  0.17130001258E+03  0.17130000000E+03 0.  1.
      622    1    1    2    0    0 -0.12839714411E-01 -0.24194450647E-02  0.31625076463E+01  0.31627875877E+01  0.40000000000E-01 0. -1.
</event>
<event>
 5   0  0.7212170E+07  0.9118800E+02  0.7818608E-02  0.1180000E+00
       11   -1    0    0    0    0  0.00000000000E+00  0.00000000000E+00  0.39999999673E+01  0.40000000000E+01  0.51109989000E-03 0. -1.
     -623   -1    0    0    0    0  0.00000000000E+00  0.00000000000E+00  0.12525980253E-10  0.17130000000E+03  0.17130000000E+03 0.  1.
       11    1    1    2    0    0 -0.59397433772E-02 -0.40115584017E-02  0.12385796575E+00  0.12406623254E+00  0.51109989000E-03 0. -1.
     -623    1    1    2    0    0  0.45380808415E-02  0.73034738903E-02  0.41650931783E-03  0.17130000022E+03  0.17130000000E+03 0.  1.
      622    1    1    2    0    0  0.14016625363E-02 -0.32919154877E-02  0.38757254918E+01  0.38759335507E+01  0.40000000000E-01 0. -1.
</event>
<event>
 5   0  0.7212170E+07  0.9118800E+02  0.7818608E-02  0.1180000E+00
       11   -1    0    0    0    0  0.00000000000E+00  0.00000000000E+00  0.39999999673E+01  0.40000000000E+01  0.51109989000E-03 0. -1.
     -623   -1    0    0    0    0  0.00000000000E+00  0.00000000000E+00  0.12525980253E-10  0.17130000000E+03  0.17130000000E+03 0. -1.
       11    1    1    2    0    0 -0.35015643202E-02  0.19018174382E-02  0.25166245273E-01  0.25484877604E-01  0.51109989000E-03 0. -1.
     -623    1    1    2    0    0  0.96466725021E-03  0.13035612313E-02  0.52199796237E-03  0.17130000001E+03  0.17130000000E+03 0. -1.
      622    1    1    2    0    0  0.25368970701E-02 -0.32053786693E-02  0.39743117235E+01  0.39745151133E+01  0.40000000000E-01 0. -1.
</event>
<event>
 5   0  0.7212170E+07  0.9118800E+02  0.7818608E-02  0.1180000E+00
       11   -1    0    0    0    0  0.00000000000E+00  0.00000000000E+00  0.39999999673E+01  0.40000000000E+01  0.51109989000E-03 0.  1.
     -623   -1    0    0    0    0  0.00000000000E+00  0.00000000000E+00  0.12525980253E-10  0.17130000000E+03  0.17130000000E+03 0. -1.
       11    1    1    2    0    0  0.13665812016E-01  0.88605150813E-02  0.11690521872E+01  0.11691657456E+01  0.51109989000E-03 0.  1.
     -623    1    1    2    0    0 -0.50620247392E-02 -0.79513361882E-03  0.42078623702E-03  0.17130000008E+03  0.17130000000E+03 0. -1.
      622    1    1    2    0    0 -0.86037872768E-02 -0.80653814626E-02  0.28305269937E+01  0.28308341770E+01  0.40000000000E-01 0.  0.
</event>
<event>
 5   0  0.7212170E+07  0.9118800E+02  0.7818608E-02  0.1180000E+00
       11   -1    0    0    0    0  0.00000000000E+00  0.00000000000E+00  0.39999999673E+01  0.40000000000E+01  0.51109989000E-03 0.  1.
     -623   -1    0    0    0    0  0.00000000000E+00  0.00000000000E+00  0.12525980253E-10  0.17130000000E+03  0.17130000000E+03 0.  1.
       11    1    1    2    0    0 -0.57278857929E-01  0.11744116364E-01  0.89681112425E+00  0.89871533071E+00  0.51109989000E-03 0.  1.
     -623    1    1    2    0    0 -0.84710770174E-02  0.86825528358E-03  0.28851465892E-02  0.17130000024E+03  0.17130000000E+03 0.  1.
      622    1    1    2    0    0  0.65749934946E-01 -0.12612371648E-01  0.31003036966E+01  0.31012844334E+01  0.40000000000E-01 0.  1.
</event>
<event>
 5   0  0.7212170E+07  0.9118800E+02  0.7818608E-02  0.1180000E+00
       11   -1    0    0    0    0  0.00000000000E+00  0.00000000000E+00  0.39999999673E+01  0.40000000000E+01  0.51109989000E-03 0.  1.
     -623   -1    0    0    0    0  0.00000000000E+00  0.00000000000E+00  0.12525980253E-10  0.17130000000E+03  0.17130000000E+03 0. -1.
       11    1    1    2    0    0 -0.10508143404E-02  0.34837163769E-02  0.27842911624E-01  0.28084327326E-01  0.51109989000E-03 0.  1.
     -623    1    1    2    0    0  0.36258560499E-02  0.63005106445E-03  0.44580763881E-03  0.17130000004E+03  0.17130000000E+03 0. -1.
      622    1    1    2    0    0 -0.25750417089E-02 -0.41137674412E-02  0.39717112475E+01  0.39719156320E+01  0.40000000000E-01 0.  1.
</event>
<event>
 5   0  0.7212170E+07  0.9118800E+02  0.7818608E-02  0.1180000E+00
       11   -1    0    0    0    0  0.00000000000E+00  0.00000000000E+00  0.39999999673E+01  0.40000000000E+01  0.51109989000E-03 0. -1.
     -623   -1    0    0    0    0  0.00000000000E+00  0.00000000000E+00  0.12525980253E-10  0.17130000000E+03  0.17130000000E+03 0.  1.
       11    1    1    2    0    0  0.13584745028E-02  0.72494957722E-03  0.90578966433E-02  0.92020497479E-02  0.51109989000E-03 0.  1.
     -623    1    1    2    0    0  0.71695369650E-03  0.50101373089E-03  0.34531725392E-03  0.17130000000E+03  0.17130000000E+03 0.  1.
      622    1    1    2    0    0 -0.20754281993E-02 -0.12259633081E-02  0.39905967533E+01  0.39907979475E+01  0.40000000000E-01 0. -1.
</event>
<event>
 5   0  0.7212170E+07  0.9118800E+02  0.7818608E-02  0.1180000E+00
       11   -1    0    0    0    0  0.00000000000E+00  0.00000000000E+00  0.39999999673E+01  0.40000000000E+01  0.51109989000E-03 0. -1.
     -623   -1    0    0    0    0  0.00000000000E+00  0.00000000000E+00  0.12525980253E-10  0.17130000000E+03  0.17130000000E+03 0. -1.
       11    1    1    2    0    0 -0.19295523265E-03  0.17303195353E-03  0.31297330686E-03  0.65295265304E-03  0.51109989000E-03 0.  1.
     -623    1    1    2    0    0 -0.22181904308E-03 -0.98281446151E-04  0.54000759264E-03  0.17130000000E+03  0.17130000000E+03 0. -1.
      622    1    1    2    0    0  0.41477427574E-03 -0.74750507377E-04  0.39991469866E+01  0.39993470464E+01  0.40000000000E-01 0. -1.
</event>
<event>
 5   0  0.7212170E+07  0.9118800E+02  0.7818608E-02  0.1180000E+00
       11   -1    0    0    0    0  0.00000000000E+00  0.00000000000E+00  0.39999999673E+01  0.40000000000E+01  0.51109989000E-03 0.  1.
     -623   -1    0    0    0    0  0.00000000000E+00  0.00000000000E+00  0.12525980253E-10  0.17130000000E+03  0.17130000000E+03 0. -1.
       11    1    1    2    0    0  0.19631374294E-02  0.10777097529E-01  0.39935229838E+00  0.39950284002E+00  0.51109989000E-03 0.  1.
     -623    1    1    2    0    0 -0.30102608287E-03 -0.33525352537E-03  0.38823431874E-03  0.17130000000E+03  0.17130000000E+03 0. -1.
      622    1    1    2    0    0 -0.16621113466E-02 -0.10441844003E-01  0.36002594341E+01  0.36004971584E+01  0.40000000000E-01 0.  1.
</event>
<event>
 5   0  0.7212170E+07  0.9118800E+02  0.7818608E-02  0.1180000E+00
       11   -1    0    0    0    0  0.00000000000E+00  0.00000000000E+00  0.39999999673E+01  0.40000000000E+01  0.51109989000E-03 0.  1.
     -623   -1    0    0    0    0  0.00000000000E+00  0.00000000000E+00  0.12525980253E-10  0.17130000000E+03  0.17130000000E+03 0.  1.
       11    1    1    2    0    0 -0.40691526611E-02 -0.16965446409E-02  0.21206469698E+00  0.21211113407E+00  0.51109989000E-03 0.  1.
     -623    1    1    2    0    0  0.11926459214E-02 -0.10932444689E-02  0.25973727677E-03  0.17130000001E+03  0.17130000000E+03 0.  1.
      622    1    1    2    0    0  0.28765067395E-02  0.27897891100E-02  0.37876755338E+01  0.37878888587E+01  0.40000000000E-01 0.  1.
</event>
<event>
 5   0  0.7212170E+07  0.9118800E+02  0.7818608E-02  0.1180000E+00
       11   -1    0    0    0    0  0.00000000000E+00  0.00000000000E+00  0.39999999673E+01  0.40000000000E+01  0.51109989000E-03 0. -1.
     -623   -1    0    0    0    0  0.00000000000E+00  0.00000000000E+00  0.12525980253E-10  0.17130000000E+03  0.17130000000E+03 0.  1.
       11    1    1    2    0    0 -0.51108546416E-03  0.51811335064E-02  0.65820412555E-01  0.66027973502E-01  0.51109989000E-03 0. -1.
     -623    1    1    2    0    0  0.12951060509E-02 -0.25845308538E-03  0.41405419249E-03  0.17130000001E+03  0.17130000000E+03 0.  1.
      622    1    1    2    0    0 -0.78402058700E-03 -0.49226804210E-02  0.39337655013E+01  0.39339720216E+01  0.40000000000E-01 0. -1.
</event>
<event>
 5   0  0.7212170E+07  0.9118800E+02  0.7818608E-02  0.1180000E+00
       11   -1    0    0    0    0  0.00000000000E+00  0.00000000000E+00  0.39999999673E+01  0.40000000000E+01  0.51109989000E-03 0. -1.
     -623   -1    0    0    0    0  0.00000000000E+00  0.00000000000E+00  0.12525980253E-10  0.17130000000E+03  0.17130000000E+03 0. -1.
       11    1    1    2    0    0 -0.69764537808E-02 -0.15333869178E-01  0.30827303527E+00  0.30873341891E+00  0.51109989000E-03 0. -1.
     -623    1    1    2    0    0  0.89775824606E-03 -0.51514760170E-02  0.73901937414E-03  0.17130000008E+03  0.17130000000E+03 0. -1.
      622    1    1    2    0    0  0.60786955348E-02  0.20485345195E-01  0.36909879127E+01  0.36912664997E+01  0.40000000000E-01 0. -1.
</event>
<event>
 5   0  0.7212170E+07  0.9118800E+02  0.7818608E-02  0.1180000E+00
       11   -1    0    0    0    0  0.00000000000E+00  0.00000000000E+00  0.39999999673E+01  0.40000000000E+01  0.51109989000E-03 0. -1.
     -623   -1    0    0    0    0  0.00000000000E+00  0.00000000000E+00  0.12525980253E-10  0.17130000000E+03  0.17130000000E+03 0. -1.
       11    1    1    2    0    0  0.96308773855E-03 -0.73723470775E-03  0.57596010221E-02  0.59080690617E-02  0.51109989000E-03 0. -1.
     -623    1    1    2    0    0  0.23074779166E-03  0.10077041706E-02  0.34892732333E-03  0.17130000000E+03  0.17130000000E+03 0. -1.
      622    1    1    2    0    0 -0.11938355302E-02 -0.27046946298E-03  0.39938914397E+01  0.39940919282E+01  0.40000000000E-01 0. -1.
</event>
<event>
 5   0  0.7212170E+07  0.9118800E+02  0.7818608E-02  0.1180000E+00
       11   -1    0    0    0    0  0.00000000000E+00  0.00000000000E+00  0.39999999673E+01  0.40000000000E+01  0.51109989000E-03 0.  1.
     -623   -1    0    0    0    0  0.00000000000E+00  0.00000000000E+00  0.12525980253E-10  0.17130000000E+03  0.17130000000E+03 0. -1.
       11    1    1    2    0    0 -0.20767808784E-01  0.13037150623E-01  0.71966654822E+00  0.72008434994E+00  0.51109989000E-03 0.  1.
     -623    1    1    2    0    0  0.70613614522E-03  0.76616149564E-03  0.75209864200E-03  0.17130000000E+03  0.17130000000E+03 0. -1.
      622    1    1    2    0    0  0.20061672639E-01 -0.13803312119E-01  0.32795813205E+01  0.32799156452E+01  0.40000000000E-01 0. -1.
</event>
<event>
 5   0  0.7212170E+07  0.9118800E+02  0.7818608E-02  0.1180000E+00
       11   -1    0    0    0    0  0.00000000000E+00  0.00000000000E+00  0.39999999673E+01  0.40000000000E+01  0.51109989000E-03 0. -1.
     -623   -1    0    0    0    0  0.00000000000E+00  0.00000000000E+00  0.12525980253E-10  0.17130000000E+03  0.17130000000E+03 0. -1.
       11    1    1    2    0    0  0.59854538527E-02  0.34177014140E-02  0.29021332636E-01  0.29832956807E-01  0.51109989000E-03 0. -1.
     -623    1    1    2    0    0 -0.53526368675E-02  0.15952507997E-02  0.10164089896E-02  0.17130000009E+03  0.17130000000E+03 0. -1.
      622    1    1    2    0    0 -0.63281698470E-03 -0.50129522138E-02  0.39699622261E+01  0.39701669495E+01  0.40000000000E-01 0. -1.
</event>
<event>
 5   0  0.7212170E+07  0.9118800E+02  0.7818608E-02  0.1180000E+00
       11   -1    0    0    0    0  0.00000000000E+00  0.00000000000E+00  0.39999999673E+01  0.40000000000E+01  0.51109989000E-03 0.  1.
     -623   -1    0    0    0    0  0.00000000000E+00  0.00000000000E+00  0.12525980253E-10  0.17130000000E+03  0.17130000000E+03 0.  1.
       11    1    1    2    0    0  0.81170077711E-02  0.52066433557E-02  0.11540505899E+00  0.11580839268E+00  0.51109989000E-03 0.  1.
     -623    1    1    2    0    0 -0.41977570118E-01 -0.92455708026E-02  0.76436563095E-03  0.17130000539E+03  0.17130000000E+03 0.  1.
      622    1    1    2    0    0  0.33860562354E-01  0.40389274485E-02  0.38838305434E+01  0.38841862134E+01  0.40000000000E-01 0.  1.
</event>
<event>
 5   0  0.7212170E+07  0.9118800E+02  0.7818608E-02  0.1180000E+00
       11   -1    0    0    0    0  0.00000000000E+00  0.00000000000E+00  0.39999999673E+01  0.40000000000E+01  0.51109989000E-03 0. -1.
     -623   -1    0    0    0    0  0.00000000000E+00  0.00000000000E+00  0.12525980253E-10  0.17130000000E+03  0.17130000000E+03 0. -1.
       11    1    1    2    0    0 -0.53682758136E-02 -0.83210248260E-03  0.12595476173E+00  0.12607289164E+00  0.51109989000E-03 0. -1.
     -623    1    1    2    0    0 -0.57803606321E-04 -0.53686907525E-03  0.32865489144E-03  0.17130000000E+03  0.17130000000E+03 0. -1.
      622    1    1    2    0    0  0.54260794199E-02  0.13689715579E-02  0.38737165510E+01  0.38739271075E+01  0.40000000000E-01 0. -1.
</event>
<event>
 5   0  0.7212170E+07  0.9118800E+02  0.7818608E-02  0.1180000E+00
       11   -1    0    0    0    0  0.00000000000E+00  0.00000000000E+00  0.39999999673E+01  0.40000000000E+01  0.51109989000E-03 0.  1.
     -623   -1    0    0    0    0  0.00000000000E+00  0.00000000000E+00  0.12525980253E-10  0.17130000000E+03  0.17130000000E+03 0. -1.
       11    1    1    2    0    0 -0.15375527219E-02 -0.13546327624E-02  0.44337145346E-02  0.49110229041E-02  0.51109989000E-03 0.  1.
     -623    1    1    2    0    0  0.15361863134E-02 -0.34875153935E-03  0.67789834003E-03  0.17130000001E+03  0.17130000000E+03 0. -1.
      622    1    1    2    0    0  0.13664083335E-05  0.17033843018E-02  0.39948883550E+01  0.39950889690E+01  0.40000000000E-01 0.  1.
</event>
<event>
 5   0  0.7212170E+07  0.9118800E+02  0.7818608E-02  0.1180000E+00
       11   -1    0    0    0    0  0.00000000000E+00  0.00000000000E+00  0.39999999673E+01  0.40000000000E+01  0.51109989000E-03 0. -1.
     -623   -1    0    0    0    0  0.00000000000E+00  0.00000000000E+00  0.12525980253E-10  0.17130000000E+03  0.17130000000E+03 0. -1.
       11    1    1    2    0    0 -0.35151506409E-02 -0.39134561865E-02  0.34609347388E+00  0.34613382573E+00  0.51109989000E-03 0. -1.
     -623    1    1    2    0    0  0.89897227414E-03 -0.46884453777E-03  0.26283992176E-03  0.17130000000E+03  0.17130000000E+03 0. -1.
      622    1    1    2    0    0  0.26161783668E-02  0.43823007243E-02  0.36536436536E+01  0.36538661711E+01  0.40000000000E-01 0. -1.
</event>
<event>
 5   0  0.7212170E+07  0.9118800E+02  0.7818608E-02  0.1180000E+00
       11   -1    0    0    0    0  0.00000000000E+00  0.00000000000E+00  0.39999999673E+01  0.40000000000E+01  0.51109989000E-03 0. -1.
     -623   -1    0    0    0    0  0.00000000000E+00  0.00000000000E+00  0.12525980253E-10  0.17130000000E+03  0.17130000000E+03 0. -1.
       11    1    1    2    0    0 -0.97976350097E-04 -0.34628781626E-02  0.45471189735E-01  0.45605826859E-01  0.51109989000E-03 0. -1.
     -623    1    1    2    0    0 -0.60315638990E-03  0.98658190296E-04  0.33841097117E-03  0.17130000000E+03  0.17130000000E+03 0. -1.
      622    1    1    2    0    0  0.70113273999E-03  0.33642199723E-02  0.39541903666E+01  0.39543941717E+01  0.40000000000E-01 0. -1.
</event>
<event>
 5   0  0.7212170E+07  0.9118800E+02  0.7818608E-02  0.1180000E+00
       11   -1    0    0    0    0  0.00000000000E+00  0.00000000000E+00  0.39999999673E+01  0.40000000000E+01  0.51109989000E-03 0. -1.
     -623   -1    0    0    0    0  0.00000000000E+00  0.00000000000E+00  0.12525980253E-10  0.17130000000E+03  0.17130000000E+03 0. -1.
       11    1    1    2    0    0 -0.25877601038E-02  0.92706864985E-03  0.30346351578E-01  0.30474878766E-01  0.51109989000E-03 0. -1.
     -623    1    1    2    0    0 -0.15651585242E-02 -0.25561699854E-02  0.33256846682E-03  0.17130000003E+03  0.17130000000E+03 0. -1.
      622    1    1    2    0    0  0.41529186283E-02  0.16291013360E-02  0.39693210480E+01  0.39695250954E+01  0.40000000000E-01 0. -1.
</event>
<event>
 5   0  0.7212170E+07  0.9118800E+02  0.7818608E-02  0.1180000E+00
       11   -1    0    0    0    0  0.00000000000E+00  0.00000000000E+00  0.39999999673E+01  0.40000000000E+01  0.51109989000E-03 0.  1.
     -623   -1    0    0    0    0  0.00000000000E+00  0.00000000000E+00  0.12525980253E-10  0.17130000000E+03  0.17130000000E+03 0. -1.
       11    1    1    2    0    0  0.12415372813E-01 -0.30879940717E-02  0.10307247057E+01  0.10308042284E+01  0.51109989000E-03 0.  1.
     -623    1    1    2    0    0 -0.21055727727E-03 -0.21479526458E-02  0.37865281466E-03  0.17130000001E+03  0.17130000000E+03 0. -1.
      622    1    1    2    0    0 -0.12204815536E-01  0.52359467170E-02  0.29688966080E+01  0.29691957567E+01  0.40000000000E-01 0.  1.
</event>
<event>
 5   0  0.7212170E+07  0.9118800E+02  0.7818608E-02  0.1180000E+00
       11   -1    0    0    0    0  0.00000000000E+00  0.00000000000E+00  0.39999999673E+01  0.40000000000E+01  0.51109989000E-03 0.  1.
     -623   -1    0    0    0    0  0.00000000000E+00  0.00000000000E+00  0.12525980253E-10  0.17130000000E+03  0.17130000000E+03 0. -1.
       11    1    1    2    0    0  0.11414452582E-01 -0.58021105529E-02  0.15098310117E+01  0.15098853928E+01  0.51109989000E-03 0.  1.
     -623    1    1    2    0    0  0.10383828284E-01  0.22385826657E-02  0.47394425538E-03  0.17130000033E+03  0.17130000000E+03 0. -1.
      622    1    1    2    0    0 -0.21798280866E-01  0.35635278871E-02  0.24896950116E+01  0.24901142774E+01  0.40000000000E-01 0.  0.
</event>
<event>
 5   0  0.7212170E+07  0.9118800E+02  0.7818608E-02  0.1180000E+00
       11   -1    0    0    0    0  0.00000000000E+00  0.00000000000E+00  0.39999999673E+01  0.40000000000E+01  0.51109989000E-03 0. -1.
     -623   -1    0    0    0    0  0.00000000000E+00  0.00000000000E+00  0.12525980253E-10  0.17130000000E+03  0.17130000000E+03 0.  1.
       11    1    1    2    0    0 -0.28921628184E-02 -0.91127919252E-02  0.59377207079E-01  0.60144172836E-01  0.51109989000E-03 0. -1.
     -623    1    1    2    0    0 -0.48438237578E-03 -0.35140267062E-03  0.98281018955E-03  0.17130000000E+03  0.17130000000E+03 0.  1.
      622    1    1    2    0    0  0.33765451942E-02  0.94641945959E-02  0.39396399505E+01  0.39398558237E+01  0.40000000000E-01 0. -1.
</event>
<event>
 5   0  0.7212170E+07  0.9118800E+02  0.7818608E-02  0.1180000E+00
       11   -1    0    0    0    0  0.00000000000E+00  0.00000000000E+00  0.39999999673E+01  0.40000000000E+01  0.51109989000E-03 0. -1.
     -623   -1    0    0    0    0  0.00000000000E+00  0.00000000000E+00  0.12525980253E-10  0.17130000000E+03  0.17130000000E+03 0. -1.
       11    1    1    2    0    0  0.33226776924E-01 -0.33772467764E-02  0.21871004873E+01  0.21873555329E+01  0.51109989000E-03 0. -1.
     -623    1    1    2    0    0 -0.29467068243E-01 -0.17496445945E-01  0.82396203932E-03  0.17130000343E+03  0.17130000000E+03 0. -1.
      622    1    1    2    0    0 -0.37597086785E-02  0.20873692723E-01  0.18120755184E+01  0.18126410375E+01  0.40000000000E-01 0. -1.
</event>
<event>
 5   0  0.7212170E+07  0.9118800E+02  0.7818608E-02  0.1180000E+00
       11   -1    0    0    0    0  0.00000000000E+00  0.00000000000E+00  0.39999999673E+01  0.40000000000E+01  0.51109989000E-03 0.  1.
     -623   -1    0    0    0    0  0.00000000000E+00  0.00000000000E+00  0.12525980253E-10  0.17130000000E+03  0.17130000000E+03 0.  1.
       11    1    1    2    0    0 -0.23528700635E-02 -0.27496644752E-02  0.45665744701E+00  0.45667207248E+00  0.51109989000E-03 0.  1.
     -623    1    1    2    0    0  0.39194741956E-03  0.12495955152E-03  0.24189195604E-03  0.17130000000E+03  0.17130000000E+03 0.  1.
      622    1    1    2    0    0  0.19609226439E-02  0.26247049237E-02  0.35431006292E+01  0.35433279277E+01  0.40000000000E-01 0. -1.
</event>
<event>
 5   0  0.7212170E+07  0.9118800E+02  0.7818608E-02  0.1180000E+00
       11   -1    0    0    0    0  0.00000000000E+00  0.00000000000E+00  0.39999999673E+01  0.40000000000E+01  0.51109989000E-03 0. -1.
     -623   -1    0    0    0    0  0.00000000000E+00  0.00000000000E+00  0.12525980253E-10  0.17130000000E+03  0.17130000000E+03 0.  1.
       11    1    1    2    0    0 -0.13164095943E-02  0.18796260361E-02  0.30915325606E-01  0.31004588510E-01  0.51109989000E-03 0. -1.
     -623    1    1    2    0    0  0.76681516316E-03 -0.26178673126E-02  0.29092640391E-03  0.17130000002E+03  0.17130000000E+03 0.  1.
      622    1    1    2    0    0  0.54959443095E-03  0.73824127701E-03  0.39687937162E+01  0.39689953903E+01  0.40000000000E-01 0. -1.
</event>
<event>
 5   0  0.7212170E+07  0.9118800E+02  0.7818608E-02  0.1180000E+00
       11   -1    0    0    0    0  0.00000000000E+00  0.00000000000E+00  0.39999999673E+01  0.40000000000E+01  0.51109989000E-03 0. -1.
     -623   -1    0    0    0    0  0.00000000000E+00  0.00000000000E+00  0.12525980253E-10  0.17130000000E+03  0.17130000000E+03 0.  1.
       11    1    1    2    0    0  0.73255546263E-03  0.27932024046E-02  0.34677379837E-01  0.34801156771E-01  0.51109989000E-03 0. -1.
     -623    1    1    2    0    0 -0.18881558942E-02 -0.25691722775E-04  0.32664971886E-03  0.17130000001E+03  0.17130000000E+03 0.  1.
      622    1    1    2    0    0  0.11556004313E-02 -0.27675106818E-02  0.39649959372E+01  0.39651988319E+01  0.40000000000E-01 0. -1.
</event>
<event>
 5   0  0.7212170E+07  0.9118800E+02  0.7818608E-02  0.1180000E+00
       11   -1    0    0    0    0  0.00000000000E+00  0.00000000000E+00  0.39999999673E+01  0.40000000000E+01  0.51109989000E-03 0. -1.
     -623   -1    0    0    0    0  0.00000000000E+00  0.00000000000E+00  0.12525980253E-10  0.17130000000E+03  0.17130000000E+03 0. -1.
       11    1    1    2    0    0 -0.11407678583E-01 -0.18101820644E-02  0.11355466980E+01  0.11356055549E+01  0.51109989000E-03 0. -1.
     -623    1    1    2    0    0  0.96295671883E-04 -0.41253125171E-03  0.36132883757E-03  0.17130000000E+03  0.17130000000E+03 0. -1.
      622    1    1    2    0    0  0.11311382911E-01  0.22227133161E-02  0.28640919400E+01  0.28643944436E+01  0.40000000000E-01 0. -1.
</event>
<event>
 5   0  0.7212170E+07  0.9118800E+02  0.7818608E-02  0.1180000E+00
       11   -1    0    0    0    0  0.00000000000E+00  0.00000000000E+00  0.39999999673E+01  0.40000000000E+01  0.51109989000E-03 0.  1.
     -623   -1    0    0    0    0  0.00000000000E+00  0.00000000000E+00  0.12525980253E-10  0.17130000000E+03  0.17130000000E+03 0. -1.
       11    1    1    2    0    0 -0.28184188924E-01  0.44637237606E-01  0.23025397312E+00  0.23622867067E+00  0.51109989000E-03 0.  1.
     -623    1    1    2    0    0  0.47347116423E-01 -0.26068928273E-01  0.62904593449E-02  0.17130000864E+03  0.17130000000E+03 0. -1.
      622    1    1    2    0    0 -0.19162927498E-01 -0.18568309333E-01  0.37634555349E+01  0.37637626868E+01  0.40000000000E-01 0.  1.
</event>
<event>
 5   0  0.7212170E+07  0.9118800E+02  0.7818608E-02  0.1180000E+00
       11   -1    0    0    0    0  0.00000000000E+00  0.00000000000E+00  0.39999999673E+01  0.40000000000E+01  0.51109989000E-03 0. -1.
     -623   -1    0    0    0    0  0.00000000000E+00  0.00000000000E+00  0.12525980253E-10  0.17130000000E+03  0.17130000000E+03 0.  1.
       11    1    1    2    0    0 -0.27310702384E-02 -0.81435437087E-02  0.14525744453E+01  0.14525999300E+01  0.51109989000E-03 0. -1.
     -623    1    1    2    0    0  0.49422650891E-02 -0.18647566355E-01  0.48246689389E-03  0.17130000109E+03  0.17130000000E+03 0.  1.
      622    1    1    2    0    0 -0.22111948515E-02  0.26791110067E-01  0.25469430558E+01  0.25473989838E+01  0.40000000000E-01 0.  0.
</event>
<event>
 5   0  0.7212170E+07  0.9118800E+02  0.7818608E-02  0.1180000E+00
       11   -1    0    0    0    0  0.00000000000E+00  0.00000000000E+00  0.39999999673E+01  0.40000000000E+01  0.51109989000E-03 0. -1.
     -623   -1    0    0    0    0  0.00000000000E+00  0.00000000000E+00  0.12525980253E-10  0.17130000000E+03  0.17130000000E+03 0.  1.
       11    1    1    2    0    0 -0.10980227472E-02  0.73412296430E-02  0.14796228371E+01  0.14796415447E+01  0.51109989000E-03 0. -1.
     -623    1    1    2    0    0 -0.10533480054E-01 -0.84888045541E-02  0.36374932098E-03  0.17130000053E+03  0.17130000000E+03 0.  1.
      622    1    1    2    0    0  0.11631502802E-01  0.11475749123E-02  0.25200133814E+01  0.25203579212E+01  0.40000000000E-01 0. -1.
</event>
<event>
 5   0  0.7212170E+07  0.9118800E+02  0.7818608E-02  0.1180000E+00
       11   -1    0    0    0    0  0.00000000000E+00  0.00000000000E+00  0.39999999673E+01  0.40000000000E+01  0.51109989000E-03 0.  1.
     -623   -1    0    0    0    0  0.00000000000E+00  0.00000000000E+00  0.12525980253E-10  0.17130000000E+03  0.17130000000E+03 0.  1.
       11    1    1    2    0    0 -0.24997658463E-02 -0.52590292763E-02  0.14786962503E+00  0.14798511226E+00  0.51109989000E-03 0.  1.
     -623    1    1    2    0    0  0.66543660338E-02  0.71610463752E-04  0.32900696203E-03  0.17130000013E+03  0.17130000000E+03 0.  1.
      622    1    1    2    0    0 -0.41546001877E-02  0.51874188125E-02  0.38518013355E+01  0.38520147583E+01  0.40000000000E-01 0.  1.
</event>
<event>
 5   0  0.7212170E+07  0.9118800E+02  0.7818608E-02  0.1180000E+00
       11   -1    0    0    0    0  0.00000000000E+00  0.00000000000E+00  0.39999999673E+01  0.40000000000E+01  0.51109989000E-03 0.  1.
     -623   -1    0    0    0    0  0.00000000000E+00  0.00000000000E+00  0.12525980253E-10  0.17130000000E+03  0.17130000000E+03 0.  1.
       11    1    1    2    0    0  0.23411234214E-02 -0.13251896494E-02  0.78986017369E-01  0.79033468540E-01  0.51109989000E-03 0.  1.
     -623    1    1    2    0    0  0.21144682797E-03 -0.24032764289E-03  0.25259910913E-03  0.17130000000E+03  0.17130000000E+03 0.  1.
      622    1    1    2    0    0 -0.25525702494E-02  0.15655172923E-02  0.39207613513E+01  0.39209665314E+01  0.40000000000E-01 0.  1.
</event>
<event>
 5   0  0.7212170E+07  0.9118800E+02  0.7818608E-02  0.1180000E+00
       11   -1    0    0    0    0  0.00000000000E+00  0.00000000000E+00  0.39999999673E+01  0.40000000000E+01  0.51109989000E-03 0. -1.
     -623   -1    0    0    0    0  0.00000000000E+00  0.00000000000E+00  0.12525980253E-10  0.17130000000E+03  0.17130000000E+03 0.  1.
       11    1    1    2    0    0  0.85814964215E-02 -0.10432080147E-01  0.24469466813E+01  0.24469840198E+01  0.51109989000E-03 0. -1.
     -623    1    1    2    0    0  0.61623340612E-03 -0.33029231233E-02  0.64055730017E-03  0.17130000003E+03  0.17130000000E+03 0.  1.
      622    1    1    2    0    0 -0.91977298277E-02  0.13735003271E-01  0.15524127292E+01  0.15530159466E+01  0.40000000000E-01 0.  0.
</event>
<event>
 5   0  0.7212170E+07  0.9118800E+02  0.7818608E-02  0.1180000E+00
       11   -1    0    0    0    0  0.00000000000E+00  0.00000000000E+00  0.39999999673E+01  0.40000000000E+01  0.51109989000E-03 0.  1.
     -623   -1    0    0    0    0  0.00000000000E+00  0.00000000000E+00  0.12525980253E-10  0.17130000000E+03  0.17130000000E+03 0.  1.
       11    1    1    2    0    0  0.16354881490E-01 -0.11804121248E-01  0.49269479979E+00  0.49310774319E+00  0.51109989000E-03 0.  1.
     -623    1    1    2    0    0 -0.81392681572E-03  0.30806004999E-02  0.68635989724E-03  0.17130000003E+03  0.17130000000E+03 0.  1.
      622    1    1    2    0    0 -0.15540954674E-01  0.87235207479E-02  0.35066188073E+01  0.35068922254E+01  0.40000000000E-01 0.  0.
</event>
<event>
 5   0  0.7212170E+07  0.9118800E+02  0.7818608E-02  0.1180000E+00
       11   -1    0    0    0    0  0.00000000000E+00  0.00000000000E+00  0.39999999673E+01  0.40000000000E+01  0.51109989000E-03 0. -1.
     -623   -1    0    0    0    0  0.00000000000E+00  0.00000000000E+00  0.12525980253E-10  0.17130000000E+03  0.17130000000E+03 0. -1.
       11    1    1    2    0    0  0.24519543955E-02 -0.14479407445E-02  0.87676686416E-01  0.87724404681E-01  0.51109989000E-03 0. -1.
     -623    1    1    2    0    0 -0.25793823118E-04  0.39332583554E-03  0.25307065299E-03  0.17130000000E+03  0.17130000000E+03 0. -1.
      622    1    1    2    0    0 -0.24261605724E-02  0.10546149089E-02  0.39120702109E+01  0.39122755953E+01  0.40000000000E-01 0. -1.
</event>
<event>
 5   0  0.7212170E+07  0.9118800E+02  0.7818608E-02  0.1180000E+00
       11   -1    0    0    0    0  0.00000000000E+00  0.00000000000E+00  0.39999999673E+01  0.40000000000E+01  0.51109989000E-03 0. -1.
     -623   -1    0    0    0    0  0.00000000000E+00  0.00000000000E+00  0.12525980253E-10  0.17130000000E+03  0.17130000000E+03 0.  1.
       11    1    1    2    0    0 -0.47337892887E-02 -0.62105655648E-02  0.58739310757E+00  0.58744523484E+00  0.51109989000E-03 0. -1.
     -623    1    1    2    0    0  0.24839690235E-02  0.77462314940E-04  0.29280275123E-03  0.17130000002E+03  0.17130000000E+03 0.  1.
      622    1    1    2    0    0  0.22498202650E-02  0.61331032499E-02  0.34123140573E+01  0.34125547472E+01  0.40000000000E-01 0. -1.
</event>
<event>
 5   0  0.7212170E+07  0.9118800E+02  0.7818608E-02  0.1180000E+00
       11   -1    0    0    0    0  0.00000000000E+00  0.00000000000E+00  0.39999999673E+01  0.40000000000E+01  0.51109989000E-03 0.  1.
     -623   -1    0    0    0    0  0.00000000000E+00  0.00000000000E+00  0.12525980253E-10  0.17130000000E+03  0.17130000000E+03 0.  1.
       11    1    1    2    0    0 -0.67364485300E-02 -0.12341560273E-01  0.63982113714E+00  0.63997581408E+00  0.51109989000E-03 0.  1.
     -623    1    1    2    0    0  0.12286083451E-01 -0.22569940440E-02  0.42950186232E-03  0.17130000046E+03  0.17130000000E+03 0.  1.
      622    1    1    2    0    0 -0.55496349241E-02  0.14598554317E-01  0.33597493292E+01  0.33600237308E+01  0.40000000000E-01 0.  1.
</event>
<event>
 5   0  0.7212170E+07  0.9118800E+02  0.7818608E-02  0.1180000E+00
       11   -1    0    0    0    0  0.00000000000E+00  0.00000000000E+00  0.39999999673E+01  0.40000000000E+01  0.51109989000E-03 0. -1.
     -623   -1    0    0    0    0  0.00000000000E+00  0.00000000000E+00  0.12525980253E-10  0.17130000000E+03  0.17130000000E+03 0. -1.
       11    1    1    2    0    0  0.99811784185E-03 -0.13719412694E-02  0.15403765859E-01  0.15505343847E-01  0.51109989000E-03 0. -1.
     -623    1    1    2    0    0  0.15474597957E-02  0.15704382824E-02  0.30316128122E-03  0.17130000001E+03  0.17130000000E+03 0. -1.
      622    1    1    2    0    0 -0.25455776378E-02 -0.19849701323E-03  0.39842930408E+01  0.39844946423E+01  0.40000000000E-01 0. -1.
</event>
<event>
 5   0  0.7212170E+07  0.9118800E+02  0.7818608E-02  0.1180000E+00
       11   -1    0    0    0    0  0.00000000000E+00  0.00000000000E+00  0.39999999673E+01  0.40000000000E+01  0.51109989000E-03 0.  1.
     -623   -1    0    0    0    0  0.00000000000E+00  0.00000000000E+00  0.12525980253E-10  0.17130000000E+03  0.17130000000E+03 0. -1.
       11    1    1    2    0    0 -0.59073450703E-03 -0.32691823000E-01  0.11063286323E+01  0.11068118214E+01  0.51109989000E-03 0.  1.
     -623    1    1    2    0    0  0.11634456480E-02  0.39840776347E-02  0.90223451070E-03  0.17130000005E+03  0.17130000000E+03 0. -1.
      622    1    1    2    0    0 -0.57271114088E-03  0.28707745365E-01  0.28927691003E+01  0.28931881257E+01  0.40000000000E-01 0.  0.
</event>
<event>
 5   0  0.7212170E+07  0.9118800E+02  0.7818608E-02  0.1180000E+00
       11   -1    0    0    0    0  0.00000000000E+00  0.00000000000E+00  0.39999999673E+01  0.40000000000E+01  0.51109989000E-03 0.  1.
     -623   -1    0    0    0    0  0.00000000000E+00  0.00000000000E+00  0.12525980253E-10  0.17130000000E+03  0.17130000000E+03 0.  1.
       11    1    1    2    0    0 -0.33595999540E-02  0.85474287469E-02  0.20533795943E+00  0.20554387428E+00  0.51109989000E-03 0.  1.
     -623    1    1    2    0    0 -0.16370305722E-02 -0.83948839411E-03  0.42785170176E-03  0.17130000001E+03  0.17130000000E+03 0.  1.
      622    1    1    2    0    0  0.49966305258E-02 -0.77079403530E-02  0.37942341553E+01  0.37944561144E+01  0.40000000000E-01 0.  1.
</event>
<event>
 5   0  0.7212170E+07  0.9118800E+02  0.7818608E-02  0.1180000E+00
       11   -1    0    0    0    0  0.00000000000E+00  0.00000000000E+00  0.39999999673E+01  0.40000000000E+01  0.51109989000E-03 0.  1.
     -623   -1    0    0    0    0  0.00000000000E+00  0.00000000000E+00  0.12525980253E-10  0.17130000000E+03  0.17130000000E+03 0. -1.
       11    1    1    2    0    0  0.39759233467E-01 -0.28716846808E-01  0.23370255648E+01  0.23375402040E+01  0.51109989000E-03 0.  1.
     -623    1    1    2    0    0 -0.10705751105E-01 -0.31087530149E-01  0.23295397041E-02  0.17130000317E+03  0.17130000000E+03 0. -1.
      622    1    1    2    0    0 -0.29053482363E-01  0.59804376957E-01  0.16606448628E+01  0.16624566246E+01  0.40000000000E-01 0.  1.
</event>
<event>
 5   0  0.7212170E+07  0.9118800E+02  0.7818608E-02  0.1180000E+00
       11   -1    0    0    0    0  0.00000000000E+00  0.00000000000E+00  0.39999999673E+01  0.40000000000E+01  0.51109989000E-03 0.  1.
     -623   -1    0    0    0    0  0.00000000000E+00  0.00000000000E+00  0.12525980253E-10  0.17130000000E+03  0.17130000000E+03 0. -1.
       11    1    1    2    0    0  0.16694927306E-03 -0.13362797939E-03  0.74646722417E-03  0.92960470684E-03  0.51109989000E-03 0.  1.
     -623    1    1    2    0    0 -0.48545920249E-03  0.41495868585E-03  0.38318053734E-03  0.17130000000E+03  0.17130000000E+03 0. -1.
      622    1    1    2    0    0  0.31850992938E-03 -0.28133070642E-03  0.39988703192E+01  0.39990703933E+01  0.40000000000E-01 0.  1.
</event>
<event>
 5   0  0.7212170E+07  0.9118800E+02  0.7818608E-02  0.1180000E+00
       11   -1    0    0    0    0  0.00000000000E+00  0.00000000000E+00  0.39999999673E+01  0.40000000000E+01  0.51109989000E-03 0.  1.
     -623   -1    0    0    0    0  0.00000000000E+00  0.00000000000E+00  0.12525980253E-10  0.17130000000E+03  0.17130000000E+03 0.  1.
       11    1    1    2    0    0 -0.59957156404E-01 -0.61325651584E-02  0.19589787352E+01  0.19599057159E+01  0.51109989000E-03 0.  1.
     -623    1    1    2    0    0 -0.21429707759E-01  0.16574369467E-01  0.29724130525E-02  0.17130000217E+03  0.17130000000E+03 0.  1.
      622    1    1    2    0    0  0.81386864162E-01 -0.10441804308E-01  0.20380488190E+01  0.20400921160E+01  0.40000000000E-01 0. -1.
</event>
<event>
 5   0  0.7212170E+07  0.9118800E+02  0.7818608E-02  0.1180000E+00
       11   -1    0    0    0    0  0.00000000000E+00  0.00000000000E+00  0.39999999673E+01  0.40000000000E+01  0.51109989000E-03 0. -1.
     -623   -1    0    0    0    0  0.00000000000E+00  0.00000000000E+00  0.12525980253E-10  0.17130000000E+03  0.17130000000E+03 0. -1.
       11    1    1    2    0    0 -0.12331197031E-02  0.29725335024E-02 -0.59014119294E-02  0.67412480656E-02  0.51109989000E-03 0. -1.
     -623    1    1    2    0    0 -0.14808223805E-01 -0.56928192138E-02  0.12877337001E-01  0.17130000122E+03  0.17130000000E+03 0. -1.
      622    1    1    2    0    0  0.16041343509E-01  0.27202857115E-02  0.39930240423E+01  0.39932575333E+01  0.40000000000E-01 0. -1.
</event>
<event>
 5   0  0.7212170E+07  0.9118800E+02  0.7818608E-02  0.1180000E+00
       11   -1    0    0    0    0  0.00000000000E+00  0.00000000000E+00  0.39999999673E+01  0.40000000000E+01  0.51109989000E-03 0. -1.
     -623   -1    0    0    0    0  0.00000000000E+00  0.00000000000E+00  0.12525980253E-10  0.17130000000E+03  0.17130000000E+03 0.  1.
       11    1    1    2    0    0 -0.84098982686E-03  0.57393488753E-03  0.30522828469E-03  0.11794289073E-02  0.51109989000E-03 0. -1.
     -623    1    1    2    0    0  0.35411886576E-03 -0.22078377602E-02  0.10746134022E-02  0.17130000002E+03  0.17130000000E+03 0.  1.
      622    1    1    2    0    0  0.48687096106E-03  0.16339028729E-02  0.39986201262E+01  0.39988205536E+01  0.40000000000E-01 0. -1.
</event>
<event>
 5   0  0.7212170E+07  0.9118800E+02  0.7818608E-02  0.1180000E+00
       11   -1    0    0    0    0  0.00000000000E+00  0.00000000000E+00  0.39999999673E+01  0.40000000000E+01  0.51109989000E-03 0. -1.
     -623   -1    0    0    0    0  0.00000000000E+00  0.00000000000E+00  0.12525980253E-10  0.17130000000E+03  0.17130000000E+03 0.  1.
       11    1    1    2    0    0  0.17942910351E-02  0.57377274366E-03 -0.24681662372E-02  0.31467067153E-02  0.51109989000E-03 0. -1.
     -623    1    1    2    0    0 -0.39484793562E-02  0.46858403569E-02  0.58192526243E-02  0.17130000021E+03  0.17130000000E+03 0.  1.
      622    1    1    2    0    0  0.21541883210E-02 -0.52596131006E-02  0.39966488810E+01  0.39968530849E+01  0.40000000000E-01 0. -1.
</event>
<event>
 5   0  0.7212170E+07  0.9118800E+02  0.7818608E-02  0.1180000E+00
       11   -1    0    0    0    0  0.00000000000E+00  0.00000000000E+00  0.39999999673E+01  0.40000000000E+01  0.51109989000E-03 0. -1.
     -623   -1    0    0    0    0  0.00000000000E+00  0.00000000000E+00  0.12525980253E-10  0.17130000000E+03  0.17130000000E+03 0.  1.
       11    1    1    2    0    0 -0.30311944603E-01  0.11873624269E-01  0.18008428089E+01  0.18011371076E+01  0.51109989000E-03 0. -1.
     -623    1    1    2    0    0  0.34515424829E-02 -0.11011641454E-01  0.82277145839E-03  0.17130000039E+03  0.17130000000E+03 0.  1.
      622    1    1    2    0    0  0.26860402120E-01 -0.86198281395E-03  0.21983343874E+01  0.21988625021E+01  0.40000000000E-01 0. -1.
</event>
<event>
 5   0  0.7212170E+07  0.9118800E+02  0.7818608E-02  0.1180000E+00
       11   -1    0    0    0    0  0.00000000000E+00  0.00000000000E+00  0.39999999673E+01  0.40000000000E+01  0.51109989000E-03 0. -1.
     -623   -1    0    0    0    0  0.00000000000E+00  0.00000000000E+00  0.12525980253E-10  0.17130000000E+03  0.17130000000E+03 0.  1.
       11    1    1    2    0    0  0.33641657206E-02 -0.47593171373E-03  0.10008330015E-01  0.10581682984E-01  0.51109989000E-03 0. -1.
     -623    1    1    2    0    0 -0.12031685227E-02 -0.43365448404E-02  0.77740487422E-03  0.17130000006E+03  0.17130000000E+03 0.  1.
      622    1    1    2    0    0 -0.21609971980E-02  0.48124765537E-02  0.39892142321E+01  0.39894182558E+01  0.40000000000E-01 0. -1.
</event>
<event>
 5   0  0.7212170E+07  0.9118800E+02  0.7818608E-02  0.1180000E+00
       11   -1    0    0    0    0  0.00000000000E+00  0.00000000000E+00  0.39999999673E+01  0.40000000000E+01  0.51109989000E-03 0. -1.
     -623   -1    0    0    0    0  0.00000000000E+00  0.00000000000E+00  0.12525980253E-10  0.17130000000E+03  0.17130000000E+03 0. -1.
       11    1    1    2    0    0  0.43630334499E-01  0.90980778780E-02  0.16548680311E+00  0.17138414260E+00  0.51109989000E-03 0. -1.
     -623    1    1    2    0    0 -0.33334232261E-01 -0.28414476568E-01  0.61745535609E-02  0.17130000571E+03  0.17130000000E+03 0. -1.
      622    1    1    2    0    0 -0.10296102238E-01  0.19316398690E-01  0.38283386107E+01  0.38286101462E+01  0.40000000000E-01 0. -1.
</event>
<event>
 5   0  0.7212170E+07  0.9118800E+02  0.7818608E-02  0.1180000E+00
       11   -1    0    0    0    0  0.00000000000E+00  0.00000000000E+00  0.39999999673E+01  0.40000000000E+01  0.51109989000E-03 0.  1.
     -623   -1    0    0    0    0  0.00000000000E+00  0.00000000000E+00  0.12525980253E-10  0.17130000000E+03  0.17130000000E+03 0. -1.
       11    1    1    2    0    0 -0.49804350827E-02 -0.68080145999E-02  0.41257607289E-01  0.42114192130E-01  0.51109989000E-03 0.  1.
     -623    1    1    2    0    0  0.35654839182E-02  0.64975295373E-02  0.10591142101E-02  0.17130000016E+03  0.17130000000E+03 0. -1.
      622    1    1    2    0    0  0.14149511646E-02  0.31048506285E-03  0.39576832457E+01  0.39578856441E+01  0.40000000000E-01 0.  1.
</event>
<event>
 5   0  0.7212170E+07  0.9118800E+02  0.7818608E-02  0.1180000E+00
       11   -1    0    0    0    0  0.00000000000E+00  0.00000000000E+00  0.39999999673E+01  0.40000000000E+01  0.51109989000E-03 0. -1.
     -623   -1    0    0    0    0  0.00000000000E+00  0.00000000000E+00  0.12525980253E-10  0.17130000000E+03  0.17130000000E+03 0.  1.
       11    1    1    2    0    0  0.90653972872E-03  0.12793028063E-02  0.14121189460E-01  0.14217160224E-01  0.51109989000E-03 0. -1.
     -623    1    1    2    0    0 -0.99514459962E-03  0.55720964851E-03  0.29708473261E-03  0.17130000000E+03  0.17130000000E+03 0.  1.
      622    1    1    2    0    0  0.88604870966E-04 -0.18365124549E-02  0.39855816934E+01  0.39857828360E+01  0.40000000000E-01 0. -1.
</event>
<event>
 5   0  0.7212170E+07  0.9118800E+02  0.7818608E-02  0.1180000E+00
       11   -1    0    0    0    0  0.00000000000E+00  0.00000000000E+00  0.39999999673E+01  0.40000000000E+01  0.51109989000E-03 0. -1.
     -623   -1    0    0    0    0  0.00000000000E+00  0.00000000000E+00  0.12525980253E-10  0.17130000000E+03  0.17130000000E+03 0. -1.
       11    1    1    2    0    0 -0.13838136390E-02 -0.44340553065E-02  0.64123253485E-01  0.64293301729E-01  0.51109989000E-03 0. -1.
     -623    1    1    2    0    0  0.26574115037E-02  0.33701733029E-02  0.37369208696E-03  0.17130000005E+03  0.17130000000E+03 0. -1.
      622    1    1    2    0    0 -0.12735978649E-02  0.10638820033E-02  0.39355030221E+01  0.39357066444E+01  0.40000000000E-01 0. -1.
</event>
<event>
 5   0  0.7212170E+07  0.9118800E+02  0.7818608E-02  0.1180000E+00
       11   -1    0    0    0    0  0.00000000000E+00  0.00000000000E+00  0.39999999673E+01  0.40000000000E+01  0.51109989000E-03 0. -1.
     -623   -1    0    0    0    0  0.00000000000E+00  0.00000000000E+00  0.12525980253E-10  0.17130000000E+03  0.17130000000E+03 0. -1.
       11    1    1    2    0    0  0.47473727183E-02  0.51387396171E-02  0.15512652995E+00  0.15528504664E+00  0.51109989000E-03 0. -1.
     -623    1    1    2    0    0 -0.24282975325E-02  0.11201564721E-02  0.37238303623E-03  0.17130000002E+03  0.17130000000E+03 0. -1.
      622    1    1    2    0    0 -0.23190751853E-02 -0.62588960894E-02  0.38445010551E+01  0.38447149328E+01  0.40000000000E-01 0. -1.
</event>
<event>
 5   0  0.7212170E+07  0.9118800E+02  0.7818608E-02  0.1180000E+00
       11   -1    0    0    0    0  0.00000000000E+00  0.00000000000E+00  0.39999999673E+01  0.40000000000E+01  0.51109989000E-03 0. -1.
     -623   -1    0    0    0    0  0.00000000000E+00  0.00000000000E+00  0.12525980253E-10  0.17130000000E+03  0.17130000000E+03 0.  1.
       11    1    1    2    0    0 -0.42760799317E-01  0.52109329529E-01  0.69219442853E+00  0.69546909082E+00  0.51109989000E-03 0. -1.
     -623    1    1    2    0    0  0.21084762309E-01 -0.27738666750E-02  0.39575301358E-02  0.17130000137E+03  0.17130000000E+03 0.  1.
      622    1    1    2    0    0  0.21676037008E-01 -0.49335462854E-01  0.33038480087E+01  0.33045295434E+01  0.40000000000E-01 0. -1.
</event>
<event>
 5   0  0.7212170E+07  0.9118800E+02  0.7818608E-02  0.1180000E+00
       11   -1    0    0    0    0  0.00000000000E+00  0.00000000000E+00  0.39999999673E+01  0.40000000000E+01  0.51109989000E-03 0. -1.
     -623   -1    0    0    0    0  0.00000000000E+00  0.00000000000E+00  0.12525980253E-10  0.17130000000E+03  0.17130000000E+03 0.  1.
       11    1    1    2    0    0 -0.22414822160E-02 -0.76076777666E-03  0.20231521146E-01  0.20375933871E-01  0.51109989000E-03 0. -1.
     -623    1    1    2    0    0  0.49722805486E-03 -0.53470290581E-03  0.34600421574E-03  0.17130000000E+03  0.17130000000E+03 0.  1.
      622    1    1    2    0    0  0.17442541613E-02  0.12954706824E-02  0.39794224411E+01  0.39796240633E+01  0.40000000000E-01 0. -1.
</event>
<event>
 5   0  0.7212170E+07  0.9118800E+02  0.7818608E-02  0.1180000E+00
       11   -1    0    0    0    0  0.00000000000E+00  0.00000000000E+00  0.39999999673E+01  0.40000000000E+01  0.51109989000E-03 0. -1.
     -623   -1    0    0    0    0  0.00000000000E+00  0.00000000000E+00  0.12525980253E-10  0.17130000000E+03  0.17130000000E+03 0. -1.
       11    1    1    2    0    0  0.23917509345E-03  0.16414447429E-03  0.23005358172E-02  0.23744128280E-02  0.51109989000E-03 0. -1.
     -623    1    1    2    0    0  0.21469761755E-03 -0.39282336836E-03  0.27400128273E-03  0.17130000000E+03  0.17130000000E+03 0. -1.
      622    1    1    2    0    0 -0.45387271099E-03  0.22867889404E-03  0.39974254299E+01  0.39976255860E+01  0.40000000000E-01 0. -1.
</event>
<event>
 5   0  0.7212170E+07  0.9118800E+02  0.7818608E-02  0.1180000E+00
       11   -1    0    0    0    0  0.00000000000E+00  0.00000000000E+00  0.39999999673E+01  0.40000000000E+01  0.51109989000E-03 0.  1.
     -623   -1    0    0    0    0  0.00000000000E+00  0.00000000000E+00  0.12525980253E-10  0.17130000000E+03  0.17130000000E+03 0.  1.
       11    1    1    2    0    0  0.36705621796E-02  0.19981432354E-02  0.80839980408E-02  0.91147051804E-02  0.51109989000E-03 0.  1.
     -623    1    1    2    0    0 -0.17422825461E-02 -0.76368389057E-03  0.12318081009E-02  0.17130000001E+03  0.17130000000E+03 0.  1.
      622    1    1    2    0    0 -0.19282796332E-02 -0.12344593447E-02  0.39906841617E+01  0.39908852803E+01  0.40000000000E-01 0.  1.
</event>
<event>
 5   0  0.7212170E+07  0.9118800E+02  0.7818608E-02  0.1180000E+00
       11   -1    0    0    0    0  0.00000000000E+00  0.00000000000E+00  0.39999999673E+01  0.40000000000E+01  0.51109989000E-03 0.  1.
     -623   -1    0    0    0    0  0.00000000000E+00  0.00000000000E+00  0.12525980253E-10  0.17130000000E+03  0.17130000000E+03 0.  1.
       11    1    1    2    0    0  0.20605123330E-02  0.27702135765E-02  0.53613152148E-01  0.53726633067E-01  0.51109989000E-03 0.  1.
     -623    1    1    2    0    0 -0.13004612336E-02  0.38787839311E-03  0.31751898856E-03  0.17130000001E+03  0.17130000000E+03 0.  1.
      622    1    1    2    0    0 -0.76005109930E-03 -0.31580919696E-02  0.39460692965E+01  0.39462733616E+01  0.40000000000E-01 0.  1.
</event>
<event>
 5   0  0.7212170E+07  0.9118800E+02  0.7818608E-02  0.1180000E+00
       11   -1    0    0    0    0  0.00000000000E+00  0.00000000000E+00  0.39999999673E+01  0.40000000000E+01  0.51109989000E-03 0.  1.
     -623   -1    0    0    0    0  0.00000000000E+00  0.00000000000E+00  0.12525980253E-10  0.17130000000E+03  0.17130000000E+03 0. -1.
       11    1    1    2    0    0  0.36951033204E-02  0.46694088975E-01  0.24837407254E+01  0.24841824096E+01  0.51109989000E-03 0.  1.
     -623    1    1    2    0    0 -0.48018112418E-02  0.18979610169E-02  0.17493237439E-02  0.17130000009E+03  0.17130000000E+03 0. -1.
      622    1    1    2    0    0  0.11067079214E-02 -0.48592049992E-01  0.15145099182E+01  0.15158175036E+01  0.40000000000E-01 0.  1.
</event>
<event>
 5   0  0.7212170E+07  0.9118800E+02  0.7818608E-02  0.1180000E+00
       11   -1    0    0    0    0  0.00000000000E+00  0.00000000000E+00  0.39999999673E+01  0.40000000000E+01  0.51109989000E-03 0. -1.
     -623   -1    0    0    0    0  0.00000000000E+00  0.00000000000E+00  0.12525980253E-10  0.17130000000E+03  0.17130000000E+03 0. -1.
       11    1    1    2    0    0  0.10878097075E-02 -0.30437929545E-03  0.25173496757E-02  0.28061092642E-02  0.51109989000E-03 0.  1.
     -623    1    1    2    0    0  0.47158193265E-03 -0.84910191173E-03  0.48934644715E-03  0.17130000000E+03  0.17130000000E+03 0. -1.
      622    1    1    2    0    0 -0.15593916402E-02  0.11534812072E-02  0.39969932714E+01  0.39971938874E+01  0.40000000000E-01 0. -1.
</event>
<event>
 5   0  0.7212170E+07  0.9118800E+02  0.7818608E-02  0.1180000E+00
       11   -1    0    0    0    0  0.00000000000E+00  0.00000000000E+00  0.39999999673E+01  0.40000000000E+01  0.51109989000E-03 0. -1.
     -623   -1    0    0    0    0  0.00000000000E+00  0.00000000000E+00  0.12525980253E-10  0.17130000000E+03  0.17130000000E+03 0. -1.
       11    1    1    2    0    0  0.91738318650E-02  0.92969505433E-03  0.25585964576E-01  0.27201586909E-01  0.51109989000E-03 0. -1.
     -623    1    1    2    0    0  0.12237513238E-02  0.58313636039E-02  0.18364380507E-02  0.17130000011E+03  0.17130000000E+03 0. -1.
      622    1    1    2    0    0 -0.10397583189E-01 -0.67610586587E-02  0.39725775650E+01  0.39727982999E+01  0.40000000000E-01 0. -1.
</event>
<event>
 5   0  0.7212170E+07  0.9118800E+02  0.7818608E-02  0.1180000E+00
       11   -1    0    0    0    0  0.00000000000E+00  0.00000000000E+00  0.39999999673E+01  0.40000000000E+01  0.51109989000E-03 0. -1.
     -623   -1    0    0    0    0  0.00000000000E+00  0.00000000000E+00  0.12525980253E-10  0.17130000000E+03  0.17130000000E+03 0.  1.
       11    1    1    2    0    0 -0.51545910855E-03  0.22626516764E-02  0.15916231202E-01  0.16092635877E-01  0.51109989000E-03 0. -1.
     -623    1    1    2    0    0  0.32684700335E-02  0.15539904561E-01  0.41865146116E-03  0.17130000074E+03  0.17130000000E+03 0.  1.
      622    1    1    2    0    0 -0.27530109260E-02 -0.17802556243E-01  0.39836650860E+01  0.39839066289E+01  0.40000000000E-01 0. -1.
</event>
<event>
 5   0  0.7212170E+07  0.9118800E+02  0.7818608E-02  0.1180000E+00
       11   -1    0    0    0    0  0.00000000000E+00  0.00000000000E+00  0.39999999673E+01  0.40000000000E+01  0.51109989000E-03 0.  1.
     -623   -1    0    0    0    0  0.00000000000E+00  0.00000000000E+00  0.12525980253E-10  0.17130000000E+03  0.17130000000E+03 0. -1.
       11    1    1    2    0    0  0.15360516238E-02  0.32139161271E-02  0.18829246603E+00  0.18832685071E+00  0.51109989000E-03 0.  1.
     -623    1    1    2    0    0 -0.62941458551E-02 -0.95884161560E-03  0.24799493950E-03  0.17130000012E+03  0.17130000000E+03 0. -1.
      622    1    1    2    0    0  0.47580942310E-02 -0.22550745115E-02  0.38114595063E+01  0.38116730307E+01  0.40000000000E-01 0.  1.
</event>
<event>
 5   0  0.7212170E+07  0.9118800E+02  0.7818608E-02  0.1180000E+00
       11   -1    0    0    0    0  0.00000000000E+00  0.00000000000E+00  0.39999999673E+01  0.40000000000E+01  0.51109989000E-03 0.  1.
     -623   -1    0    0    0    0  0.00000000000E+00  0.00000000000E+00  0.12525980253E-10  0.17130000000E+03  0.17130000000E+03 0.  1.
       11    1    1    2    0    0 -0.32811165842E-02 -0.95481776657E-02  0.17815729382E+00  0.17844387349E+00  0.51109989000E-03 0.  1.
     -623    1    1    2    0    0 -0.13271299849E-02 -0.54417597320E-03  0.51200415797E-03  0.17130000001E+03  0.17130000000E+03 0.  1.
      622    1    1    2    0    0  0.46082465691E-02  0.10092353639E-01  0.38213306696E+01  0.38215561199E+01  0.40000000000E-01 0.  1.
</event>
<event>
 5   0  0.7212170E+07  0.9118800E+02  0.7818608E-02  0.1180000E+00
       11   -1    0    0    0    0  0.00000000000E+00  0.00000000000E+00  0.39999999673E+01  0.40000000000E+01  0.51109989000E-03 0. -1.
     -623   -1    0    0    0    0  0.00000000000E+00  0.00000000000E+00  0.12525980253E-10  0.17130000000E+03  0.17130000000E+03 0.  1.
       11    1    1    2    0    0 -0.35001206194E-03  0.16135628628E-02  0.84329109186E-02  0.86082113830E-02  0.51109989000E-03 0. -1.
     -623    1    1    2    0    0  0.96675029805E-03 -0.21463353655E-02  0.37580399297E-03  0.17130000002E+03  0.17130000000E+03 0.  1.
      622    1    1    2    0    0 -0.61673823633E-03  0.53277250311E-03  0.39911912534E+01  0.39913917730E+01  0.40000000000E-01 0. -1.
</event>
<event>
 5   0  0.7212170E+07  0.9118800E+02  0.7818608E-02  0.1180000E+00
       11   -1    0    0    0    0  0.00000000000E+00  0.00000000000E+00  0.39999999673E+01  0.40000000000E+01  0.51109989000E-03 0. -1.
     -623   -1    0    0    0    0  0.00000000000E+00  0.00000000000E+00  0.12525980253E-10  0.17130000000E+03  0.17130000000E+03 0. -1.
       11    1    1    2    0    0 -0.78982827637E-03  0.93982652099E-02  0.21112390300E+00  0.21133507720E+00  0.51109989000E-03 0. -1.
     -623    1    1    2    0    0  0.87991244797E-02 -0.22211870181E-01  0.45410646553E-03  0.17130000167E+03  0.17130000000E+03 0. -1.
      622    1    1    2    0    0 -0.80092962010E-02  0.12813604965E-01  0.37884219569E+01  0.37886632551E+01  0.40000000000E-01 0. -1.
</event>
<event>
 5   0  0.7212170E+07  0.9118800E+02  0.7818608E-02  0.1180000E+00
       11   -1    0    0    0    0  0.00000000000E+00  0.00000000000E+00  0.39999999673E+01  0.40000000000E+01  0.51109989000E-03 0. -1.
     -623   -1    0    0    0    0  0.00000000000E+00  0.00000000000E+00  0.12525980253E-10  0.17130000000E+03  0.17130000000E+03 0. -1.
       11    1    1    2    0    0 -0.20116394257E-02  0.27515956811E-03  0.68087759904E-02  0.71234162838E-02  0.51109989000E-03 0. -1.
     -623    1    1    2    0    0  0.16643049193E-02  0.37425591968E-03  0.51504667720E-03  0.17130000001E+03  0.17130000000E+03 0. -1.
      622    1    1    2    0    0  0.34733450641E-03 -0.64941548779E-03  0.39926761447E+01  0.39928765745E+01  0.40000000000E-01 0. -1.
</event>
<event>
 5   0  0.7212170E+07  0.9118800E+02  0.7818608E-02  0.1180000E+00
       11   -1    0    0    0    0  0.00000000000E+00  0.00000000000E+00  0.39999999673E+01  0.40000000000E+01  0.51109989000E-03 0.  1.
     -623   -1    0    0    0    0  0.00000000000E+00  0.00000000000E+00  0.12525980253E-10  0.17130000000E+03  0.17130000000E+03 0. -1.
       11    1    1    2    0    0 -0.16104313348E-01  0.17385723013E-01  0.13754367931E+00  0.13957126213E+00  0.51109989000E-03 0.  1.
     -623    1    1    2    0    0 -0.37327821991E-02  0.38805193460E-02  0.23444374081E-02  0.17130000010E+03  0.17130000000E+03 0. -1.
      622    1    1    2    0    0  0.19837095547E-01 -0.21266242359E-01  0.38601118507E+01  0.38604286373E+01  0.40000000000E-01 0.  1.
</event>
<event>
 5   0  0.7212170E+07  0.9118800E+02  0.7818608E-02  0.1180000E+00
       11   -1    0    0    0    0  0.00000000000E+00  0.00000000000E+00  0.39999999673E+01  0.40000000000E+01  0.51109989000E-03 0. -1.
     -623   -1    0    0    0    0  0.00000000000E+00  0.00000000000E+00  0.12525980253E-10  0.17130000000E+03  0.17130000000E+03 0. -1.
       11    1    1    2    0    0  0.33331230048E-02 -0.25096731102E-02  0.15459729467E-01  0.16021005786E-01  0.51109989000E-03 0. -1.
     -623    1    1    2    0    0 -0.53667189012E-03 -0.32045079380E-03  0.76404263027E-03  0.17130000000E+03  0.17130000000E+03 0. -1.
      622    1    1    2    0    0 -0.27964511146E-02  0.28301239041E-02  0.39837761959E+01  0.39839789920E+01  0.40000000000E-01 0. -1.
</event>
<event>
 5   0  0.7212170E+07  0.9118800E+02  0.7818608E-02  0.1180000E+00
       11   -1    0    0    0    0  0.00000000000E+00  0.00000000000E+00  0.39999999673E+01  0.40000000000E+01  0.51109989000E-03 0. -1.
     -623   -1    0    0    0    0  0.00000000000E+00  0.00000000000E+00  0.12525980253E-10  0.17130000000E+03  0.17130000000E+03 0.  1.
       11    1    1    2    0    0  0.30033168569E-02 -0.64729546390E-03  0.27081289681E-01  0.27259794157E-01  0.51109989000E-03 0. -1.
     -623    1    1    2    0    0 -0.10074171326E-02 -0.85568686970E-03  0.38064051960E-03  0.17130000001E+03  0.17130000000E+03 0.  1.
      622    1    1    2    0    0 -0.19958997242E-02  0.15029823336E-02  0.39725380372E+01  0.39727402004E+01  0.40000000000E-01 0. -1.
</event>
<event>
 5   0  0.7212170E+07  0.9118800E+02  0.7818608E-02  0.1180000E+00
       11   -1    0    0    0    0  0.00000000000E+00  0.00000000000E+00  0.39999999673E+01  0.40000000000E+01  0.51109989000E-03 0.  1.
     -623   -1    0    0    0    0  0.00000000000E+00  0.00000000000E+00  0.12525980253E-10  0.17130000000E+03  0.17130000000E+03 0.  1.
       11    1    1    2    0    0  0.49232026027E-03  0.58784607033E-02  0.53009389662E-01  0.53339059749E-01  0.51109989000E-03 0.  1.
     -623    1    1    2    0    0 -0.47926347268E-02 -0.55372741842E-02  0.53486073176E-03  0.17130000016E+03  0.17130000000E+03 0.  1.
      622    1    1    2    0    0  0.43003144666E-02 -0.34118651910E-03  0.39464557170E+01  0.39466607829E+01  0.40000000000E-01 0.  1.
</event>
<event>
 5   0  0.7212170E+07  0.9118800E+02  0.7818608E-02  0.1180000E+00
       11   -1    0    0    0    0  0.00000000000E+00  0.00000000000E+00  0.39999999673E+01  0.40000000000E+01  0.51109989000E-03 0. -1.
     -623   -1    0    0    0    0  0.00000000000E+00  0.00000000000E+00  0.12525980253E-10  0.17130000000E+03  0.17130000000E+03 0. -1.
       11    1    1    2    0    0  0.53841009264E-01  0.85422381590E-02  0.50373996454E+00  0.50668139615E+00  0.51109989000E-03 0. -1.
     -623    1    1    2    0    0  0.13898433228E-01 -0.23014853341E-01  0.38594337998E-02  0.17130000215E+03  0.17130000000E+03 0. -1.
      622    1    1    2    0    0 -0.67739442492E-01  0.14472615183E-01  0.34924005692E+01  0.34933164506E+01  0.40000000000E-01 0. -1.
</event>
<event>
 5   0  0.7212170E+07  0.9118800E+02  0.7818608E-02  0.1180000E+00
       11   -1    0    0    0    0  0.00000000000E+00  0.00000000000E+00  0.39999999673E+01  0.40000000000E+01  0.51109989000E-03 0. -1.
     -623   -1    0    0    0    0  0.00000000000E+00  0.00000000000E+00  0.12525980253E-10  0.17130000000E+03  0.17130000000E+03 0.  1.
       11    1    1    2    0    0  0.19958009910E-02  0.36041074320E-02  0.32837369264E-01  0.33098744013E-01  0.51109989000E-03 0. -1.
     -623    1    1    2    0    0 -0.45140970316E-03  0.34257532922E-02  0.46958135457E-03  0.17130000004E+03  0.17130000000E+03 0.  1.
      622    1    1    2    0    0 -0.15443912879E-02 -0.70298607239E-02  0.39666930164E+01  0.39669012201E+01  0.40000000000E-01 0. -1.
</event>
<event>
 5   0  0.7212170E+07  0.9118800E+02  0.7818608E-02  0.1180000E+00
       11   -1    0    0    0    0  0.00000000000E+00  0.00000000000E+00  0.39999999673E+01  0.40000000000E+01  0.51109989000E-03 0. -1.
     -623   -1    0    0    0    0  0.00000000000E+00  0.00000000000E+00  0.12525980253E-10  0.17130000000E+03  0.17130000000E+03 0.  1.
       11    1    1    2    0    0 -0.54155366063E-03 -0.11082710884E-02  0.11316005163E+00  0.11316792856E+00  0.51109989000E-03 0. -1.
     -623    1    1    2    0    0 -0.19307241935E-02  0.41042226534E-03  0.21453334177E-03  0.17130000001E+03  0.17130000000E+03 0.  1.
      622    1    1    2    0    0  0.24722778546E-02  0.69784882298E-03  0.38866253833E+01  0.38868320608E+01  0.40000000000E-01 0. -1.
</event>
<event>
 5   0  0.7212170E+07  0.9118800E+02  0.7818608E-02  0.1180000E+00
       11   -1    0    0    0    0  0.00000000000E+00  0.00000000000E+00  0.39999999673E+01  0.40000000000E+01  0.51109989000E-03 0.  1.
     -623   -1    0    0    0    0  0.00000000000E+00  0.00000000000E+00  0.12525980253E-10  0.17130000000E+03  0.17130000000E+03 0.  1.
       11    1    1    2    0    0  0.25735790792E-01  0.55416223129E-02  0.32607006417E+00  0.32713145443E+00  0.51109989000E-03 0.  1.
     -623    1    1    2    0    0 -0.45392496222E-02  0.16826500359E-02  0.13475245153E-02  0.17130000007E+03  0.17130000000E+03 0.  1.
      622    1    1    2    0    0 -0.21196541169E-01 -0.72242723489E-02  0.36725823790E+01  0.36728684722E+01  0.40000000000E-01 0.  1.
</event>
<event>
 5   0  0.7212170E+07  0.9118800E+02  0.7818608E-02  0.1180000E+00
       11   -1    0    0    0    0  0.00000000000E+00  0.00000000000E+00  0.39999999673E+01  0.40000000000E+01  0.51109989000E-03 0. -1.
     -623   -1    0    0    0    0  0.00000000000E+00  0.00000000000E+00  0.12525980253E-10  0.17130000000E+03  0.17130000000E+03 0.  1.
       11    1    1    2    0    0 -0.20208708082E-02 -0.18174473929E-02  0.80515200256E-01  0.80562681989E-01  0.51109989000E-03 0. -1.
     -623    1    1    2    0    0 -0.15804335041E-02  0.44047886271E-02  0.25413807301E-03  0.17130000006E+03  0.17130000000E+03 0.  1.
      622    1    1    2    0    0  0.36013043131E-02 -0.25873412362E-02  0.39192306308E+01  0.39194372557E+01  0.40000000000E-01 0. -1.
</event>
<event>
 5   0  0.7212170E+07  0.9118800E+02  0.7818608E-02  0.1180000E+00
       11   -1    0    0    0    0  0.00000000000E+00  0.00000000000E+00  0.39999999673E+01  0.40000000000E+01  0.51109989000E-03 0. -1.
     -623   -1    0    0    0    0  0.00000000000E+00  0.00000000000E+00  0.12525980253E-10  0.17130000000E+03  0.17130000000E+03 0. -1.
       11    1    1    2    0    0  0.24249858681E-02 -0.81932922019E-03  0.15541922426E-02  0.30378600126E-02  0.51109989000E-03 0. -1.
     -623    1    1    2    0    0 -0.40369075824E-03 -0.13200378053E-02  0.16848896916E-02  0.17130000001E+03  0.17130000000E+03 0. -1.
      622    1    1    2    0    0 -0.20212951098E-02  0.21393670255E-02  0.39967608856E+01  0.39969621263E+01  0.40000000000E-01 0. -1.
</event>
<event>
 5   0  0.7212170E+07  0.9118800E+02  0.7818608E-02  0.1180000E+00
       11   -1    0    0    0    0  0.00000000000E+00  0.00000000000E+00  0.39999999673E+01  0.40000000000E+01  0.51109989000E-03 0.  1.
     -623   -1    0    0    0    0  0.00000000000E+00  0.00000000000E+00  0.12525980253E-10  0.17130000000E+03  0.17130000000E+03 0. -1.
       11    1    1    2    0    0 -0.23153700346E-02 -0.34525470996E-01  0.35169085241E+01  0.35170787875E+01  0.51109989000E-03 0.  1.
     -623    1    1    2    0    0 -0.11449246839E-01  0.15205004036E-01  0.24157577578E-02  0.17130000107E+03  0.17130000000E+03 0. -1.
      622    1    1    2    0    0  0.13764616874E-01  0.19320466961E-01  0.48067568542E+00  0.48292013799E+00  0.40000000000E-01 0. -1.
</event>
<event>
 5   0  0.7212170E+07  0.9118800E+02  0.7818608E-02  0.1180000E+00
       11   -1    0    0    0    0  0.00000000000E+00  0.00000000000E+00  0.39999999673E+01  0.40000000000E+01  0.51109989000E-03 0. -1.
     -623   -1    0    0    0    0  0.00000000000E+00  0.00000000000E+00  0.12525980253E-10  0.17130000000E+03  0.17130000000E+03 0. -1.
       11    1    1    2    0    0 -0.43108782604E-02 -0.66860522123E-02  0.89978091189E-01  0.90330532395E-01  0.51109989000E-03 0. -1.
     -623    1    1    2    0    0  0.77375874994E-03 -0.67630292651E-03  0.56557138433E-03  0.17130000000E+03  0.17130000000E+03 0. -1.
      622    1    1    2    0    0  0.35371195104E-02  0.73623551389E-02  0.39094563052E+01  0.39096694640E+01  0.40000000000E-01 0. -1.
</event>
<event>
 5   0  0.7212170E+07  0.9118800E+02  0.7818608E-02  0.1180000E+00
       11   -1    0    0    0    0  0.00000000000E+00  0.00000000000E+00  0.39999999673E+01  0.40000000000E+01  0.51109989000E-03 0. -1.
     -623   -1    0    0    0    0  0.00000000000E+00  0.00000000000E+00  0.12525980253E-10  0.17130000000E+03  0.17130000000E+03 0. -1.
       11    1    1    2    0    0  0.12645162204E-01 -0.11479098752E-01  0.17265235024E+01  0.17266080434E+01  0.51109989000E-03 0. -1.
     -623    1    1    2    0    0  0.34823966965E-02 -0.81525875240E-03  0.52693501414E-03  0.17130000004E+03  0.17130000000E+03 0. -1.
      622    1    1    2    0    0 -0.16127558901E-01  0.12294357505E-01  0.22729495301E+01  0.22733919187E+01  0.40000000000E-01 0.  0.
</event>
<event>
 5   0  0.7212170E+07  0.9118800E+02  0.7818608E-02  0.1180000E+00
       11   -1    0    0    0    0  0.00000000000E+00  0.00000000000E+00  0.39999999673E+01  0.40000000000E+01  0.51109989000E-03 0. -1.
     -623   -1    0    0    0    0  0.00000000000E+00  0.00000000000E+00  0.12525980253E-10  0.17130000000E+03  0.17130000000E+03 0. -1.
       11    1    1    2    0    0  0.21444035807E-03  0.54624100002E-02  0.17154537188E-01  0.18011753855E-01  0.51109989000E-03 0. -1.
     -623    1    1    2    0    0  0.32829376600E-02  0.10122926454E-02  0.10649316641E-02  0.17130000004E+03  0.17130000000E+03 0. -1.
      622    1    1    2    0    0 -0.34973780180E-02 -0.64747026456E-02  0.39817804984E+01  0.39819882083E+01  0.40000000000E-01 0. -1.
</event>
<event>
 5   0  0.7212170E+07  0.9118800E+02  0.7818608E-02  0.1180000E+00
       11   -1    0    0    0    0  0.00000000000E+00  0.00000000000E+00  0.39999999673E+01  0.40000000000E+01  0.51109989000E-03 0. -1.
     -623   -1    0    0    0    0  0.00000000000E+00  0.00000000000E+00  0.12525980253E-10  0.17130000000E+03  0.17130000000E+03 0. -1.
       11    1    1    2    0    0 -0.22931261021E-02 -0.14259462658E-01  0.14976646346E+00  0.15046210653E+00  0.51109989000E-03 0. -1.
     -623    1    1    2    0    0  0.75447325557E-02 -0.12863197494E-01  0.10032230518E-02  0.17130000065E+03  0.17130000000E+03 0. -1.
      622    1    1    2    0    0 -0.52516064537E-02  0.27122660152E-01  0.38492302809E+01  0.38495372415E+01  0.40000000000E-01 0. -1.
</event>
<event>
 5   0  0.7212170E+07  0.9118800E+02  0.7818608E-02  0.1180000E+00
       11   -1    0    0    0    0  0.00000000000E+00  0.00000000000E+00  0.39999999673E+01  0.40000000000E+01  0.51109989000E-03 0.  1.
     -623   -1    0    0    0    0  0.00000000000E+00  0.00000000000E+00  0.12525980253E-10  0.17130000000E+03  0.17130000000E+03 0.  1.
       11    1    1    2    0    0 -0.76214286763E-02  0.29630754960E-02  0.17927197152E+00  0.17945909558E+00  0.51109989000E-03 0.  1.
     -623    1    1    2    0    0 -0.16203599754E-03  0.16631393092E-03  0.40570288405E-03  0.17130000000E+03  0.17130000000E+03 0.  1.
      622    1    1    2    0    0  0.77834646739E-02 -0.31293894269E-02  0.38203222937E+01  0.38205409045E+01  0.40000000000E-01 0.  0.
</event>
<event>
 5   0  0.7212170E+07  0.9118800E+02  0.7818608E-02  0.1180000E+00
       11   -1    0    0    0    0  0.00000000000E+00  0.00000000000E+00  0.39999999673E+01  0.40000000000E+01  0.51109989000E-03 0. -1.
     -623   -1    0    0    0    0  0.00000000000E+00  0.00000000000E+00  0.12525980253E-10  0.17130000000E+03  0.17130000000E+03 0. -1.
       11    1    1    2    0    0  0.84546716915E-02 -0.29537517482E-02  0.72064909836E-01  0.72621061515E-01  0.51109989000E-03 0. -1.
     -623    1    1    2    0    0  0.32772877498E-02 -0.36431673935E-03  0.77878169184E-03  0.17130000003E+03  0.17130000000E+03 0. -1.
      622    1    1    2    0    0 -0.11731959441E-01  0.33180684875E-02  0.39271562757E+01  0.39273789048E+01  0.40000000000E-01 0. -1.
</event>
<event>
 5   0  0.7212170E+07  0.9118800E+02  0.7818608E-02  0.1180000E+00
       11   -1    0    0    0    0  0.00000000000E+00  0.00000000000E+00  0.39999999673E+01  0.40000000000E+01  0.51109989000E-03 0.  1.
     -623   -1    0    0    0    0  0.00000000000E+00  0.00000000000E+00  0.12525980253E-10  0.17130000000E+03  0.17130000000E+03 0.  1.
       11    1    1    2    0    0  0.43341635240E-01 -0.44583475974E-01  0.89098271775E+00  0.89314984646E+00  0.51109989000E-03 0.  1.
     -623    1    1    2    0    0  0.46516472290E-03  0.88706349709E-02  0.29390396993E-02  0.17130000026E+03  0.17130000000E+03 0.  1.
      622    1    1    2    0    0 -0.43806799963E-01  0.35712841003E-01  0.31060782100E+01  0.31068498981E+01  0.40000000000E-01 0.  1.
</event>
<event>
 5   0  0.7212170E+07  0.9118800E+02  0.7818608E-02  0.1180000E+00
       11   -1    0    0    0    0  0.00000000000E+00  0.00000000000E+00  0.39999999673E+01  0.40000000000E+01  0.51109989000E-03 0. -1.
     -623   -1    0    0    0    0  0.00000000000E+00  0.00000000000E+00  0.12525980253E-10  0.17130000000E+03  0.17130000000E+03 0. -1.
       11    1    1    2    0    0 -0.39096652407E-02  0.61022131092E-02  0.16842509950E+01  0.16842666647E+01  0.51109989000E-03 0. -1.
     -623    1    1    2    0    0  0.24230439407E-03 -0.72774235850E-02  0.36448356523E-03  0.17130000016E+03  0.17130000000E+03 0. -1.
      622    1    1    2    0    0  0.36673608467E-02  0.11752104754E-02  0.23153844886E+01  0.23157331799E+01  0.40000000000E-01 0. -1.
</event>
<event>
 5   0  0.7212170E+07  0.9118800E+02  0.7818608E-02  0.1180000E+00
       11   -1    0    0    0    0  0.00000000000E+00  0.00000000000E+00  0.39999999673E+01  0.40000000000E+01  0.51109989000E-03 0. -1.
     -623   -1    0    0    0    0  0.00000000000E+00  0.00000000000E+00  0.12525980253E-10  0.17130000000E+03  0.17130000000E+03 0. -1.
       11    1    1    2    0    0  0.69689739008E-03 -0.10176396815E-01  0.12351794469E+01  0.12352216692E+01  0.51109989000E-03 0. -1.
     -623    1    1    2    0    0 -0.31258973401E-02  0.10748037289E-03  0.35099166571E-03  0.17130000003E+03  0.17130000000E+03 0. -1.
      622    1    1    2    0    0  0.24289999514E-02  0.10068916442E-01  0.27644695305E+01  0.27647783036E+01  0.40000000000E-01 0. -1.
</event>
<event>
 5   0  0.7212170E+07  0.9118800E+02  0.7818608E-02  0.1180000E+00
       11   -1    0    0    0    0  0.00000000000E+00  0.00000000000E+00  0.39999999673E+01  0.40000000000E+01  0.51109989000E-03 0.  1.
     -623   -1    0    0    0    0  0.00000000000E+00  0.00000000000E+00  0.12525980253E-10  0.17130000000E+03  0.17130000000E+03 0. -1.
       11    1    1    2    0    0 -0.37478296959E-03  0.52753098892E-03  0.46721667978E-02  0.47443773988E-02  0.51109989000E-03 0.  1.
     -623    1    1    2    0    0  0.16298334698E-02  0.46058584011E-03  0.27274840533E-03  0.17130000001E+03  0.17130000000E+03 0. -1.
      622    1    1    2    0    0 -0.12550505007E-02 -0.98811682915E-03  0.39950550532E+01  0.39952556151E+01  0.40000000000E-01 0.  1.
</event>
<event>
 5   0  0.7212170E+07  0.9118800E+02  0.7818608E-02  0.1180000E+00
       11   -1    0    0    0    0  0.00000000000E+00  0.00000000000E+00  0.39999999673E+01  0.40000000000E+01  0.51109989000E-03 0.  1.
     -623   -1    0    0    0    0  0.00000000000E+00  0.00000000000E+00  0.12525980253E-10  0.17130000000E+03  0.17130000000E+03 0.  1.
       11    1    1    2    0    0  0.10399904518E-01 -0.17557635184E-01  0.11313423850E+01  0.11315265273E+01  0.51109989000E-03 0.  1.
     -623    1    1    2    0    0  0.23319984824E-03  0.28062525205E-03  0.53476441302E-03  0.17130000000E+03  0.17130000000E+03 0.  1.
      622    1    1    2    0    0 -0.10633104366E-01  0.17277009932E-01  0.28681228178E+01  0.28684734713E+01  0.40000000000E-01 0.  1.
</event>
<event>
 5   0  0.7212170E+07  0.9118800E+02  0.7818608E-02  0.1180000E+00
       11   -1    0    0    0    0  0.00000000000E+00  0.00000000000E+00  0.39999999673E+01  0.40000000000E+01  0.51109989000E-03 0. -1.
     -623   -1    0    0    0    0  0.00000000000E+00  0.00000000000E+00  0.12525980253E-10  0.17130000000E+03  0.17130000000E+03 0. -1.
       11    1    1    2    0    0 -0.11880119055E-02  0.44241595170E-04  0.96839534133E+00  0.96839620593E+00  0.51109989000E-03 0. -1.
     -623    1    1    2    0    0  0.21340327205E-03 -0.56546757593E-03  0.26493292939E-03  0.17130000000E+03  0.17130000000E+03 0. -1.
      622    1    1    2    0    0  0.97460863341E-03  0.52122598093E-03  0.30313396943E+01  0.30316037940E+01  0.40000000000E-01 0. -1.
</event>
<event>
 5   0  0.7212170E+07  0.9118800E+02  0.7818608E-02  0.1180000E+00
       11   -1    0    0    0    0  0.00000000000E+00  0.00000000000E+00  0.39999999673E+01  0.40000000000E+01  0.51109989000E-03 0. -1.
     -623   -1    0    0    0    0  0.00000000000E+00  0.00000000000E+00  0.12525980253E-10  0.17130000000E+03  0.17130000000E+03 0.  1.
       11    1    1    2    0    0 -0.32974169758E-03 -0.29463682361E-02  0.33624199703E+00  0.33625545588E+00  0.51109989000E-03 0. -1.
     -623    1    1    2    0    0 -0.58382610991E-03  0.56686657624E-03  0.23267730194E-03  0.17130000000E+03  0.17130000000E+03 0.  1.
      622    1    1    2    0    0  0.91356780736E-03  0.23795016599E-02  0.36635252921E+01  0.36637445411E+01  0.40000000000E-01 0. -1.
</event>
<event>
 5   0  0.7212170E+07  0.9118800E+02  0.7818608E-02  0.1180000E+00
       11   -1    0    0    0    0  0.00000000000E+00  0.00000000000E+00  0.39999999673E+01  0.40000000000E+01  0.51109989000E-03 0.  1.
     -623   -1    0    0    0    0  0.00000000000E+00  0.00000000000E+00  0.12525980253E-10  0.17130000000E+03  0.17130000000E+03 0. -1.
       11    1    1    2    0    0 -0.62829100140E-02 -0.32093259194E-02  0.70931682071E+00  0.70935209036E+00  0.51109989000E-03 0.  1.
     -623    1    1    2    0    0  0.15784552872E-01  0.16101184221E-02  0.29320183802E-03  0.17130000074E+03  0.17130000000E+03 0. -1.
      622    1    1    2    0    0 -0.95016428667E-02  0.15992074964E-02  0.32903899470E+01  0.32906471768E+01  0.40000000000E-01 0.  1.
</event>
<event>
 5   0  0.7212170E+07  0.9118800E+02  0.7818608E-02  0.1180000E+00
       11   -1    0    0    0    0  0.00000000000E+00  0.00000000000E+00  0.39999999673E+01  0.40000000000E+01  0.51109989000E-03 0.  1.
     -623   -1    0    0    0    0  0.00000000000E+00  0.00000000000E+00  0.12525980253E-10  0.17130000000E+03  0.17130000000E+03 0.  1.
       11    1    1    2    0    0  0.29989889324E-03 -0.53593019678E-03  0.44201396768E-02  0.44917722986E-02  0.51109989000E-03 0.  1.
     -623    1    1    2    0    0  0.10039660439E-02  0.52881150347E-03  0.27204657819E-03  0.17130000000E+03  0.17130000000E+03 0.  1.
      622    1    1    2    0    0 -0.13038649373E-02  0.71186932347E-05  0.39953077817E+01  0.39955082243E+01  0.40000000000E-01 0.  1.
</event>
<event>
 5   0  0.7212170E+07  0.9118800E+02  0.7818608E-02  0.1180000E+00
       11   -1    0    0    0    0  0.00000000000E+00  0.00000000000E+00  0.39999999673E+01  0.40000000000E+01  0.51109989000E-03 0. -1.
     -623   -1    0    0    0    0  0.00000000000E+00  0.00000000000E+00  0.12525980253E-10  0.17130000000E+03  0.17130000000E+03 0.  1.
       11    1    1    2    0    0 -0.16089159668E-02 -0.42623069663E-02  0.17633679997E+00  0.17639638352E+00  0.51109989000E-03 0. -1.
     -623    1    1    2    0    0  0.39636379266E-03  0.94916672081E-03  0.27041440853E-03  0.17130000000E+03  0.17130000000E+03 0.  1.
      622    1    1    2    0    0  0.12125521740E-02  0.33131402452E-02  0.38233927540E+01  0.38236036142E+01  0.40000000000E-01 0. -1.
</event>
<event>
 5   0  0.7212170E+07  0.9118800E+02  0.7818608E-02  0.1180000E+00
       11   -1    0    0    0    0  0.00000000000E+00  0.00000000000E+00  0.39999999673E+01  0.40000000000E+01  0.51109989000E-03 0. -1.
     -623   -1    0    0    0    0  0.00000000000E+00  0.00000000000E+00  0.12525980253E-10  0.17130000000E+03  0.17130000000E+03 0. -1.
       11    1    1    2    0    0  0.12450665661E-02 -0.45517859226E-02  0.28654977513E+00  0.28658908527E+00  0.51109989000E-03 0. -1.
     -623    1    1    2    0    0  0.59678865228E-02  0.48959661035E-02  0.26191484656E-03  0.17130000017E+03  0.17130000000E+03 0. -1.
      622    1    1    2    0    0 -0.72129530883E-02 -0.34418018047E-03  0.37131882770E+01  0.37134107402E+01  0.40000000000E-01 0.  0.
</event>
<event>
 5   0  0.7212170E+07  0.9118800E+02  0.7818608E-02  0.1180000E+00
       11   -1    0    0    0    0  0.00000000000E+00  0.00000000000E+00  0.39999999673E+01  0.40000000000E+01  0.51109989000E-03 0. -1.
     -623   -1    0    0    0    0  0.00000000000E+00  0.00000000000E+00  0.12525980253E-10  0.17130000000E+03  0.17130000000E+03 0. -1.
       11    1    1    2    0    0  0.11649558909E-02  0.12169033456E-02  0.26028644767E-02  0.31423084766E-02  0.51109989000E-03 0. -1.
     -623    1    1    2    0    0 -0.21528935259E-02  0.81755597173E-03  0.74023060613E-03  0.17130000002E+03  0.17130000000E+03 0. -1.
      622    1    1    2    0    0  0.98793763511E-03 -0.20344593174E-02  0.39966568724E+01  0.39968576746E+01  0.40000000000E-01 0. -1.
</event>
<event>
 5   0  0.7212170E+07  0.9118800E+02  0.7818608E-02  0.1180000E+00
       11   -1    0    0    0    0  0.00000000000E+00  0.00000000000E+00  0.39999999673E+01  0.40000000000E+01  0.51109989000E-03 0.  1.
     -623   -1    0    0    0    0  0.00000000000E+00  0.00000000000E+00  0.12525980253E-10  0.17130000000E+03  0.17130000000E+03 0. -1.
       11    1    1    2    0    0  0.94768659850E-04 -0.12157647458E-02  0.22247191494E-01  0.22286449190E-01  0.51109989000E-03 0.  1.
     -623    1    1    2    0    0 -0.15825480409E-03  0.94966943040E-04  0.24050939228E-03  0.17130000000E+03  0.17130000000E+03 0. -1.
      622    1    1    2    0    0  0.63486144261E-04  0.11207978027E-02  0.39775122669E+01  0.39777135510E+01  0.40000000000E-01 0.  1.
</event>
<event>
 5   0  0.7212170E+07  0.9118800E+02  0.7818608E-02  0.1180000E+00
       11   -1    0    0    0    0  0.00000000000E+00  0.00000000000E+00  0.39999999673E+01  0.40000000000E+01  0.51109989000E-03 0. -1.
     -623   -1    0    0    0    0  0.00000000000E+00  0.00000000000E+00  0.12525980253E-10  0.17130000000E+03  0.17130000000E+03 0.  1.
       11    1    1    2    0    0 -0.22032407993E-02 -0.71864067520E-03  0.20585331312E-01  0.20721674709E-01  0.51109989000E-03 0. -1.
     -623    1    1    2    0    0  0.54444519527E-02  0.99733191445E-04  0.33881242334E-03  0.17130000009E+03  0.17130000000E+03 0.  1.
      622    1    1    2    0    0 -0.32412111549E-02  0.61890748373E-03  0.39790758247E+01  0.39792782395E+01  0.40000000000E-01 0. -1.
</event>
<event>
 5   0  0.7212170E+07  0.9118800E+02  0.7818608E-02  0.1180000E+00
       11   -1    0    0    0    0  0.00000000000E+00  0.00000000000E+00  0.39999999673E+01  0.40000000000E+01  0.51109989000E-03 0. -1.
     -623   -1    0    0    0    0  0.00000000000E+00  0.00000000000E+00  0.12525980253E-10  0.17130000000E+03  0.17130000000E+03 0.  1.
       11    1    1    2    0    0 -0.22644015289E-01  0.91382080197E-02  0.10108226748E+01  0.10111176981E+01  0.51109989000E-03 0. -1.
     -623    1    1    2    0    0 -0.23342265387E-03  0.26626382925E-02  0.67354570376E-03  0.17130000002E+03  0.17130000000E+03 0.  1.
      622    1    1    2    0    0  0.22877437943E-01 -0.11800846312E-01  0.29885037469E+01  0.29888822798E+01  0.40000000000E-01 0. -1.
</event>
<event>
 5   0  0.7212170E+07  0.9118800E+02  0.7818608E-02  0.1180000E+00
       11   -1    0    0    0    0  0.00000000000E+00  0.00000000000E+00  0.39999999673E+01  0.40000000000E+01  0.51109989000E-03 0. -1.
     -623   -1    0    0    0    0  0.00000000000E+00  0.00000000000E+00  0.12525980253E-10  0.17130000000E+03  0.17130000000E+03 0. -1.
       11    1    1    2    0    0 -0.85470455853E-03  0.17471326606E-02  0.85450744227E-01  0.85474404967E-01  0.51109989000E-03 0. -1.
     -623    1    1    2    0    0 -0.21283412712E-03 -0.68194026546E-03  0.22829262121E-03  0.17130000000E+03  0.17130000000E+03 0. -1.
      622    1    1    2    0    0  0.10675386857E-02 -0.10651923951E-02  0.39143209307E+01  0.39145255936E+01  0.40000000000E-01 0. -1.
</event>
<event>
 5   0  0.7212170E+07  0.9118800E+02  0.7818608E-02  0.1180000E+00
       11   -1    0    0    0    0  0.00000000000E+00  0.00000000000E+00  0.39999999673E+01  0.40000000000E+01  0.51109989000E-03 0. -1.
     -623   -1    0    0    0    0  0.00000000000E+00  0.00000000000E+00  0.12525980253E-10  0.17130000000E+03  0.17130000000E+03 0.  1.
       11    1    1    2    0    0 -0.30033106866E-02  0.32576508461E-02  0.32553708793E-01  0.32857835343E-01  0.51109989000E-03 0. -1.
     -623    1    1    2    0    0 -0.93823710351E-04 -0.86063326394E-03  0.50769169399E-03  0.17130000000E+03  0.17130000000E+03 0.  1.
      622    1    1    2    0    0  0.30971343969E-02 -0.23970175820E-02  0.39669385679E+01  0.39671421627E+01  0.40000000000E-01 0. -1.
</event>
<event>
 5   0  0.7212170E+07  0.9118800E+02  0.7818608E-02  0.1180000E+00
       11   -1    0    0    0    0  0.00000000000E+00  0.00000000000E+00  0.39999999673E+01  0.40000000000E+01  0.51109989000E-03 0.  1.
     -623   -1    0    0    0    0  0.00000000000E+00  0.00000000000E+00  0.12525980253E-10  0.17130000000E+03  0.17130000000E+03 0.  1.
       11    1    1    2    0    0 -0.12071322584E-02  0.13690080679E-02  0.17889763855E-01  0.17989892308E-01  0.51109989000E-03 0.  1.
     -623    1    1    2    0    0  0.21209902732E-03 -0.23711417352E-02  0.30127168185E-03  0.17130000002E+03  0.17130000000E+03 0.  1.
      622    1    1    2    0    0  0.99503323106E-03  0.10021336678E-02  0.39818089326E+01  0.39820100917E+01  0.40000000000E-01 0.  1.
</event>
<event>
 5   0  0.7212170E+07  0.9118800E+02  0.7818608E-02  0.1180000E+00
       11   -1    0    0    0    0  0.00000000000E+00  0.00000000000E+00  0.39999999673E+01  0.40000000000E+01  0.51109989000E-03 0. -1.
     -623   -1    0    0    0    0  0.00000000000E+00  0.00000000000E+00  0.12525980253E-10  0.17130000000E+03  0.17130000000E+03 0. -1.
       11    1    1    2    0    0  0.11190745042E-03 -0.59561920930E-03  0.30114690557E-01  0.30125123999E-01  0.51109989000E-03 0. -1.
     -623    1    1    2    0    0  0.99631411681E-04  0.21668784060E-03  0.21194762230E-03  0.17130000000E+03  0.17130000000E+03 0. -1.
      622    1    1    2    0    0 -0.21153886214E-03  0.37893136860E-03  0.39696733310E+01  0.39698748775E+01  0.40000000000E-01 0. -1.
</event>
<event>
 5   0  0.7212170E+07  0.9118800E+02  0.7818608E-02  0.1180000E+00
       11   -1    0    0    0    0  0.00000000000E+00  0.00000000000E+00  0.39999999673E+01  0.40000000000E+01  0.51109989000E-03 0. -1.
     -623   -1    0    0    0    0  0.00000000000E+00  0.00000000000E+00  0.12525980253E-10  0.17130000000E+03  0.17130000000E+03 0.  1.
       11    1    1    2    0    0 -0.24793836567E-02 -0.81535817832E-03  0.79292808531E-02  0.83634245510E-02  0.51109989000E-03 0. -1.
     -623    1    1    2    0    0 -0.40658918233E-02 -0.18310452768E-02  0.64083826088E-03  0.17130000006E+03  0.17130000000E+03 0.  1.
      622    1    1    2    0    0  0.65452754803E-02  0.26464034553E-02  0.39914298485E+01  0.39916365164E+01  0.40000000000E-01 0. -1.
</event>
<event>
 5   0  0.7212170E+07  0.9118800E+02  0.7818608E-02  0.1180000E+00
       11   -1    0    0    0    0  0.00000000000E+00  0.00000000000E+00  0.39999999673E+01  0.40000000000E+01  0.51109989000E-03 0.  1.
     -623   -1    0    0    0    0  0.00000000000E+00  0.00000000000E+00  0.12525980253E-10  0.17130000000E+03  0.17130000000E+03 0. -1.
       11    1    1    2    0    0  0.23190086975E-02 -0.18599023952E-02  0.35123899089E-01  0.35253177850E-01  0.51109989000E-03 0.  1.
     -623    1    1    2    0    0  0.37692892289E-03  0.82154225709E-03  0.33208490917E-03  0.17130000000E+03  0.17130000000E+03 0. -1.
      622    1    1    2    0    0 -0.26959376203E-02  0.10383601381E-02  0.39645439833E+01  0.39647468193E+01  0.40000000000E-01 0.  1.
</event>
<event>
 5   0  0.7212170E+07  0.9118800E+02  0.7818608E-02  0.1180000E+00
       11   -1    0    0    0    0  0.00000000000E+00  0.00000000000E+00  0.39999999673E+01  0.40000000000E+01  0.51109989000E-03 0.  1.
     -623   -1    0    0    0    0  0.00000000000E+00  0.00000000000E+00  0.12525980253E-10  0.17130000000E+03  0.17130000000E+03 0. -1.
       11    1    1    2    0    0 -0.16011800554E-01 -0.13711902203E-01  0.30495368182E+01  0.30496097227E+01  0.51109989000E-03 0.  1.
     -623    1    1    2    0    0  0.29143763173E-01 -0.14353896703E-01  0.14238059280E-02  0.17130000309E+03  0.17130000000E+03 0. -1.
      622    1    1    2    0    0 -0.13131962619E-01  0.28065798906E-01  0.94903934318E+00  0.95038719079E+00  0.40000000000E-01 0.  0.
</event>
<event>
 5   0  0.7212170E+07  0.9118800E+02  0.7818608E-02  0.1180000E+00
       11   -1    0    0    0    0  0.00000000000E+00  0.00000000000E+00  0.39999999673E+01  0.40000000000E+01  0.51109989000E-03 0. -1.
     -623   -1    0    0    0    0  0.00000000000E+00  0.00000000000E+00  0.12525980253E-10  0.17130000000E+03  0.17130000000E+03 0. -1.
       11    1    1    2    0    0 -0.24460331626E-02  0.16322850435E-01  0.85329929944E+00  0.85345906415E+00  0.51109989000E-03 0. -1.
     -623    1    1    2    0    0 -0.12988229284E-01 -0.14881775272E-01  0.45331633393E-03  0.17130000114E+03  0.17130000000E+03 0. -1.
      622    1    1    2    0    0  0.15434262446E-01 -0.14410751631E-02  0.31462473516E+01  0.31465397964E+01  0.40000000000E-01 0. -1.
</event>
<event>
 5   0  0.7212170E+07  0.9118800E+02  0.7818608E-02  0.1180000E+00
       11   -1    0    0    0    0  0.00000000000E+00  0.00000000000E+00  0.39999999673E+01  0.40000000000E+01  0.51109989000E-03 0. -1.
     -623   -1    0    0    0    0  0.00000000000E+00  0.00000000000E+00  0.12525980253E-10  0.17130000000E+03  0.17130000000E+03 0.  1.
       11    1    1    2    0    0 -0.10162778321E-01  0.16334757149E-01  0.43187898619E+00  0.43230755983E+00  0.51109989000E-03 0. -1.
     -623    1    1    2    0    0  0.10682696714E-01 -0.70063296284E-02  0.66549450387E-03  0.17130000048E+03  0.17130000000E+03 0.  1.
      622    1    1    2    0    0 -0.51991839231E-03 -0.93284275201E-02  0.35674554866E+01  0.35676919625E+01  0.40000000000E-01 0. -1.
</event>
<event>
 5   0  0.7212170E+07  0.9118800E+02  0.7818608E-02  0.1180000E+00
       11   -1    0    0    0    0  0.00000000000E+00  0.00000000000E+00  0.39999999673E+01  0.40000000000E+01  0.51109989000E-03 0. -1.
     -623   -1    0    0    0    0  0.00000000000E+00  0.00000000000E+00  0.12525980253E-10  0.17130000000E+03  0.17130000000E+03 0. -1.
       11    1    1    2    0    0  0.37333933286E-03 -0.15524202482E-02  0.21494659067E-02  0.27259526163E-02  0.51109989000E-03 0. -1.
     -623    1    1    2    0    0  0.25866688540E-02  0.14808368041E-02  0.77771981667E-03  0.17130000003E+03  0.17130000000E+03 0. -1.
      622    1    1    2    0    0 -0.29600081867E-02  0.71583444142E-04  0.39970727815E+01  0.39972740195E+01  0.40000000000E-01 0. -1.
</event>
<event>
 5   0  0.7212170E+07  0.9118800E+02  0.7818608E-02  0.1180000E+00
       11   -1    0    0    0    0  0.00000000000E+00  0.00000000000E+00  0.39999999673E+01  0.40000000000E+01  0.51109989000E-03 0.  1.
     -623   -1    0    0    0    0  0.00000000000E+00  0.00000000000E+00  0.12525980253E-10  0.17130000000E+03  0.17130000000E+03 0.  1.
       11    1    1    2    0    0 -0.30984609494E-03 -0.10679759265E-02  0.68349765169E-01  0.68360721171E-01  0.51109989000E-03 0.  1.
     -623    1    1    2    0    0 -0.18730945988E-03  0.24332690417E-02  0.21469211428E-03  0.17130000002E+03  0.17130000000E+03 0.  1.
      622    1    1    2    0    0  0.49715555484E-03 -0.13652931156E-02  0.39314355107E+01  0.39316392619E+01  0.40000000000E-01 0.  1.
</event>
<event>
 5   0  0.7212170E+07  0.9118800E+02  0.7818608E-02  0.1180000E+00
       11   -1    0    0    0    0  0.00000000000E+00  0.00000000000E+00  0.39999999673E+01  0.40000000000E+01  0.51109989000E-03 0. -1.
     -623   -1    0    0    0    0  0.00000000000E+00  0.00000000000E+00  0.12525980253E-10  0.17130000000E+03  0.17130000000E+03 0. -1.
       11    1    1    2    0    0  0.29011441980E-02  0.33972629992E-02  0.34701086902E+00  0.34704000126E+00  0.51109989000E-03 0. -1.
     -623    1    1    2    0    0 -0.30628281523E-04  0.87315472499E-03  0.25173323471E-03  0.17130000000E+03  0.17130000000E+03 0. -1.
      622    1    1    2    0    0 -0.28705159165E-02 -0.42704177244E-02  0.36527373660E+01  0.36529599972E+01  0.40000000000E-01 0. -1.
</event>
<event>
 5   0  0.7212170E+07  0.9118800E+02  0.7818608E-02  0.1180000E+00
       11   -1    0    0    0    0  0.00000000000E+00  0.00000000000E+00  0.39999999673E+01  0.40000000000E+01  0.51109989000E-03 0.  1.
     -623   -1    0    0    0    0  0.00000000000E+00  0.00000000000E+00  0.12525980253E-10  0.17130000000E+03  0.17130000000E+03 0. -1.
       11    1    1    2    0    0 -0.21016405884E-01 -0.10247663996E-01  0.28181164976E+01  0.28182135404E+01  0.51109989000E-03 0.  1.
     -623    1    1    2    0    0  0.44226624578E-03  0.47872556050E-03  0.99376322128E-03  0.17130000000E+03  0.17130000000E+03 0. -1.
      622    1    1    2    0    0  0.20574139638E-01  0.97689384356E-02  0.11808897066E+01  0.11817864555E+01  0.40000000000E-01 0.  0.
</event>
<event>
 5   0  0.7212170E+07  0.9118800E+02  0.7818608E-02  0.1180000E+00
       11   -1    0    0    0    0  0.00000000000E+00  0.00000000000E+00  0.39999999673E+01  0.40000000000E+01  0.51109989000E-03 0. -1.
     -623   -1    0    0    0    0  0.00000000000E+00  0.00000000000E+00  0.12525980253E-10  0.17130000000E+03  0.17130000000E+03 0.  1.
       11    1    1    2    0    0 -0.89697954098E-04  0.64087176728E-03  0.11486337368E-02  0.14139819320E-02  0.51109989000E-03 0. -1.
     -623    1    1    2    0    0 -0.65407205683E-03 -0.58460497912E-03  0.46546373643E-03  0.17130000000E+03  0.17130000000E+03 0.  1.
      622    1    1    2    0    0  0.74377001105E-03 -0.56266788056E-04  0.39983858706E+01  0.39985860159E+01  0.40000000000E-01 0. -1.
</event>
<event>
 5   0  0.7212170E+07  0.9118800E+02  0.7818608E-02  0.1180000E+00
       11   -1    0    0    0    0  0.00000000000E+00  0.00000000000E+00  0.39999999673E+01  0.40000000000E+01  0.51109989000E-03 0. -1.
     -623   -1    0    0    0    0  0.00000000000E+00  0.00000000000E+00  0.12525980253E-10  0.17130000000E+03  0.17130000000E+03 0.  1.
       11    1    1    2    0    0 -0.10189366452E-01  0.50616501015E-01  0.87010683533E+00  0.87163755052E+00  0.51109989000E-03 0. -1.
     -623    1    1    2    0    0 -0.66613983208E-02  0.24827669073E-02  0.22826836714E-02  0.17130000016E+03  0.17130000000E+03 0.  1.
      622    1    1    2    0    0  0.16850764773E-01 -0.53099267922E-01  0.31276104485E+01  0.31283622869E+01  0.40000000000E-01 0. -1.
</event>
<event>
 5   0  0.7212170E+07  0.9118800E+02  0.7818608E-02  0.1180000E+00
       11   -1    0    0    0    0  0.00000000000E+00  0.00000000000E+00  0.39999999673E+01  0.40000000000E+01  0.51109989000E-03 0. -1.
     -623   -1    0    0    0    0  0.00000000000E+00  0.00000000000E+00  0.12525980253E-10  0.17130000000E+03  0.17130000000E+03 0.  1.
       11    1    1    2    0    0 -0.62408723913E-02 -0.29113502497E-01  0.14578808665E+01  0.14581849768E+01  0.51109989000E-03 0. -1.
     -623    1    1    2    0    0 -0.72893233595E-03  0.10395880504E-02  0.78345672578E-03  0.17130000001E+03  0.17130000000E+03 0.  1.
      622    1    1    2    0    0  0.69698047273E-02  0.28073914447E-01  0.25413356445E+01  0.25418150170E+01  0.40000000000E-01 0. -1.
</event>
<event>
 5   0  0.7212170E+07  0.9118800E+02  0.7818608E-02  0.1180000E+00
       11   -1    0    0    0    0  0.00000000000E+00  0.00000000000E+00  0.39999999673E+01  0.40000000000E+01  0.51109989000E-03 0. -1.
     -623   -1    0    0    0    0  0.00000000000E+00  0.00000000000E+00  0.12525980253E-10  0.17130000000E+03  0.17130000000E+03 0. -1.
       11    1    1    2    0    0 -0.85933534835E-03 -0.48471579285E-02  0.27571941717E-01  0.28012614843E-01  0.51109989000E-03 0. -1.
     -623    1    1    2    0    0  0.33181103089E-02  0.49467276958E-02  0.64292318785E-03  0.17130000010E+03  0.17130000000E+03 0. -1.
      622    1    1    2    0    0 -0.24587749602E-02 -0.99569766841E-04  0.39717851021E+01  0.39719872800E+01  0.40000000000E-01 0. -1.
</event>
<event>
 5   0  0.7212170E+07  0.9118800E+02  0.7818608E-02  0.1180000E+00
       11   -1    0    0    0    0  0.00000000000E+00  0.00000000000E+00  0.39999999673E+01  0.40000000000E+01  0.51109989000E-03 0. -1.
     -623   -1    0    0    0    0  0.00000000000E+00  0.00000000000E+00  0.12525980253E-10  0.17130000000E+03  0.17130000000E+03 0. -1.
       11    1    1    2    0    0  0.11181689260E-02 -0.27421179641E-03  0.28138066236E-02  0.30828922571E-02  0.51109989000E-03 0. -1.
     -623    1    1    2    0    0 -0.75293874123E-03  0.91547517374E-03  0.46928514516E-03  0.17130000000E+03  0.17130000000E+03 0. -1.
      622    1    1    2    0    0 -0.36523018470E-03 -0.64126337737E-03  0.39967168758E+01  0.39969171032E+01  0.40000000000E-01 0. -1.
</event>
<event>
 5   0  0.7212170E+07  0.9118800E+02  0.7818608E-02  0.1180000E+00
       11   -1    0    0    0    0  0.00000000000E+00  0.00000000000E+00  0.39999999673E+01  0.40000000000E+01  0.51109989000E-03 0. -1.
     -623   -1    0    0    0    0  0.00000000000E+00  0.00000000000E+00  0.12525980253E-10  0.17130000000E+03  0.17130000000E+03 0. -1.
       11    1    1    2    0    0 -0.62072835567E-01 -0.56673361028E-02  0.28014388300E+01  0.28021322123E+01  0.51109989000E-03 0. -1.
     -623    1    1    2    0    0  0.28541303605E-02  0.15332498706E-01  0.28666913921E-02  0.17130000073E+03  0.17130000000E+03 0. -1.
      622    1    1    2    0    0  0.59218705207E-01 -0.96651626031E-02  0.11956944460E+01  0.11978670539E+01  0.40000000000E-01 0. -1.
</event>
<event>
 5   0  0.7212170E+07  0.9118800E+02  0.7818608E-02  0.1180000E+00
       11   -1    0    0    0    0  0.00000000000E+00  0.00000000000E+00  0.39999999673E+01  0.40000000000E+01  0.51109989000E-03 0.  1.
     -623   -1    0    0    0    0  0.00000000000E+00  0.00000000000E+00  0.12525980253E-10  0.17130000000E+03  0.17130000000E+03 0.  1.
       11    1    1    2    0    0  0.13572137333E-01 -0.20049870012E-01  0.82132530434E+00  0.82168224818E+00  0.51109989000E-03 0.  1.
     -623    1    1    2    0    0 -0.27743181815E-02  0.38702909324E-02  0.66822330814E-03  0.17130000007E+03  0.17130000000E+03 0.  1.
      622    1    1    2    0    0 -0.10797819152E-01  0.16179579080E-01  0.31780064400E+01  0.31783176846E+01  0.40000000000E-01 0.  0.
</event>
<event>
 5   0  0.7212170E+07  0.9118800E+02  0.7818608E-02  0.1180000E+00
       11   -1    0    0    0    0  0.00000000000E+00  0.00000000000E+00  0.39999999673E+01  0.40000000000E+01  0.51109989000E-03 0.  1.
     -623   -1    0    0    0    0  0.00000000000E+00  0.00000000000E+00  0.12525980253E-10  0.17130000000E+03  0.17130000000E+03 0.  1.
       11    1    1    2    0    0 -0.25012798515E-02 -0.18108776654E-02  0.52190471115E-01  0.52284244062E-01  0.51109989000E-03 0.  1.
     -623    1    1    2    0    0  0.48410198337E-02  0.49653443655E-02  0.29848874667E-03  0.17130000014E+03  0.17130000000E+03 0.  1.
      622    1    1    2    0    0 -0.23397399830E-02 -0.31544667009E-02  0.39475110082E+01  0.39477156160E+01  0.40000000000E-01 0.  1.
</event>
<event>
 5   0  0.7212170E+07  0.9118800E+02  0.7818608E-02  0.1180000E+00
       11   -1    0    0    0    0  0.00000000000E+00  0.00000000000E+00  0.39999999673E+01  0.40000000000E+01  0.51109989000E-03 0. -1.
     -623   -1    0    0    0    0  0.00000000000E+00  0.00000000000E+00  0.12525980253E-10  0.17130000000E+03  0.17130000000E+03 0.  1.
       11    1    1    2    0    0 -0.34316065687E-01  0.28074929843E-02  0.31875619293E+00  0.32061073927E+00  0.51109989000E-03 0. -1.
     -623    1    1    2    0    0  0.65383783862E-02  0.14362084680E-01  0.22176147942E-02  0.17130000074E+03  0.17130000000E+03 0.  1.
      622    1    1    2    0    0  0.27777687301E-01 -0.17169577665E-01  0.36790261598E+01  0.36793885197E+01  0.40000000000E-01 0. -1.
</event>
<event>
 5   0  0.7212170E+07  0.9118800E+02  0.7818608E-02  0.1180000E+00
       11   -1    0    0    0    0  0.00000000000E+00  0.00000000000E+00  0.39999999673E+01  0.40000000000E+01  0.51109989000E-03 0. -1.
     -623   -1    0    0    0    0  0.00000000000E+00  0.00000000000E+00  0.12525980253E-10  0.17130000000E+03  0.17130000000E+03 0.  1.
       11    1    1    2    0    0  0.94273191044E-03  0.11281939770E-02  0.55519638944E-01  0.55541453858E-01  0.51109989000E-03 0. -1.
     -623    1    1    2    0    0  0.11499346889E-02  0.48242692543E-03  0.22549234117E-03  0.17130000000E+03  0.17130000000E+03 0.  1.
      622    1    1    2    0    0 -0.20926665991E-02 -0.16106209024E-02  0.39442548354E+01  0.39444585408E+01  0.40000000000E-01 0. -1.
</event>
<event>
 5   0  0.7212170E+07  0.9118800E+02  0.7818608E-02  0.1180000E+00
       11   -1    0    0    0    0  0.00000000000E+00  0.00000000000E+00  0.39999999673E+01  0.40000000000E+01  0.51109989000E-03 0. -1.
     -623   -1    0    0    0    0  0.00000000000E+00  0.00000000000E+00  0.12525980253E-10  0.17130000000E+03  0.17130000000E+03 0.  1.
       11    1    1    2    0    0  0.41007465314E-02 -0.27254939873E-01  0.89755919666E+00  0.89798241664E+00  0.51109989000E-03 0. -1.
     -623    1    1    2    0    0 -0.66617615111E-03 -0.30390813423E-02  0.83096679772E-03  0.17130000003E+03  0.17130000000E+03 0.  1.
      622    1    1    2    0    0 -0.34345703803E-02  0.30294021215E-01  0.31016098037E+01  0.31020175529E+01  0.40000000000E-01 0. -1.
</event>
<event>
 5   0  0.7212170E+07  0.9118800E+02  0.7818608E-02  0.1180000E+00
       11   -1    0    0    0    0  0.00000000000E+00  0.00000000000E+00  0.39999999673E+01  0.40000000000E+01  0.51109989000E-03 0.  1.
     -623   -1    0    0    0    0  0.00000000000E+00  0.00000000000E+00  0.12525980253E-10  0.17130000000E+03  0.17130000000E+03 0. -1.
       11    1    1    2    0    0  0.15829636845E-01  0.22304939073E-01  0.22243903842E+00  0.22411486953E+00  0.51109989000E-03 0.  1.
     -623    1    1    2    0    0  0.54789949814E-02 -0.36346501547E-02  0.19941052102E-02  0.17130000014E+03  0.17130000000E+03 0. -1.
      622    1    1    2    0    0 -0.21308631827E-01 -0.18670288918E-01  0.37755668236E+01  0.37758849926E+01  0.40000000000E-01 0.  1.
</event>
<event>
 5   0  0.7212170E+07  0.9118800E+02  0.7818608E-02  0.1180000E+00
       11   -1    0    0    0    0  0.00000000000E+00  0.00000000000E+00  0.39999999673E+01  0.40000000000E+01  0.51109989000E-03 0.  1.
     -623   -1    0    0    0    0  0.00000000000E+00  0.00000000000E+00  0.12525980253E-10  0.17130000000E+03  0.17130000000E+03 0. -1.
       11    1    1    2    0    0 -0.49655805927E-02  0.49865112188E-02  0.16103094317E+00  0.16118544651E+00  0.51109989000E-03 0.  1.
     -623    1    1    2    0    0 -0.49042537669E-03  0.59257162709E-04  0.37006887004E-03  0.17130000000E+03  0.17130000000E+03 0. -1.
      622    1    1    2    0    0  0.54560059694E-02 -0.50457683815E-02  0.38385989555E+01  0.38388145526E+01  0.40000000000E-01 0.  1.
</event>
<event>
 5   0  0.7212170E+07  0.9118800E+02  0.7818608E-02  0.1180000E+00
       11   -1    0    0    0    0  0.00000000000E+00  0.00000000000E+00  0.39999999673E+01  0.40000000000E+01  0.51109989000E-03 0. -1.
     -623   -1    0    0    0    0  0.00000000000E+00  0.00000000000E+00  0.12525980253E-10  0.17130000000E+03  0.17130000000E+03 0. -1.
       11    1    1    2    0    0  0.68487381035E-01  0.60871015948E-02  0.16703191052E+01  0.16717337553E+01  0.51109989000E-03 0. -1.
     -623    1    1    2    0    0 -0.17638370648E-01 -0.25737914950E-02  0.23172572499E-02  0.17130000094E+03  0.17130000000E+03 0. -1.
      622    1    1    2    0    0 -0.50849010388E-01 -0.35133100999E-02  0.23273636048E+01  0.23282653015E+01  0.40000000000E-01 0.  0.
</event>
<event>
 5   0  0.7212170E+07  0.9118800E+02  0.7818608E-02  0.1180000E+00
       11   -1    0    0    0    0  0.00000000000E+00  0.00000000000E+00  0.39999999673E+01  0.40000000000E+01  0.51109989000E-03 0. -1.
     -623   -1    0    0    0    0  0.00000000000E+00  0.00000000000E+00  0.12525980253E-10  0.17130000000E+03  0.17130000000E+03 0.  1.
       11    1    1    2    0    0  0.51608212752E-03 -0.26517443561E-04  0.14260571098E-03  0.74067767856E-03  0.51109989000E-03 0. -1.
     -623    1    1    2    0    0 -0.18924576862E-02  0.27543667436E-03  0.79833851104E-03  0.17130000001E+03  0.17130000000E+03 0.  1.
      622    1    1    2    0    0  0.13763755586E-02 -0.24891923080E-03  0.39990590231E+01  0.39992593098E+01  0.40000000000E-01 0. -1.
</event>
<event>
 5   0  0.7212170E+07  0.9118800E+02  0.7818608E-02  0.1180000E+00
       11   -1    0    0    0    0  0.00000000000E+00  0.00000000000E+00  0.39999999673E+01  0.40000000000E+01  0.51109989000E-03 0.  1.
     -623   -1    0    0    0    0  0.00000000000E+00  0.00000000000E+00  0.12525980253E-10  0.17130000000E+03  0.17130000000E+03 0. -1.
       11    1    1    2    0    0  0.12302577331E-01  0.81045845745E-02  0.26304394071E+01  0.26304807114E+01  0.51109989000E-03 0.  1.
     -623    1    1    2    0    0 -0.19117030987E-02 -0.20574106135E-02  0.67836066321E-03  0.17130000002E+03  0.17130000000E+03 0. -1.
      622    1    1    2    0    0 -0.10390874233E-01 -0.60471739609E-02  0.13688822000E+01  0.13695192646E+01  0.40000000000E-01 0.  1.
</event>
<event>
 5   0  0.7212170E+07  0.9118800E+02  0.7818608E-02  0.1180000E+00
       11   -1    0    0    0    0  0.00000000000E+00  0.00000000000E+00  0.39999999673E+01  0.40000000000E+01  0.51109989000E-03 0.  1.
     -623   -1    0    0    0    0  0.00000000000E+00  0.00000000000E+00  0.12525980253E-10  0.17130000000E+03  0.17130000000E+03 0. -1.
       11    1    1    2    0    0  0.33725263575E-02  0.12989089605E-02  0.18267540405E+01  0.18267576869E+01  0.51109989000E-03 0.  1.
     -623    1    1    2    0    0 -0.85675312484E-03 -0.12214606280E-02  0.37322323874E-03  0.17130000001E+03  0.17130000000E+03 0. -1.
      622    1    1    2    0    0 -0.25157732325E-02 -0.77448332274E-04  0.21728727043E+01  0.21732423068E+01  0.40000000000E-01 0. -1.
</event>
<event>
 5   0  0.7212170E+07  0.9118800E+02  0.7818608E-02  0.1180000E+00
       11   -1    0    0    0    0  0.00000000000E+00  0.00000000000E+00  0.39999999673E+01  0.40000000000E+01  0.51109989000E-03 0. -1.
     -623   -1    0    0    0    0  0.00000000000E+00  0.00000000000E+00  0.12525980253E-10  0.17130000000E+03  0.17130000000E+03 0.  1.
       11    1    1    2    0    0 -0.10219475379E-01 -0.30559887339E-01  0.27878867501E+01  0.27880730150E+01  0.51109989000E-03 0. -1.
     -623    1    1    2    0    0  0.18081261817E-01  0.13680679953E-01  0.99115176092E-03  0.17130000150E+03  0.17130000000E+03 0.  1.
      622    1    1    2    0    0 -0.78617864408E-02  0.16879207384E-01  0.12111220661E+01  0.12119254821E+01  0.40000000000E-01 0. -1.
</event>
<event>
 5   0  0.7212170E+07  0.9118800E+02  0.7818608E-02  0.1180000E+00
       11   -1    0    0    0    0  0.00000000000E+00  0.00000000000E+00  0.39999999673E+01  0.40000000000E+01  0.51109989000E-03 0.  1.
     -623   -1    0    0    0    0  0.00000000000E+00  0.00000000000E+00  0.12525980253E-10  0.17130000000E+03  0.17130000000E+03 0.  1.
       11    1    1    2    0    0 -0.54253527271E-02 -0.56423764465E-02  0.41137877259E+00  0.41145355343E+00  0.51109989000E-03 0.  1.
     -623    1    1    2    0    0  0.22060166201E-02  0.14351338777E-01  0.31031491746E-03  0.17130000062E+03  0.17130000000E+03 0.  1.
      622    1    1    2    0    0  0.32193361066E-02 -0.87089623336E-02  0.35883108807E+01  0.35885458317E+01  0.40000000000E-01 0.  1.
</event>
<event>
 5   0  0.7212170E+07  0.9118800E+02  0.7818608E-02  0.1180000E+00
       11   -1    0    0    0    0  0.00000000000E+00  0.00000000000E+00  0.39999999673E+01  0.40000000000E+01  0.51109989000E-03 0. -1.
     -623   -1    0    0    0    0  0.00000000000E+00  0.00000000000E+00  0.12525980253E-10  0.17130000000E+03  0.17130000000E+03 0.  1.
       11    1    1    2    0    0 -0.11581075672E-03  0.30509196439E-03  0.12932612580E-02  0.14283700561E-02  0.51109989000E-03 0. -1.
     -623    1    1    2    0    0 -0.26244922294E-03 -0.11246194073E-02  0.33525870848E-03  0.17130000000E+03  0.17130000000E+03 0.  1.
      622    1    1    2    0    0  0.37825997958E-03  0.81952744258E-03  0.39983714462E+01  0.39985716245E+01  0.40000000000E-01 0. -1.
</event>
<event>
 5   0  0.7212170E+07  0.9118800E+02  0.7818608E-02  0.1180000E+00
       11   -1    0    0    0    0  0.00000000000E+00  0.00000000000E+00  0.39999999673E+01  0.40000000000E+01  0.51109989000E-03 0. -1.
     -623   -1    0    0    0    0  0.00000000000E+00  0.00000000000E+00  0.12525980253E-10  0.17130000000E+03  0.17130000000E+03 0. -1.
       11    1    1    2    0    0  0.22234358529E-02 -0.14821116884E-02  0.14457349617E-01  0.14711101355E-01  0.51109989000E-03 0. -1.
     -623    1    1    2    0    0  0.96674564625E-02 -0.25780458143E-02  0.47456396297E-03  0.17130000029E+03  0.17130000000E+03 0. -1.
      622    1    1    2    0    0 -0.11890892317E-01  0.40601575031E-02  0.39850680545E+01  0.39852886065E+01  0.40000000000E-01 0. -1.
</event>
<event>
 5   0  0.7212170E+07  0.9118800E+02  0.7818608E-02  0.1180000E+00
       11   -1    0    0    0    0  0.00000000000E+00  0.00000000000E+00  0.39999999673E+01  0.40000000000E+01  0.51109989000E-03 0. -1.
     -623   -1    0    0    0    0  0.00000000000E+00  0.00000000000E+00  0.12525980253E-10  0.17130000000E+03  0.17130000000E+03 0. -1.
       11    1    1    2    0    0  0.19261146927E-01  0.20168379328E-01  0.10231692297E+00  0.10605078621E+00  0.51109989000E-03 0. -1.
     -623    1    1    2    0    0  0.11786321127E-01 -0.13332507315E-01  0.40700397239E-02  0.17130000097E+03  0.17130000000E+03 0. -1.
      622    1    1    2    0    0 -0.31047468054E-01 -0.68358720128E-02  0.38936130048E+01  0.38939482412E+01  0.40000000000E-01 0. -1.
</event>
<event>
 5   0  0.7212170E+07  0.9118800E+02  0.7818608E-02  0.1180000E+00
       11   -1    0    0    0    0  0.00000000000E+00  0.00000000000E+00  0.39999999673E+01  0.40000000000E+01  0.51109989000E-03 0.  1.
     -623   -1    0    0    0    0  0.00000000000E+00  0.00000000000E+00  0.12525980253E-10  0.17130000000E+03  0.17130000000E+03 0.  1.
       11    1    1    2    0    0 -0.21617558646E-01  0.36559498189E-02  0.80220374952E+00  0.80250345904E+00  0.51109989000E-03 0.  1.
     -623    1    1    2    0    0  0.58382376420E-02  0.25891416043E-02  0.59503972915E-03  0.17130000012E+03  0.17130000000E+03 0.  1.
      622    1    1    2    0    0  0.15779321004E-01 -0.62450914231E-02  0.31972011780E+01  0.31974964208E+01  0.40000000000E-01 0.  0.
</event>
<event>
 5   0  0.7212170E+07  0.9118800E+02  0.7818608E-02  0.1180000E+00
       11   -1    0    0    0    0  0.00000000000E+00  0.00000000000E+00  0.39999999673E+01  0.40000000000E+01  0.51109989000E-03 0.  1.
     -623   -1    0    0    0    0  0.00000000000E+00  0.00000000000E+00  0.12525980253E-10  0.17130000000E+03  0.17130000000E+03 0.  1.
       11    1    1    2    0    0  0.57596267339E-02 -0.26569785281E-01  0.62145717141E+00  0.62205176948E+00  0.51109989000E-03 0.  1.
     -623    1    1    2    0    0 -0.13085442405E-01 -0.24046394019E-02  0.96414337476E-03  0.17130000052E+03  0.17130000000E+03 0.  1.
      622    1    1    2    0    0  0.73258156705E-02  0.28974424682E-01  0.33775786525E+01  0.33779477111E+01  0.40000000000E-01 0.  1.
</event>
<event>
 5   0  0.7212170E+07  0.9118800E+02  0.7818608E-02  0.1180000E+00
       11   -1    0    0    0    0  0.00000000000E+00  0.00000000000E+00  0.39999999673E+01  0.40000000000E+01  0.51109989000E-03 0.  1.
     -623   -1    0    0    0    0  0.00000000000E+00  0.00000000000E+00  0.12525980253E-10  0.17130000000E+03  0.17130000000E+03 0.  1.
       11    1    1    2    0    0 -0.96985015302E-03  0.92860332669E-03  0.38493534388E+00  0.38493802502E+00  0.51109989000E-03 0.  1.
     -623    1    1    2    0    0 -0.10263431894E-03 -0.77818509725E-03  0.22411578777E-03  0.17130000000E+03  0.17130000000E+03 0.  1.
      622    1    1    2    0    0  0.10724844720E-02 -0.15041822945E-03  0.36148405076E+01  0.36150619730E+01  0.40000000000E-01 0.  1.
</event>
<event>
 5   0  0.7212170E+07  0.9118800E+02  0.7818608E-02  0.1180000E+00
       11   -1    0    0    0    0  0.00000000000E+00  0.00000000000E+00  0.39999999673E+01  0.40000000000E+01  0.51109989000E-03 0. -1.
     -623   -1    0    0    0    0  0.00000000000E+00  0.00000000000E+00  0.12525980253E-10  0.17130000000E+03  0.17130000000E+03 0.  1.
       11    1    1    2    0    0 -0.32659826822E-01 -0.12105886102E-01  0.76611267864E+00  0.76690424067E+00  0.51109989000E-03 0. -1.
     -623    1    1    2    0    0 -0.87749109525E-03 -0.12900371223E-02  0.12407086667E-02  0.17130000001E+03  0.17130000000E+03 0.  1.
      622    1    1    2    0    0  0.33537317917E-01  0.13395923225E-01  0.32326465802E+01  0.32330957479E+01  0.40000000000E-01 0. -1.
</event>
<event>
 5   0  0.7212170E+07  0.9118800E+02  0.7818608E-02  0.1180000E+00
       11   -1    0    0    0    0  0.00000000000E+00  0.00000000000E+00  0.39999999673E+01  0.40000000000E+01  0.51109989000E-03 0. -1.
     -623   -1    0    0    0    0  0.00000000000E+00  0.00000000000E+00  0.12525980253E-10  0.17130000000E+03  0.17130000000E+03 0. -1.
       11    1    1    2    0    0 -0.78727573322E-02 -0.11404946438E-01  0.70893212478E-01  0.72236845929E-01  0.51109989000E-03 0. -1.
     -623    1    1    2    0    0  0.15274835368E-01 -0.11170913164E-01  0.16201969245E-02  0.17130000105E+03  0.17130000000E+03 0. -1.
      622    1    1    2    0    0 -0.74020780360E-02  0.22575859602E-01  0.39274865580E+01  0.39277621012E+01  0.40000000000E-01 0. -1.
</event>
<event>
 5   0  0.7212170E+07  0.9118800E+02  0.7818608E-02  0.1180000E+00
       11   -1    0    0    0    0  0.00000000000E+00  0.00000000000E+00  0.39999999673E+01  0.40000000000E+01  0.51109989000E-03 0.  1.
     -623   -1    0    0    0    0  0.00000000000E+00  0.00000000000E+00  0.12525980253E-10  0.17130000000E+03  0.17130000000E+03 0.  1.
       11    1    1    2    0    0 -0.32743401875E-02  0.29168722925E-02  0.68988587445E-01  0.69129703228E-01  0.51109989000E-03 0.  1.
     -623    1    1    2    0    0  0.47074174983E-02 -0.56316981991E-02  0.34596207490E-03  0.17130000016E+03  0.17130000000E+03 0.  1.
      622    1    1    2    0    0 -0.14330773097E-02  0.27148259053E-02  0.39306654169E+01  0.39308701382E+01  0.40000000000E-01 0.  1.
</event>
<event>
 5   0  0.7212170E+07  0.9118800E+02  0.7818608E-02  0.1180000E+00
       11   -1    0    0    0    0  0.00000000000E+00  0.00000000000E+00  0.39999999673E+01  0.40000000000E+01  0.51109989000E-03 0. -1.
     -623   -1    0    0    0    0  0.00000000000E+00  0.00000000000E+00  0.12525980253E-10  0.17130000000E+03  0.17130000000E+03 0. -1.
       11    1    1    2    0    0  0.17450027426E-02  0.58009778712E-02  0.24073936491E+01  0.24074013250E+01  0.51109989000E-03 0. -1.
     -623    1    1    2    0    0  0.48969713199E-02 -0.45718343335E-02  0.52450712263E-03  0.17130000013E+03  0.17130000000E+03 0. -1.
      622    1    1    2    0    0 -0.66419740626E-02 -0.12291435376E-02  0.15920818112E+01  0.15925985433E+01  0.40000000000E-01 0. -1.
</event>
<event>
 5   0  0.7212170E+07  0.9118800E+02  0.7818608E-02  0.1180000E+00
       11   -1    0    0    0    0  0.00000000000E+00  0.00000000000E+00  0.39999999673E+01  0.40000000000E+01  0.51109989000E-03 0. -1.
     -623   -1    0    0    0    0  0.00000000000E+00  0.00000000000E+00  0.12525980253E-10  0.17130000000E+03  0.17130000000E+03 0. -1.
       11    1    1    2    0    0 -0.14940373840E-02  0.38802399914E-02  0.62552594260E+00  0.62553997034E+00  0.51109989000E-03 0. -1.
     -623    1    1    2    0    0 -0.11856645688E-02  0.33350573282E-03  0.25477816021E-03  0.17130000000E+03  0.17130000000E+03 0. -1.
      622    1    1    2    0    0  0.26797019530E-02 -0.42137457243E-02  0.33742192473E+01  0.33744600257E+01  0.40000000000E-01 0. -1.
</event>
<event>
 5   0  0.7212170E+07  0.9118800E+02  0.7818608E-02  0.1180000E+00
       11   -1    0    0    0    0  0.00000000000E+00  0.00000000000E+00  0.39999999673E+01  0.40000000000E+01  0.51109989000E-03 0. -1.
     -623   -1    0    0    0    0  0.00000000000E+00  0.00000000000E+00  0.12525980253E-10  0.17130000000E+03  0.17130000000E+03 0. -1.
       11    1    1    2    0    0  0.43771050029E-03 -0.46156495129E-03  0.89681180564E-01  0.89684892836E-01  0.51109989000E-03 0. -1.
     -623    1    1    2    0    0 -0.50455911657E-03 -0.74432181256E-04  0.20831027223E-03  0.17130000000E+03  0.17130000000E+03 0. -1.
      622    1    1    2    0    0  0.66848616406E-04  0.53599713256E-03  0.39101104776E+01  0.39103151073E+01  0.40000000000E-01 0. -1.
</event>
<event>
 5   0  0.7212170E+07  0.9118800E+02  0.7818608E-02  0.1180000E+00
       11   -1    0    0    0    0  0.00000000000E+00  0.00000000000E+00  0.39999999673E+01  0.40000000000E+01  0.51109989000E-03 0. -1.
     -623   -1    0    0    0    0  0.00000000000E+00  0.00000000000E+00  0.12525980253E-10  0.17130000000E+03  0.17130000000E+03 0.  1.
       11    1    1    2    0    0  0.10232762388E-02 -0.66807152577E-03  0.12916649206E-01  0.12984393079E-01  0.51109989000E-03 0. -1.
     -623    1    1    2    0    0 -0.89512959100E-03  0.50704905979E-03  0.26837622686E-03  0.17130000000E+03  0.17130000000E+03 0.  1.
      622    1    1    2    0    0 -0.12814664748E-03  0.16102246580E-03  0.39868149434E+01  0.39870156051E+01  0.40000000000E-01 0. -1.
</event>
<event>
 5   0  0.7212170E+07  0.9118800E+02  0.7818608E-02  0.1180000E+00
       11   -1    0    0    0    0  0.00000000000E+00  0.00000000000E+00  0.39999999673E+01  0.40000000000E+01  0.51109989000E-03 0. -1.
     -623   -1    0    0    0    0  0.00000000000E+00  0.00000000000E+00  0.12525980253E-10  0.17130000000E+03  0.17130000000E+03 0.  1.
       11    1    1    2    0    0  0.19668479791E-02  0.50176719088E-03  0.37713620198E-01  0.37771664417E-01  0.51109989000E-03 0. -1.
     -623    1    1    2    0    0 -0.19420994991E-02 -0.75908348738E-03  0.25994463222E-03  0.17130000001E+03  0.17130000000E+03 0.  1.
      622    1    1    2    0    0 -0.24748479254E-04  0.25731629681E-03  0.39620264041E+01  0.39622283243E+01  0.40000000000E-01 0. -1.
</event>
<event>
 5   0  0.7212170E+07  0.9118800E+02  0.7818608E-02  0.1180000E+00
       11   -1    0    0    0    0  0.00000000000E+00  0.00000000000E+00  0.39999999673E+01  0.40000000000E+01  0.51109989000E-03 0. -1.
     -623   -1    0    0    0    0  0.00000000000E+00  0.00000000000E+00  0.12525980253E-10  0.17130000000E+03  0.17130000000E+03 0. -1.
       11    1    1    2    0    0  0.87712335338E-03 -0.59229978243E-03  0.49358396274E-02  0.50738447291E-02  0.51109989000E-03 0. -1.
     -623    1    1    2    0    0 -0.10276741935E-02  0.77514449204E-03  0.33824368743E-03  0.17130000001E+03  0.17130000000E+03 0. -1.
      622    1    1    2    0    0  0.15055084005E-03 -0.18284470956E-03  0.39947258838E+01  0.39949261499E+01  0.40000000000E-01 0. -1.
</event>
<event>
 5   0  0.7212170E+07  0.9118800E+02  0.7818608E-02  0.1180000E+00
       11   -1    0    0    0    0  0.00000000000E+00  0.00000000000E+00  0.39999999673E+01  0.40000000000E+01  0.51109989000E-03 0.  1.
     -623   -1    0    0    0    0  0.00000000000E+00  0.00000000000E+00  0.12525980253E-10  0.17130000000E+03  0.17130000000E+03 0. -1.
       11    1    1    2    0    0  0.25040562168E-02  0.62020365144E-02  0.71174793057E-01  0.71490194742E-01  0.51109989000E-03 0.  1.
     -623    1    1    2    0    0  0.34575096451E-02 -0.36222829699E-02  0.52445856851E-03  0.17130000007E+03  0.17130000000E+03 0. -1.
      622    1    1    2    0    0 -0.59615658622E-02 -0.25797535442E-02  0.39283007161E+01  0.39285097316E+01  0.40000000000E-01 0.  1.
</event>
<event>
 5   0  0.7212170E+07  0.9118800E+02  0.7818608E-02  0.1180000E+00
       11   -1    0    0    0    0  0.00000000000E+00  0.00000000000E+00  0.39999999673E+01  0.40000000000E+01  0.51109989000E-03 0.  1.
     -623   -1    0    0    0    0  0.00000000000E+00  0.00000000000E+00  0.12525980253E-10  0.17130000000E+03  0.17130000000E+03 0.  1.
       11    1    1    2    0    0  0.65415134151E-03  0.21090265687E-03  0.58071085951E+00  0.58071149116E+00  0.51109989000E-03 0.  1.
     -623    1    1    2    0    0  0.57969918810E-03  0.42390848192E-03  0.23485705321E-03  0.17130000000E+03  0.17130000000E+03 0.  1.
      622    1    1    2    0    0 -0.12338505297E-02 -0.63481113887E-03  0.34190542515E+01  0.34192885079E+01  0.40000000000E-01 0.  1.
</event>
<event>
 5   0  0.7212170E+07  0.9118800E+02  0.7818608E-02  0.1180000E+00
       11   -1    0    0    0    0  0.00000000000E+00  0.00000000000E+00  0.39999999673E+01  0.40000000000E+01  0.51109989000E-03 0. -1.
     -623   -1    0    0    0    0  0.00000000000E+00  0.00000000000E+00  0.12525980253E-10  0.17130000000E+03  0.17130000000E+03 0.  1.
       11    1    1    2    0    0 -0.23260456269E-02 -0.34706010446E-02  0.22526856694E+00  0.22530788720E+00  0.51109989000E-03 0. -1.
     -623    1    1    2    0    0  0.21214173869E-02  0.20651379875E-02  0.25152437037E-03  0.17130000003E+03  0.17130000000E+03 0.  1.
      622    1    1    2    0    0  0.20462823900E-03  0.14054630560E-02  0.37744798779E+01  0.37746920889E+01  0.40000000000E-01 0. -1.
</event>
<event>
 5   0  0.7212170E+07  0.9118800E+02  0.7818608E-02  0.1180000E+00
       11   -1    0    0    0    0  0.00000000000E+00  0.00000000000E+00  0.39999999673E+01  0.40000000000E+01  0.51109989000E-03 0.  1.
     -623   -1    0    0    0    0  0.00000000000E+00  0.00000000000E+00  0.12525980253E-10  0.17130000000E+03  0.17130000000E+03 0. -1.
       11    1    1    2    0    0 -0.51704087343E-02  0.57223800798E-03  0.58300937906E-01  0.58534785954E-01  0.51109989000E-03 0.  1.
     -623    1    1    2    0    0  0.14777391445E-02  0.12959139262E-02  0.43897530652E-03  0.17130000001E+03  0.17130000000E+03 0. -1.
      622    1    1    2    0    0  0.36926695896E-02 -0.18681519344E-02  0.39412600548E+01  0.39414652028E+01  0.40000000000E-01 0.  1.
</event>
<event>
 5   0  0.7212170E+07  0.9118800E+02  0.7818608E-02  0.1180000E+00
       11   -1    0    0    0    0  0.00000000000E+00  0.00000000000E+00  0.39999999673E+01  0.40000000000E+01  0.51109989000E-03 0.  1.
     -623   -1    0    0    0    0  0.00000000000E+00  0.00000000000E+00  0.12525980253E-10  0.17130000000E+03  0.17130000000E+03 0. -1.
       11    1    1    2    0    0 -0.53410220215E-02  0.41234018125E-01  0.22749308151E+01  0.22753108019E+01  0.51109989000E-03 0.  1.
     -623    1    1    2    0    0  0.96456557690E-03 -0.15844549892E-02  0.13053816596E-02  0.17130000002E+03  0.17130000000E+03 0. -1.
      622    1    1    2    0    0  0.43764564446E-02 -0.39649563135E-01  0.17237637707E+01  0.17246891832E+01  0.40000000000E-01 0.  0.
</event>
<event>
 5   0  0.7212170E+07  0.9118800E+02  0.7818608E-02  0.1180000E+00
       11   -1    0    0    0    0  0.00000000000E+00  0.00000000000E+00  0.39999999673E+01  0.40000000000E+01  0.51109989000E-03 0.  1.
     -623   -1    0    0    0    0  0.00000000000E+00  0.00000000000E+00  0.12525980253E-10  0.17130000000E+03  0.17130000000E+03 0.  1.
       11    1    1    2    0    0 -0.26326343193E-02  0.22249996228E-01  0.27748941976E+00  0.27839294603E+00  0.51109989000E-03 0.  1.
     -623    1    1    2    0    0 -0.12564254568E-02  0.19808806424E-02  0.11994005436E-02  0.17130000002E+03  0.17130000000E+03 0.  1.
      622    1    1    2    0    0  0.38890597762E-02 -0.24230876870E-01  0.37213111473E+01  0.37216070339E+01  0.40000000000E-01 0.  1.
</event>
<event>
 5   0  0.7212170E+07  0.9118800E+02  0.7818608E-02  0.1180000E+00
       11   -1    0    0    0    0  0.00000000000E+00  0.00000000000E+00  0.39999999673E+01  0.40000000000E+01  0.51109989000E-03 0.  1.
     -623   -1    0    0    0    0  0.00000000000E+00  0.00000000000E+00  0.12525980253E-10  0.17130000000E+03  0.17130000000E+03 0.  1.
       11    1    1    2    0    0 -0.25300274514E-02 -0.36371041373E-02  0.76607471831E+00  0.76608770048E+00  0.51109989000E-03 0.  1.
     -623    1    1    2    0    0  0.74675607608E-03 -0.86613183500E-04  0.26297495501E-03  0.17130000000E+03  0.17130000000E+03 0.  1.
      622    1    1    2    0    0  0.17832713751E-02  0.37237173208E-02  0.32336622752E+01  0.32339122988E+01  0.40000000000E-01 0.  1.
</event>
<event>
 5   0  0.7212170E+07  0.9118800E+02  0.7818608E-02  0.1180000E+00
       11   -1    0    0    0    0  0.00000000000E+00  0.00000000000E+00  0.39999999673E+01  0.40000000000E+01  0.51109989000E-03 0.  1.
     -623   -1    0    0    0    0  0.00000000000E+00  0.00000000000E+00  0.12525980253E-10  0.17130000000E+03  0.17130000000E+03 0.  1.
       11    1    1    2    0    0 -0.17637298742E-02 -0.26615185072E-02  0.13181461980E+00  0.13185427425E+00  0.51109989000E-03 0.  1.
     -623    1    1    2    0    0  0.10418396488E-02  0.29897596036E-03  0.24723728206E-03  0.17130000000E+03  0.17130000000E+03 0.  1.
      622    1    1    2    0    0  0.72189022518E-03  0.23625425468E-02  0.38679381111E+01  0.38681457230E+01  0.40000000000E-01 0.  1.
</event>
<event>
 5   0  0.7212170E+07  0.9118800E+02  0.7818608E-02  0.1180000E+00
       11   -1    0    0    0    0  0.00000000000E+00  0.00000000000E+00  0.39999999673E+01  0.40000000000E+01  0.51109989000E-03 0. -1.
     -623   -1    0    0    0    0  0.00000000000E+00  0.00000000000E+00  0.12525980253E-10  0.17130000000E+03  0.17130000000E+03 0.  1.
       11    1    1    2    0    0  0.15342893794E-02  0.60726762148E-02  0.57492280998E-01  0.57834721732E-01  0.51109989000E-03 0. -1.
     -623    1    1    2    0    0 -0.24306782093E-02 -0.44819045922E-02  0.54584712275E-03  0.17130000008E+03  0.17130000000E+03 0.  1.
      622    1    1    2    0    0  0.89638882983E-03 -0.15907716226E-02  0.39419618392E+01  0.39421652015E+01  0.40000000000E-01 0. -1.
</event>
<event>
 5   0  0.7212170E+07  0.9118800E+02  0.7818608E-02  0.1180000E+00
       11   -1    0    0    0    0  0.00000000000E+00  0.00000000000E+00  0.39999999673E+01  0.40000000000E+01  0.51109989000E-03 0. -1.
     -623   -1    0    0    0    0  0.00000000000E+00  0.00000000000E+00  0.12525980253E-10  0.17130000000E+03  0.17130000000E+03 0. -1.
       11    1    1    2    0    0 -0.30522342051E-03 -0.18946621644E-02  0.28363226144E-01  0.28432670055E-01  0.51109989000E-03 0. -1.
     -623    1    1    2    0    0 -0.20067633091E-02  0.15920670280E-02  0.27155206517E-03  0.17130000002E+03  0.17130000000E+03 0. -1.
      622    1    1    2    0    0  0.23119867298E-02  0.30259513632E-03  0.39713651894E+01  0.39715673109E+01  0.40000000000E-01 0. -1.
</event>
<event>
 5   0  0.7212170E+07  0.9118800E+02  0.7818608E-02  0.1180000E+00
       11   -1    0    0    0    0  0.00000000000E+00  0.00000000000E+00  0.39999999673E+01  0.40000000000E+01  0.51109989000E-03 0. -1.
     -623   -1    0    0    0    0  0.00000000000E+00  0.00000000000E+00  0.12525980253E-10  0.17130000000E+03  0.17130000000E+03 0.  1.
       11    1    1    2    0    0 -0.15343200886E-02  0.21374223556E-03  0.14893708470E-01  0.14982776744E-01  0.51109989000E-03 0. -1.
     -623    1    1    2    0    0 -0.32414452257E-04  0.57530232594E-03  0.29017998295E-03  0.17130000000E+03  0.17130000000E+03 0.  1.
      622    1    1    2    0    0  0.15667345408E-02 -0.78904456158E-03  0.39848160795E+01  0.39850172227E+01  0.40000000000E-01 0. -1.
</event>
<event>
 5   0  0.7212170E+07  0.9118800E+02  0.7818608E-02  0.1180000E+00
       11   -1    0    0    0    0  0.00000000000E+00  0.00000000000E+00  0.39999999673E+01  0.40000000000E+01  0.51109989000E-03 0. -1.
     -623   -1    0    0    0    0  0.00000000000E+00  0.00000000000E+00  0.12525980253E-10  0.17130000000E+03  0.17130000000E+03 0. -1.
       11    1    1    2    0    0 -0.46261815980E-02 -0.60114275976E-02  0.54774750036E+00  0.54780025939E+00  0.51109989000E-03 0. -1.
     -623    1    1    2    0    0 -0.11742305868E-02 -0.21946762181E-02  0.29911600230E-03  0.17130000002E+03  0.17130000000E+03 0. -1.
      622    1    1    2    0    0  0.58004121851E-02  0.82061038162E-02  0.34519533518E+01  0.34521997231E+01  0.40000000000E-01 0.  0.
</event>
<event>
 5   0  0.7212170E+07  0.9118800E+02  0.7818608E-02  0.1180000E+00
       11   -1    0    0    0    0  0.00000000000E+00  0.00000000000E+00  0.39999999673E+01  0.40000000000E+01  0.51109989000E-03 0. -1.
     -623   -1    0    0    0    0  0.00000000000E+00  0.00000000000E+00  0.12525980253E-10  0.17130000000E+03  0.17130000000E+03 0. -1.
       11    1    1    2    0    0  0.50815108511E-03  0.12263986783E-04  0.51290200335E-03  0.88468044698E-03  0.51109989000E-03 0. -1.
     -623    1    1    2    0    0 -0.41624066868E-03 -0.25131750590E-03  0.57180489685E-03  0.17130000000E+03  0.17130000000E+03 0. -1.
      622    1    1    2    0    0 -0.91910416404E-04  0.23905351913E-03  0.39989152606E+01  0.39991153181E+01  0.40000000000E-01 0. -1.
</event>
<event>
 5   0  0.7212170E+07  0.9118800E+02  0.7818608E-02  0.1180000E+00
       11   -1    0    0    0    0  0.00000000000E+00  0.00000000000E+00  0.39999999673E+01  0.40000000000E+01  0.51109989000E-03 0.  1.
     -623   -1    0    0    0    0  0.00000000000E+00  0.00000000000E+00  0.12525980253E-10  0.17130000000E+03  0.17130000000E+03 0. -1.
       11    1    1    2    0    0 -0.11376956916E-02  0.92558289559E-02  0.66494311314E+00  0.66500869893E+00  0.51109989000E-03 0.  1.
     -623    1    1    2    0    0  0.88783530957E-02 -0.32021944851E-02  0.32018130668E-03  0.17130000026E+03  0.17130000000E+03 0. -1.
      622    1    1    2    0    0 -0.77406574054E-02 -0.60536344702E-02  0.33347366735E+01  0.33349910414E+01  0.40000000000E-01 0.  1.
</event>
<event>
 5   0  0.7212170E+07  0.9118800E+02  0.7818608E-02  0.1180000E+00
       11   -1    0    0    0    0  0.00000000000E+00  0.00000000000E+00  0.39999999673E+01  0.40000000000E+01  0.51109989000E-03 0. -1.
     -623   -1    0    0    0    0  0.00000000000E+00  0.00000000000E+00  0.12525980253E-10  0.17130000000E+03  0.17130000000E+03 0.  1.
       11    1    1    2    0    0  0.28369900280E-03  0.18670776453E-02  0.25782992361E-03  0.19733634801E-02  0.51109989000E-03 0. -1.
     -623    1    1    2    0    0 -0.16096248092E-02 -0.27805646240E-02  0.19159697310E-02  0.17130000004E+03  0.17130000000E+03 0.  1.
      622    1    1    2    0    0  0.13259258064E-02  0.91348697875E-03  0.39978261678E+01  0.39980265957E+01  0.40000000000E-01 0. -1.
</event>
<event>
 5   0  0.7212170E+07  0.9118800E+02  0.7818608E-02  0.1180000E+00
       11   -1    0    0    0    0  0.00000000000E+00  0.00000000000E+00  0.39999999673E+01  0.40000000000E+01  0.51109989000E-03 0.  1.
     -623   -1    0    0    0    0  0.00000000000E+00  0.00000000000E+00  0.12525980253E-10  0.17130000000E+03  0.17130000000E+03 0. -1.
       11    1    1    2    0    0 -0.11215030784E-01 -0.42717997456E-02  0.55243822545E-01  0.56534647262E-01  0.51109989000E-03 0.  1.
     -623    1    1    2    0    0  0.45577600688E-02  0.15495649072E-01  0.15160258991E-02  0.17130000077E+03  0.17130000000E+03 0. -1.
      622    1    1    2    0    0  0.66572707157E-02 -0.11223849326E-01  0.39432401188E+01  0.39434645844E+01  0.40000000000E-01 0.  1.
</event>
<event>
 5   0  0.7212170E+07  0.9118800E+02  0.7818608E-02  0.1180000E+00
       11   -1    0    0    0    0  0.00000000000E+00  0.00000000000E+00  0.39999999673E+01  0.40000000000E+01  0.51109989000E-03 0.  1.
     -623   -1    0    0    0    0  0.00000000000E+00  0.00000000000E+00  0.12525980253E-10  0.17130000000E+03  0.17130000000E+03 0. -1.
       11    1    1    2    0    0 -0.10195464357E-02  0.32404710818E-03  0.27398272487E+00  0.27398529018E+00  0.51109989000E-03 0.  1.
     -623    1    1    2    0    0  0.25234601284E-03 -0.14631300464E-02  0.21750515090E-03  0.17130000001E+03  0.17130000000E+03 0. -1.
      622    1    1    2    0    0  0.76720042281E-03  0.11390829385E-02  0.37257997381E+01  0.37260147041E+01  0.40000000000E-01 0.  1.
</event>
<event>
 5   0  0.7212170E+07  0.9118800E+02  0.7818608E-02  0.1180000E+00
       11   -1    0    0    0    0  0.00000000000E+00  0.00000000000E+00  0.39999999673E+01  0.40000000000E+01  0.51109989000E-03 0.  1.
     -623   -1    0    0    0    0  0.00000000000E+00  0.00000000000E+00  0.12525980253E-10  0.17130000000E+03  0.17130000000E+03 0.  1.
       11    1    1    2    0    0  0.14111336051E-01 -0.26700568816E-01  0.15846114074E+01  0.15848992472E+01  0.51109989000E-03 0.  1.
     -623    1    1    2    0    0 -0.45822280139E-02  0.11711399222E-01  0.68486580514E-03  0.17130000046E+03  0.17130000000E+03 0.  1.
      622    1    1    2    0    0 -0.95291080366E-02  0.14989169593E-01  0.24147036943E+01  0.24151002900E+01  0.40000000000E-01 0.  1.
</event>
<event>
 5   0  0.7212170E+07  0.9118800E+02  0.7818608E-02  0.1180000E+00
       11   -1    0    0    0    0  0.00000000000E+00  0.00000000000E+00  0.39999999673E+01  0.40000000000E+01  0.51109989000E-03 0. -1.
     -623   -1    0    0    0    0  0.00000000000E+00  0.00000000000E+00  0.12525980253E-10  0.17130000000E+03  0.17130000000E+03 0.  1.
       11    1    1    2    0    0 -0.27301006335E-03 -0.90841592082E-03  0.26361132891E-01  0.26383144323E-01  0.51109989000E-03 0. -1.
     -623    1    1    2    0    0  0.91252019783E-03  0.28429122716E-03  0.22341510152E-03  0.17130000000E+03  0.17130000000E+03 0.  1.
      622    1    1    2    0    0 -0.63951013454E-03  0.62412469364E-03  0.39734154196E+01  0.39736168531E+01  0.40000000000E-01 0. -1.
</event>
<event>
 5   0  0.7212170E+07  0.9118800E+02  0.7818608E-02  0.1180000E+00
       11   -1    0    0    0    0  0.00000000000E+00  0.00000000000E+00  0.39999999673E+01  0.40000000000E+01  0.51109989000E-03 0. -1.
     -623   -1    0    0    0    0  0.00000000000E+00  0.00000000000E+00  0.12525980253E-10  0.17130000000E+03  0.17130000000E+03 0.  1.
       11    1    1    2    0    0  0.23800415157E-02  0.81548030913E-04  0.15809651672E-02  0.29037771359E-02  0.51109989000E-03 0. -1.
     -623    1    1    2    0    0 -0.16894356087E-02  0.61908167688E-03  0.15230669269E-02  0.17130000002E+03  0.17130000000E+03 0.  1.
      622    1    1    2    0    0 -0.69060590710E-03 -0.70062970777E-03  0.39968959351E+01  0.39970962065E+01  0.40000000000E-01 0. -1.
</event>
<event>
 5   0  0.7212170E+07  0.9118800E+02  0.7818608E-02  0.1180000E+00
       11   -1    0    0    0    0  0.00000000000E+00  0.00000000000E+00  0.39999999673E+01  0.40000000000E+01  0.51109989000E-03 0. -1.
     -623   -1    0    0    0    0  0.00000000000E+00  0.00000000000E+00  0.12525980253E-10  0.17130000000E+03  0.17130000000E+03 0. -1.
       11    1    1    2    0    0 -0.39615850861E-04  0.40577831985E-03  0.73214173558E-02  0.73505510444E-02  0.51109989000E-03 0. -1.
     -623    1    1    2    0    0  0.86067344973E-03 -0.22665479160E-02  0.23000964558E-03  0.17130000002E+03  0.17130000000E+03 0. -1.
      622    1    1    2    0    0 -0.82105759918E-03  0.18607695970E-02  0.39924485418E+01  0.39926494331E+01  0.40000000000E-01 0. -1.
</event>
<event>
 5   0  0.7212170E+07  0.9118800E+02  0.7818608E-02  0.1180000E+00
       11   -1    0    0    0    0  0.00000000000E+00  0.00000000000E+00  0.39999999673E+01  0.40000000000E+01  0.51109989000E-03 0.  1.
     -623   -1    0    0    0    0  0.00000000000E+00  0.00000000000E+00  0.12525980253E-10  0.17130000000E+03  0.17130000000E+03 0.  1.
       11    1    1    2    0    0  0.20215824133E-01 -0.49069097386E-02  0.70657430471E+00  0.70688065938E+00  0.51109989000E-03 0.  1.
     -623    1    1    2    0    0 -0.29696974681E-03  0.53313653617E-02  0.60961929559E-03  0.17130000008E+03  0.17130000000E+03 0.  1.
      622    1    1    2    0    0 -0.19918854386E-01 -0.42445562384E-03  0.32928160439E+01  0.32931192568E+01  0.40000000000E-01 0.  1.
</event>
<event>
 5   0  0.7212170E+07  0.9118800E+02  0.7818608E-02  0.1180000E+00
       11   -1    0    0    0    0  0.00000000000E+00  0.00000000000E+00  0.39999999673E+01  0.40000000000E+01  0.51109989000E-03 0. -1.
     -623   -1    0    0    0    0  0.00000000000E+00  0.00000000000E+00  0.12525980253E-10  0.17130000000E+03  0.17130000000E+03 0. -1.
       11    1    1    2    0    0  0.24372405574E-02 -0.18703269682E-02  0.80815706811E+00  0.80816306908E+00  0.51109989000E-03 0. -1.
     -623    1    1    2    0    0 -0.97361518407E-03 -0.74430558589E-03  0.25802870961E-03  0.17130000000E+03  0.17130000000E+03 0. -1.
      622    1    1    2    0    0 -0.14636253730E-02  0.26146325543E-02  0.31915848718E+01  0.31918369276E+01  0.40000000000E-01 0. -1.
</event>
<event>
 5   0  0.7212170E+07  0.9118800E+02  0.7818608E-02  0.1180000E+00
       11   -1    0    0    0    0  0.00000000000E+00  0.00000000000E+00  0.39999999673E+01  0.40000000000E+01  0.51109989000E-03 0.  1.
     -623   -1    0    0    0    0  0.00000000000E+00  0.00000000000E+00  0.12525980253E-10  0.17130000000E+03  0.17130000000E+03 0. -1.
       11    1    1    2    0    0 -0.36201057486E-02  0.16640165563E-02  0.10920401019E-01  0.11635742273E-01  0.51109989000E-03 0.  1.
     -623    1    1    2    0    0  0.12869976624E-02  0.14494529067E-02  0.91780832051E-03  0.17130000001E+03  0.17130000000E+03 0. -1.
      622    1    1    2    0    0  0.23331080861E-02 -0.31134694632E-02  0.39881617583E+01  0.39883642445E+01  0.40000000000E-01 0.  1.
</event>
<event>
 5   0  0.7212170E+07  0.9118800E+02  0.7818608E-02  0.1180000E+00
       11   -1    0    0    0    0  0.00000000000E+00  0.00000000000E+00  0.39999999673E+01  0.40000000000E+01  0.51109989000E-03 0. -1.
     -623   -1    0    0    0    0  0.00000000000E+00  0.00000000000E+00  0.12525980253E-10  0.17130000000E+03  0.17130000000E+03 0.  1.
       11    1    1    2    0    0 -0.90191915159E-03  0.47333599402E-03  0.10121905806E+00  0.10122547329E+00  0.51109989000E-03 0. -1.
     -623    1    1    2    0    0 -0.14772783114E-04  0.47217676169E-03  0.21180388382E-03  0.17130000000E+03  0.17130000000E+03 0.  1.
      622    1    1    2    0    0  0.91669193470E-03 -0.94551275573E-03  0.38985691056E+01  0.38987745261E+01  0.40000000000E-01 0. -1.
</event>
<event>
 5   0  0.7212170E+07  0.9118800E+02  0.7818608E-02  0.1180000E+00
       11   -1    0    0    0    0  0.00000000000E+00  0.00000000000E+00  0.39999999673E+01  0.40000000000E+01  0.51109989000E-03 0. -1.
     -623   -1    0    0    0    0  0.00000000000E+00  0.00000000000E+00  0.12525980253E-10  0.17130000000E+03  0.17130000000E+03 0.  1.
       11    1    1    2    0    0  0.91176223934E-03 -0.34901049674E-02  0.10927044476E+00  0.10933116420E+00  0.51109989000E-03 0. -1.
     -623    1    1    2    0    0  0.32055321875E-03  0.41337101410E-03  0.26772518208E-03  0.17130000000E+03  0.17130000000E+03 0.  1.
      622    1    1    2    0    0 -0.12323154579E-02  0.30767339535E-02  0.38904617956E+01  0.38906688330E+01  0.40000000000E-01 0. -1.
</event>
<event>
 5   0  0.7212170E+07  0.9118800E+02  0.7818608E-02  0.1180000E+00
       11   -1    0    0    0    0  0.00000000000E+00  0.00000000000E+00  0.39999999673E+01  0.40000000000E+01  0.51109989000E-03 0.  1.
     -623   -1    0    0    0    0  0.00000000000E+00  0.00000000000E+00  0.12525980253E-10  0.17130000000E+03  0.17130000000E+03 0. -1.
       11    1    1    2    0    0 -0.34084941858E-02  0.51806830285E-02  0.60848939627E-01  0.61166265098E-01  0.51109989000E-03 0.  1.
     -623    1    1    2    0    0  0.14106891072E-01 -0.86175476994E-02  0.53723181424E-03  0.17130000080E+03  0.17130000000E+03 0. -1.
      622    1    1    2    0    0 -0.10698396887E-01  0.34368646719E-02  0.39386137963E+01  0.39388329369E+01  0.40000000000E-01 0.  1.
</event>
<event>
 5   0  0.7212170E+07  0.9118800E+02  0.7818608E-02  0.1180000E+00
       11   -1    0    0    0    0  0.00000000000E+00  0.00000000000E+00  0.39999999673E+01  0.40000000000E+01  0.51109989000E-03 0. -1.
     -623   -1    0    0    0    0  0.00000000000E+00  0.00000000000E+00  0.12525980253E-10  0.17130000000E+03  0.17130000000E+03 0. -1.
       11    1    1    2    0    0 -0.97614251567E-02 -0.12681387228E-02  0.12062305015E+01  0.12062707729E+01  0.51109989000E-03 0. -1.
     -623    1    1    2    0    0  0.86102648516E-02 -0.62340150434E-02  0.33725045332E-03  0.17130000033E+03  0.17130000000E+03 0. -1.
      622    1    1    2    0    0  0.11511603033E-02  0.75021537675E-02  0.27934322163E+01  0.27937288978E+01  0.40000000000E-01 0. -1.
</event>
<event>
 5   0  0.7212170E+07  0.9118800E+02  0.7818608E-02  0.1180000E+00
       11   -1    0    0    0    0  0.00000000000E+00  0.00000000000E+00  0.39999999673E+01  0.40000000000E+01  0.51109989000E-03 0.  1.
     -623   -1    0    0    0    0  0.00000000000E+00  0.00000000000E+00  0.12525980253E-10  0.17130000000E+03  0.17130000000E+03 0.  1.
       11    1    1    2    0    0  0.14616503916E-02 -0.96911563716E-03  0.29204994370E-02  0.34447274268E-02  0.51109989000E-03 0.  1.
     -623    1    1    2    0    0  0.34719438117E-03  0.72949671889E-03  0.72479273292E-03  0.17130000000E+03  0.17130000000E+03 0.  1.
      622    1    1    2    0    0 -0.18088447728E-02  0.23961891822E-03  0.39963546754E+01  0.39965552694E+01  0.40000000000E-01 0.  1.
</event>
<event>
 5   0  0.7212170E+07  0.9118800E+02  0.7818608E-02  0.1180000E+00
       11   -1    0    0    0    0  0.00000000000E+00  0.00000000000E+00  0.39999999673E+01  0.40000000000E+01  0.51109989000E-03 0.  1.
     -623   -1    0    0    0    0  0.00000000000E+00  0.00000000000E+00  0.12525980253E-10  0.17130000000E+03  0.17130000000E+03 0. -1.
       11    1    1    2    0    0  0.47080438799E-03  0.34756333211E-03  0.18903596562E-02  0.20438052179E-02  0.51109989000E-03 0.  1.
     -623    1    1    2    0    0 -0.15034464918E-02  0.32931716789E-02  0.35534996295E-03  0.17130000004E+03  0.17130000000E+03 0. -1.
      622    1    1    2    0    0  0.10326421040E-02 -0.36407350114E-02  0.39977542582E+01  0.39979561566E+01  0.40000000000E-01 0.  1.
</event>
<event>
 5   0  0.7212170E+07  0.9118800E+02  0.7818608E-02  0.1180000E+00
       11   -1    0    0    0    0  0.00000000000E+00  0.00000000000E+00  0.39999999673E+01  0.40000000000E+01  0.51109989000E-03 0.  1.
     -623   -1    0    0    0    0  0.00000000000E+00  0.00000000000E+00  0.12525980253E-10  0.17130000000E+03  0.17130000000E+03 0. -1.
       11    1    1    2    0    0  0.56654447933E-02  0.31759870279E-01  0.13076373057E+01  0.13080353095E+01  0.51109989000E-03 0.  1.
     -623    1    1    2    0    0  0.45373558860E-02 -0.11755541181E-02  0.88833718913E-03  0.17130000007E+03  0.17130000000E+03 0. -1.
      622    1    1    2    0    0 -0.10202800680E-01 -0.30584316161E-01  0.26914743249E+01  0.26919646244E+01  0.40000000000E-01 0. -1.
</event>
<event>
 5   0  0.7212170E+07  0.9118800E+02  0.7818608E-02  0.1180000E+00
       11   -1    0    0    0    0  0.00000000000E+00  0.00000000000E+00  0.39999999673E+01  0.40000000000E+01  0.51109989000E-03 0. -1.
     -623   -1    0    0    0    0  0.00000000000E+00  0.00000000000E+00  0.12525980253E-10  0.17130000000E+03  0.17130000000E+03 0. -1.
       11    1    1    2    0    0  0.44387217148E-02 -0.54953561400E-02  0.20599709431E+00  0.20611881350E+00  0.51109989000E-03 0. -1.
     -623    1    1    2    0    0 -0.24078237490E-02 -0.45378106340E-02  0.34644669656E-03  0.17130000008E+03  0.17130000000E+03 0. -1.
      622    1    1    2    0    0 -0.20308979657E-02  0.10033166774E-01  0.37936564266E+01  0.37938811093E+01  0.40000000000E-01 0. -1.
</event>
<event>
 5   0  0.7212170E+07  0.9118800E+02  0.7818608E-02  0.1180000E+00
       11   -1    0    0    0    0  0.00000000000E+00  0.00000000000E+00  0.39999999673E+01  0.40000000000E+01  0.51109989000E-03 0. -1.
     -623   -1    0    0    0    0  0.00000000000E+00  0.00000000000E+00  0.12525980253E-10  0.17130000000E+03  0.17130000000E+03 0. -1.
       11    1    1    2    0    0  0.25434618065E-01 -0.20515085453E-02  0.29000222900E+01  0.29001345956E+01  0.51109989000E-03 0. -1.
     -623    1    1    2    0    0  0.11911591236E-02  0.10557068439E-02  0.11628797870E-02  0.17130000001E+03  0.17130000000E+03 0. -1.
      622    1    1    2    0    0 -0.26625777189E-01  0.99580170131E-03  0.10988147979E+01  0.10998653934E+01  0.40000000000E-01 0.  0.
</event>
<event>
 5   0  0.7212170E+07  0.9118800E+02  0.7818608E-02  0.1180000E+00
       11   -1    0    0    0    0  0.00000000000E+00  0.00000000000E+00  0.39999999673E+01  0.40000000000E+01  0.51109989000E-03 0.  1.
     -623   -1    0    0    0    0  0.00000000000E+00  0.00000000000E+00  0.12525980253E-10  0.17130000000E+03  0.17130000000E+03 0. -1.
       11    1    1    2    0    0  0.10346205560E-02 -0.16947837935E-02  0.20822980161E-02  0.29223141390E-02  0.51109989000E-03 0.  1.
     -623    1    1    2    0    0 -0.30210937819E-02  0.18724172347E-02  0.10406723456E-02  0.17130000004E+03  0.17130000000E+03 0. -1.
      622    1    1    2    0    0  0.19864732259E-02 -0.17763344127E-03  0.39968769971E+01  0.39970776459E+01  0.40000000000E-01 0.  1.
</event>
<event>
 5   0  0.7212170E+07  0.9118800E+02  0.7818608E-02  0.1180000E+00
       11   -1    0    0    0    0  0.00000000000E+00  0.00000000000E+00  0.39999999673E+01  0.40000000000E+01  0.51109989000E-03 0.  1.
     -623   -1    0    0    0    0  0.00000000000E+00  0.00000000000E+00  0.12525980253E-10  0.17130000000E+03  0.17130000000E+03 0. -1.
       11    1    1    2    0    0  0.26596479600E-03  0.18649639275E-02  0.15753635517E+01  0.15753647610E+01  0.51109989000E-03 0.  1.
     -623    1    1    2    0    0 -0.26038181060E-02  0.11779263524E-02  0.33420667906E-03  0.17130000002E+03  0.17130000000E+03 0. -1.
      622    1    1    2    0    0  0.23378533103E-02 -0.30428902800E-02  0.24243022094E+01  0.24246352153E+01  0.40000000000E-01 0. -1.
</event>
<event>
 5   0  0.7212170E+07  0.9118800E+02  0.7818608E-02  0.1180000E+00
       11   -1    0    0    0    0  0.00000000000E+00  0.00000000000E+00  0.39999999673E+01  0.40000000000E+01  0.51109989000E-03 0. -1.
     -623   -1    0    0    0    0  0.00000000000E+00  0.00000000000E+00  0.12525980253E-10  0.17130000000E+03  0.17130000000E+03 0.  1.
       11    1    1    2    0    0  0.11991233061E-01  0.23621074789E-01  0.83066118143E+00  0.83108363262E+00  0.51109989000E-03 0. -1.
     -623    1    1    2    0    0 -0.22916513475E-01  0.17598771416E-01  0.96427458896E-03  0.17130000244E+03  0.17130000000E+03 0.  1.
      622    1    1    2    0    0  0.10925280413E-01 -0.41219846204E-01  0.31683745112E+01  0.31689139277E+01  0.40000000000E-01 0. -1.
</event>
<event>
 5   0  0.7212170E+07  0.9118800E+02  0.7818608E-02  0.1180000E+00
       11   -1    0    0    0    0  0.00000000000E+00  0.00000000000E+00  0.39999999673E+01  0.40000000000E+01  0.51109989000E-03 0. -1.
     -623   -1    0    0    0    0  0.00000000000E+00  0.00000000000E+00  0.12525980253E-10  0.17130000000E+03  0.17130000000E+03 0. -1.
       11    1    1    2    0    0  0.38746391259E-03  0.11192072123E-02  0.48849953752E-02  0.50524405965E-02  0.51109989000E-03 0. -1.
     -623    1    1    2    0    0 -0.80061564327E-03 -0.81873719103E-03  0.36770742931E-03  0.17130000000E+03  0.17130000000E+03 0. -1.
      622    1    1    2    0    0  0.41315173067E-03 -0.30047002127E-03  0.39947472645E+01  0.39949475551E+01  0.40000000000E-01 0. -1.
</event>
<event>
 5   0  0.7212170E+07  0.9118800E+02  0.7818608E-02  0.1180000E+00
       11   -1    0    0    0    0  0.00000000000E+00  0.00000000000E+00  0.39999999673E+01  0.40000000000E+01  0.51109989000E-03 0.  1.
     -623   -1    0    0    0    0  0.00000000000E+00  0.00000000000E+00  0.12525980253E-10  0.17130000000E+03  0.17130000000E+03 0.  1.
       11    1    1    2    0    0  0.13405273568E-03 -0.56092374237E-02  0.19767479810E+00  0.19775507210E+00  0.51109989000E-03 0.  1.
     -623    1    1    2    0    0 -0.38599258549E-02  0.11315478095E-03  0.29649107502E-03  0.17130000004E+03  0.17130000000E+03 0.  1.
      622    1    1    2    0    0  0.37258731193E-02  0.54960826427E-02  0.38020286783E+01  0.38022448842E+01  0.40000000000E-01 0.  1.
</event>
<event>
 5   0  0.7212170E+07  0.9118800E+02  0.7818608E-02  0.1180000E+00
       11   -1    0    0    0    0  0.00000000000E+00  0.00000000000E+00  0.39999999673E+01  0.40000000000E+01  0.51109989000E-03 0.  1.
     -623   -1    0    0    0    0  0.00000000000E+00  0.00000000000E+00  0.12525980253E-10  0.17130000000E+03  0.17130000000E+03 0. -1.
       11    1    1    2    0    0 -0.83213274965E-03 -0.59825108494E-02  0.94640557019E-01  0.94834482847E-01  0.51109989000E-03 0.  1.
     -623    1    1    2    0    0 -0.39514686201E-02  0.64400969357E-02  0.40187933255E-03  0.17130000017E+03  0.17130000000E+03 0. -1.
      622    1    1    2    0    0  0.47836013699E-02 -0.45758608658E-03  0.39049575312E+01  0.39051653502E+01  0.40000000000E-01 0.  1.
</event>
<event>
 5   0  0.7212170E+07  0.9118800E+02  0.7818608E-02  0.1180000E+00
       11   -1    0    0    0    0  0.00000000000E+00  0.00000000000E+00  0.39999999673E+01  0.40000000000E+01  0.51109989000E-03 0. -1.
     -623   -1    0    0    0    0  0.00000000000E+00  0.00000000000E+00  0.12525980253E-10  0.17130000000E+03  0.17130000000E+03 0. -1.
       11    1    1    2    0    0 -0.71155872827E-02 -0.61229469401E-02  0.50608077024E-01  0.51473884104E-01  0.51109989000E-03 0. -1.
     -623    1    1    2    0    0 -0.23982735045E-01  0.11031396714E-01  0.11959487102E-02  0.17130000204E+03  0.17130000000E+03 0. -1.
      622    1    1    2    0    0  0.31098322331E-01 -0.49084497751E-02  0.39481959422E+01  0.39485240783E+01  0.40000000000E-01 0. -1.
</event>
<event>
 5   0  0.7212170E+07  0.9118800E+02  0.7818608E-02  0.1180000E+00
       11   -1    0    0    0    0  0.00000000000E+00  0.00000000000E+00  0.39999999673E+01  0.40000000000E+01  0.51109989000E-03 0.  1.
     -623   -1    0    0    0    0  0.00000000000E+00  0.00000000000E+00  0.12525980253E-10  0.17130000000E+03  0.17130000000E+03 0. -1.
       11    1    1    2    0    0 -0.60016579205E-02  0.36147418600E-02  0.49923551626E-01  0.50415359630E-01  0.51109989000E-03 0.  1.
     -623    1    1    2    0    0  0.38698122633E-02 -0.82663974236E-02  0.69789288435E-03  0.17130000024E+03  0.17130000000E+03 0. -1.
      622    1    1    2    0    0  0.21318456569E-02  0.46516555642E-02  0.39493785231E+01  0.39495843960E+01  0.40000000000E-01 0.  1.
</event>
<event>
 5   0  0.7212170E+07  0.9118800E+02  0.7818608E-02  0.1180000E+00
       11   -1    0    0    0    0  0.00000000000E+00  0.00000000000E+00  0.39999999673E+01  0.40000000000E+01  0.51109989000E-03 0.  1.
     -623   -1    0    0    0    0  0.00000000000E+00  0.00000000000E+00  0.12525980253E-10  0.17130000000E+03  0.17130000000E+03 0. -1.
       11    1    1    2    0    0  0.86727237019E-02  0.83051768578E-03  0.24745756031E+00  0.24761141184E+00  0.51109989000E-03 0.  1.
     -623    1    1    2    0    0 -0.16889807725E-02 -0.13576767788E-02  0.37357288684E-03  0.17130000001E+03  0.17130000000E+03 0. -1.
      622    1    1    2    0    0 -0.69837429290E-02  0.52715909342E-03  0.37521688352E+01  0.37523885751E+01  0.40000000000E-01 0.  1.
</event>
<event>
 5   0  0.7212170E+07  0.9118800E+02  0.7818608E-02  0.1180000E+00
       11   -1    0    0    0    0  0.00000000000E+00  0.00000000000E+00  0.39999999673E+01  0.40000000000E+01  0.51109989000E-03 0.  1.
     -623   -1    0    0    0    0  0.00000000000E+00  0.00000000000E+00  0.12525980253E-10  0.17130000000E+03  0.17130000000E+03 0. -1.
       11    1    1    2    0    0 -0.55929397983E-02  0.13311245529E-02  0.23197766233E-01  0.23905029794E-01  0.51109989000E-03 0.  1.
     -623    1    1    2    0    0  0.46604417787E-02 -0.29512360874E-02  0.90896912272E-03  0.17130000009E+03  0.17130000000E+03 0. -1.
      622    1    1    2    0    0  0.93249801928E-03  0.16201115347E-02  0.39758932323E+01  0.39760948793E+01  0.40000000000E-01 0.  1.
</event>
<event>
 5   0  0.7212170E+07  0.9118800E+02  0.7818608E-02  0.1180000E+00
       11   -1    0    0    0    0  0.00000000000E+00  0.00000000000E+00  0.39999999673E+01  0.40000000000E+01  0.51109989000E-03 0. -1.
     -623   -1    0    0    0    0  0.00000000000E+00  0.00000000000E+00  0.12525980253E-10  0.17130000000E+03  0.17130000000E+03 0. -1.
       11    1    1    2    0    0 -0.40741016188E-02 -0.45907582727E-03  0.35899928895E-01  0.36136894891E-01  0.51109989000E-03 0. -1.
     -623    1    1    2    0    0 -0.27143191734E-03 -0.17314929694E-02  0.44175877014E-03  0.17130000001E+03  0.17130000000E+03 0. -1.
      622    1    1    2    0    0  0.43455335361E-02  0.21905687963E-02  0.39636582789E+01  0.39638630948E+01  0.40000000000E-01 0. -1.
</event>
<event>
 5   0  0.7212170E+07  0.9118800E+02  0.7818608E-02  0.1180000E+00
       11   -1    0    0    0    0  0.00000000000E+00  0.00000000000E+00  0.39999999673E+01  0.40000000000E+01  0.51109989000E-03 0. -1.
     -623   -1    0    0    0    0  0.00000000000E+00  0.00000000000E+00  0.12525980253E-10  0.17130000000E+03  0.17130000000E+03 0. -1.
       11    1    1    2    0    0 -0.44967110243E-02  0.10201700334E-01  0.22672242800E+00  0.22699695082E+00  0.51109989000E-03 0. -1.
     -623    1    1    2    0    0  0.80830812044E-02 -0.20732569302E-01  0.50437685924E-03  0.17130000145E+03  0.17130000000E+03 0. -1.
      622    1    1    2    0    0 -0.35863701799E-02  0.10530868967E-01  0.37727731624E+01  0.37730016030E+01  0.40000000000E-01 0. -1.
</event>
<event>
 5   0  0.7212170E+07  0.9118800E+02  0.7818608E-02  0.1180000E+00
       11   -1    0    0    0    0  0.00000000000E+00  0.00000000000E+00  0.39999999673E+01  0.40000000000E+01  0.51109989000E-03 0.  1.
     -623   -1    0    0    0    0  0.00000000000E+00  0.00000000000E+00  0.12525980253E-10  0.17130000000E+03  0.17130000000E+03 0.  1.
       11    1    1    2    0    0 -0.40091852298E-02  0.40000808326E-02  0.93020078067E-01  0.93193724894E-01  0.51109989000E-03 0.  1.
     -623    1    1    2    0    0  0.41594350869E-02  0.97209842726E-03  0.38161117189E-03  0.17130000005E+03  0.17130000000E+03 0.  1.
      622    1    1    2    0    0 -0.15024985801E-03 -0.49721792601E-02  0.39065982790E+01  0.39068062223E+01  0.40000000000E-01 0.  1.
</event>
<event>
 5   0  0.7212170E+07  0.9118800E+02  0.7818608E-02  0.1180000E+00
       11   -1    0    0    0    0  0.00000000000E+00  0.00000000000E+00  0.39999999673E+01  0.40000000000E+01  0.51109989000E-03 0. -1.
     -623   -1    0    0    0    0  0.00000000000E+00  0.00000000000E+00  0.12525980253E-10  0.17130000000E+03  0.17130000000E+03 0. -1.
       11    1    1    2    0    0  0.17884992520E-01 -0.17752114981E-02  0.73482890729E+00  0.73504884773E+00  0.51109989000E-03 0. -1.
     -623    1    1    2    0    0 -0.31976846599E-01  0.71761484448E-02  0.50296042019E-03  0.17130000314E+03  0.17130000000E+03 0. -1.
      622    1    1    2    0    0  0.14091854082E-01 -0.54009369475E-02  0.32646681001E+01  0.32649480171E+01  0.40000000000E-01 0. -1.
</event>
<event>
 5   0  0.7212170E+07  0.9118800E+02  0.7818608E-02  0.1180000E+00
       11   -1    0    0    0    0  0.00000000000E+00  0.00000000000E+00  0.39999999673E+01  0.40000000000E+01  0.51109989000E-03 0. -1.
     -623   -1    0    0    0    0  0.00000000000E+00  0.00000000000E+00  0.12525980253E-10  0.17130000000E+03  0.17130000000E+03 0.  1.
       11    1    1    2    0    0 -0.48157745260E-03 -0.94916294930E-03  0.14450932583E-01  0.14499086274E-01  0.51109989000E-03 0. -1.
     -623    1    1    2    0    0 -0.18321372891E-03 -0.28209909184E-03  0.24909985537E-03  0.17130000000E+03  0.17130000000E+03 0.  1.
      622    1    1    2    0    0  0.66479118149E-03  0.12312620411E-02  0.39852999344E+01  0.39855009127E+01  0.40000000000E-01 0. -1.
</event>
<event>
 5   0  0.7212170E+07  0.9118800E+02  0.7818608E-02  0.1180000E+00
       11   -1    0    0    0    0  0.00000000000E+00  0.00000000000E+00  0.39999999673E+01  0.40000000000E+01  0.51109989000E-03 0.  1.
     -623   -1    0    0    0    0  0.00000000000E+00  0.00000000000E+00  0.12525980253E-10  0.17130000000E+03  0.17130000000E+03 0.  1.
       11    1    1    2    0    0  0.25903058076E-01 -0.19110162217E-01  0.11606691024E+01  0.11611154953E+01  0.51109989000E-03 0.  1.
     -623    1    1    2    0    0 -0.62922756197E-03  0.81974502668E-02  0.86186825550E-03  0.17130000020E+03  0.17130000000E+03 0.  1.
      622    1    1    2    0    0 -0.25273830514E-01  0.10912711949E-01  0.28384689975E+01  0.28388843061E+01  0.40000000000E-01 0.  1.
</event>
<event>
 5   0  0.7212170E+07  0.9118800E+02  0.7818608E-02  0.1180000E+00
       11   -1    0    0    0    0  0.00000000000E+00  0.00000000000E+00  0.39999999673E+01  0.40000000000E+01  0.51109989000E-03 0.  1.
     -623   -1    0    0    0    0  0.00000000000E+00  0.00000000000E+00  0.12525980253E-10  0.17130000000E+03  0.17130000000E+03 0.  1.
       11    1    1    2    0    0 -0.36304427033E-02  0.38981875924E-02  0.16263079375E+00  0.16271881354E+00  0.51109989000E-03 0.  1.
     -623    1    1    2    0    0  0.20768884749E-02 -0.21170317017E-01  0.33698386917E-03  0.17130000132E+03  0.17130000000E+03 0.  1.
      622    1    1    2    0    0  0.15535542291E-02  0.17272129419E-01  0.38370321886E+01  0.38372798642E+01  0.40000000000E-01 0.  1.
</event>
<event>
 5   0  0.7212170E+07  0.9118800E+02  0.7818608E-02  0.1180000E+00
       11   -1    0    0    0    0  0.00000000000E+00  0.00000000000E+00  0.39999999673E+01  0.40000000000E+01  0.51109989000E-03 0.  1.
     -623   -1    0    0    0    0  0.00000000000E+00  0.00000000000E+00  0.12525980253E-10  0.17130000000E+03  0.17130000000E+03 0.  1.
       11    1    1    2    0    0 -0.22048136357E-02 -0.25257550084E-03  0.34762565041E-01  0.34837080085E-01  0.51109989000E-03 0.  1.
     -623    1    1    2    0    0  0.26270733347E-03  0.90836644250E-03  0.27677740023E-03  0.17130000000E+03  0.17130000000E+03 0.  1.
      622    1    1    2    0    0  0.19421063023E-02 -0.65579094143E-03  0.39649606239E+01  0.39651629160E+01  0.40000000000E-01 0.  1.
</event>
<event>
 5   0  0.7212170E+07  0.9118800E+02  0.7818608E-02  0.1180000E+00
       11   -1    0    0    0    0  0.00000000000E+00  0.00000000000E+00  0.39999999673E+01  0.40000000000E+01  0.51109989000E-03 0.  1.
     -623   -1    0    0    0    0  0.00000000000E+00  0.00000000000E+00  0.12525980253E-10  0.17130000000E+03  0.17130000000E+03 0.  1.
       11    1    1    2    0    0  0.13105733867E-02 -0.26135714117E-02  0.11242453274E-01  0.11627653970E-01  0.51109989000E-03 0.  1.
     -623    1    1    2    0    0 -0.10040325034E-02 -0.49841673260E-03  0.58698678096E-03  0.17130000000E+03  0.17130000000E+03 0.  1.
      622    1    1    2    0    0 -0.30654088330E-03  0.31119881443E-02  0.39881705273E+01  0.39883723413E+01  0.40000000000E-01 0.  1.
</event>
<event>
 5   0  0.7212170E+07  0.9118800E+02  0.7818608E-02  0.1180000E+00
       11   -1    0    0    0    0  0.00000000000E+00  0.00000000000E+00  0.39999999673E+01  0.40000000000E+01  0.51109989000E-03 0.  1.
     -623   -1    0    0    0    0  0.00000000000E+00  0.00000000000E+00  0.12525980253E-10  0.17130000000E+03  0.17130000000E+03 0. -1.
       11    1    1    2    0    0 -0.12883201090E-01  0.16290022649E-01  0.27552895873E+00  0.27631107475E+00  0.51109989000E-03 0.  1.
     -623    1    1    2    0    0  0.13528418687E-02 -0.16500515413E-02  0.10435806491E-02  0.17130000002E+03  0.17130000000E+03 0. -1.
      622    1    1    2    0    0  0.11530359221E-01 -0.14639971108E-01  0.37234274280E+01  0.37236889088E+01  0.40000000000E-01 0.  1.
</event>
<event>
 5   0  0.7212170E+07  0.9118800E+02  0.7818608E-02  0.1180000E+00
       11   -1    0    0    0    0  0.00000000000E+00  0.00000000000E+00  0.39999999673E+01  0.40000000000E+01  0.51109989000E-03 0. -1.
     -623   -1    0    0    0    0  0.00000000000E+00  0.00000000000E+00  0.12525980253E-10  0.17130000000E+03  0.17130000000E+03 0. -1.
       11    1    1    2    0    0 -0.26198767246E-02  0.86146739971E-03  0.84404026672E-01  0.84450617651E-01  0.51109989000E-03 0. -1.
     -623    1    1    2    0    0  0.14190819078E-02 -0.24202583403E-02  0.25139486501E-03  0.17130000002E+03  0.17130000000E+03 0. -1.
      622    1    1    2    0    0  0.12007948169E-02  0.15587909403E-02  0.39153445453E+01  0.39155493587E+01  0.40000000000E-01 0. -1.
</event>
<event>
 5   0  0.7212170E+07  0.9118800E+02  0.7818608E-02  0.1180000E+00
       11   -1    0    0    0    0  0.00000000000E+00  0.00000000000E+00  0.39999999673E+01  0.40000000000E+01  0.51109989000E-03 0. -1.
     -623   -1    0    0    0    0  0.00000000000E+00  0.00000000000E+00  0.12525980253E-10  0.17130000000E+03  0.17130000000E+03 0.  1.
       11    1    1    2    0    0  0.49636538662E-02 -0.10304552167E-02  0.43591438265E-01  0.43888203550E-01  0.51109989000E-03 0. -1.
     -623    1    1    2    0    0  0.61670971546E-03  0.39705294147E-02  0.50403292924E-03  0.17130000005E+03  0.17130000000E+03 0.  1.
      622    1    1    2    0    0 -0.55803635817E-02 -0.29400741978E-02  0.39559044959E+01  0.39561117483E+01  0.40000000000E-01 0. -1.
</event>
<event>
 5   0  0.7212170E+07  0.9118800E+02  0.7818608E-02  0.1180000E+00
       11   -1    0    0    0    0  0.00000000000E+00  0.00000000000E+00  0.39999999673E+01  0.40000000000E+01  0.51109989000E-03 0. -1.
     -623   -1    0    0    0    0  0.00000000000E+00  0.00000000000E+00  0.12525980253E-10  0.17130000000E+03  0.17130000000E+03 0. -1.
       11    1    1    2    0    0  0.36107959783E-03  0.51475143570E-04  0.77572932937E-02  0.77826634585E-02  0.51109989000E-03 0. -1.
     -623    1    1    2    0    0  0.23374913081E-03 -0.71772728519E-03  0.22583417156E-03  0.17130000000E+03  0.17130000000E+03 0. -1.
      622    1    1    2    0    0 -0.59482872867E-03  0.66625214171E-03  0.39920168404E+01  0.39922173352E+01  0.40000000000E-01 0. -1.
</event>
<event>
 5   0  0.7212170E+07  0.9118800E+02  0.7818608E-02  0.1180000E+00
       11   -1    0    0    0    0  0.00000000000E+00  0.00000000000E+00  0.39999999673E+01  0.40000000000E+01  0.51109989000E-03 0.  1.
     -623   -1    0    0    0    0  0.00000000000E+00  0.00000000000E+00  0.12525980253E-10  0.17130000000E+03  0.17130000000E+03 0.  1.
       11    1    1    2    0    0 -0.27497757914E-03 -0.36357145963E-03  0.86527885699E-03  0.11035068977E-02  0.51109989000E-03 0.  1.
     -623    1    1    2    0    0 -0.11559371318E-02  0.93286875676E-03  0.43855914632E-03  0.17130000001E+03  0.17130000000E+03 0.  1.
      622    1    1    2    0    0  0.14309147108E-02 -0.56929729699E-03  0.39986961288E+01  0.39988964855E+01  0.40000000000E-01 0.  1.
</event>
<event>
 5   0  0.7212170E+07  0.9118800E+02  0.7818608E-02  0.1180000E+00
       11   -1    0    0    0    0  0.00000000000E+00  0.00000000000E+00  0.39999999673E+01  0.40000000000E+01  0.51109989000E-03 0.  1.
     -623   -1    0    0    0    0  0.00000000000E+00  0.00000000000E+00  0.12525980253E-10  0.17130000000E+03  0.17130000000E+03 0.  1.
       11    1    1    2    0    0 -0.68760431554E-02  0.93743448126E-02  0.10449030478E+01  0.10449678458E+01  0.51109989000E-03 0.  1.
     -623    1    1    2    0    0 -0.81011992008E-03 -0.24281935887E-02  0.35368353741E-03  0.17130000002E+03  0.17130000000E+03 0.  1.
      622    1    1    2    0    0  0.76861630753E-02 -0.69461512243E-02  0.29547432352E+01  0.29550321339E+01  0.40000000000E-01 0.  1.
</event>
<event>
 5   0  0.7212170E+07  0.9118800E+02  0.7818608E-02  0.1180000E+00
       11   -1    0    0    0    0  0.00000000000E+00  0.00000000000E+00  0.39999999673E+01  0.40000000000E+01  0.51109989000E-03 0.  1.
     -623   -1    0    0    0    0  0.00000000000E+00  0.00000000000E+00  0.12525980253E-10  0.17130000000E+03  0.17130000000E+03 0.  1.
       11    1    1    2    0    0  0.28312698534E-03 -0.58581367512E-03  0.15177590986E-01  0.15200125979E-01  0.51109989000E-03 0.  1.
     -623    1    1    2    0    0  0.46943541997E-05 -0.97578208755E-03  0.22358963771E-03  0.17130000000E+03  0.17130000000E+03 0.  1.
      622    1    1    2    0    0 -0.28782133954E-03  0.15615957624E-02  0.39845987858E+01  0.39847998701E+01  0.40000000000E-01 0.  1.
</event>
<event>
 5   0  0.7212170E+07  0.9118800E+02  0.7818608E-02  0.1180000E+00
       11   -1    0    0    0    0  0.00000000000E+00  0.00000000000E+00  0.39999999673E+01  0.40000000000E+01  0.51109989000E-03 0.  1.
     -623   -1    0    0    0    0  0.00000000000E+00  0.00000000000E+00  0.12525980253E-10  0.17130000000E+03  0.17130000000E+03 0.  1.
       11    1    1    2    0    0  0.34775081232E-01 -0.37530861400E-01  0.12149493551E+01  0.12160263436E+01  0.51109989000E-03 0.  1.
     -623    1    1    2    0    0  0.54135072034E-02  0.19157540740E-03  0.19050109071E-02  0.17130000010E+03  0.17130000000E+03 0.  1.
      622    1    1    2    0    0 -0.40188588435E-01  0.37339285992E-01  0.27831456014E+01  0.27839735601E+01  0.40000000000E-01 0.  1.
</event>
<event>
 5   0  0.7212170E+07  0.9118800E+02  0.7818608E-02  0.1180000E+00
       11   -1    0    0    0    0  0.00000000000E+00  0.00000000000E+00  0.39999999673E+01  0.40000000000E+01  0.51109989000E-03 0. -1.
     -623   -1    0    0    0    0  0.00000000000E+00  0.00000000000E+00  0.12525980253E-10  0.17130000000E+03  0.17130000000E+03 0. -1.
       11    1    1    2    0    0  0.16508984674E-01  0.37388663531E-02  0.49749557489E+00  0.49778372206E+00  0.51109989000E-03 0. -1.
     -623    1    1    2    0    0 -0.19535357162E-01 -0.16373612356E-01  0.54254629285E-03  0.17130000190E+03  0.17130000000E+03 0. -1.
      622    1    1    2    0    0  0.30263724893E-02  0.12634746004E-01  0.35019618464E+01  0.35022143809E+01  0.40000000000E-01 0. -1.
</event>
<event>
 5   0  0.7212170E+07  0.9118800E+02  0.7818608E-02  0.1180000E+00
       11   -1    0    0    0    0  0.00000000000E+00  0.00000000000E+00  0.39999999673E+01  0.40000000000E+01  0.51109989000E-03 0.  1.
     -623   -1    0    0    0    0  0.00000000000E+00  0.00000000000E+00  0.12525980253E-10  0.17130000000E+03  0.17130000000E+03 0.  1.
       11    1    1    2    0    0  0.83242326305E-03  0.28743002895E-03  0.39131705786E-02  0.40434727136E-02  0.51109989000E-03 0.  1.
     -623    1    1    2    0    0 -0.68734924766E-03 -0.56821370478E-03  0.33049202775E-03  0.17130000000E+03  0.17130000000E+03 0.  1.
      622    1    1    2    0    0 -0.14507401527E-03  0.28078367593E-03  0.39957563055E+01  0.39959565253E+01  0.40000000000E-01 0.  1.
</event>
<event>
 5   0  0.7212170E+07  0.9118800E+02  0.7818608E-02  0.1180000E+00
       11   -1    0    0    0    0  0.00000000000E+00  0.00000000000E+00  0.39999999673E+01  0.40000000000E+01  0.51109989000E-03 0.  1.
     -623   -1    0    0    0    0  0.00000000000E+00  0.00000000000E+00  0.12525980253E-10  0.17130000000E+03  0.17130000000E+03 0.  1.
       11    1    1    2    0    0  0.52932520999E-03 -0.14154732129E-02  0.78379068217E-02  0.79986096315E-02  0.51109989000E-03 0.  1.
     -623    1    1    2    0    0 -0.46807966324E-03 -0.32705571152E-03  0.36145806537E-03  0.17130000000E+03  0.17130000000E+03 0.  1.
      622    1    1    2    0    0 -0.61245546759E-04  0.17425289244E-02  0.39918006024E+01  0.39920013890E+01  0.40000000000E-01 0.  1.
</event>
<event>
 5   0  0.7212170E+07  0.9118800E+02  0.7818608E-02  0.1180000E+00
       11   -1    0    0    0    0  0.00000000000E+00  0.00000000000E+00  0.39999999673E+01  0.40000000000E+01  0.51109989000E-03 0. -1.
     -623   -1    0    0    0    0  0.00000000000E+00  0.00000000000E+00  0.12525980253E-10  0.17130000000E+03  0.17130000000E+03 0. -1.
       11    1    1    2    0    0 -0.10078674068E-02 -0.45149116930E-04  0.82456211664E-02  0.83228196346E-02  0.51109989000E-03 0. -1.
     -623    1    1    2    0    0 -0.19516127049E-03 -0.32445141761E-03  0.27778692025E-03  0.17130000000E+03  0.17130000000E+03 0. -1.
      622    1    1    2    0    0  0.12030286772E-02  0.36960053445E-03  0.39914765581E+01  0.39916771786E+01  0.40000000000E-01 0. -1.
</event>
<event>
 5   0  0.7212170E+07  0.9118800E+02  0.7818608E-02  0.1180000E+00
       11   -1    0    0    0    0  0.00000000000E+00  0.00000000000E+00  0.39999999673E+01  0.40000000000E+01  0.51109989000E-03 0.  1.
     -623   -1    0    0    0    0  0.00000000000E+00  0.00000000000E+00  0.12525980253E-10  0.17130000000E+03  0.17130000000E+03 0. -1.
       11    1    1    2    0    0 -0.39799431190E-02  0.33653210823E-01  0.93819679886E+00  0.93880875218E+00  0.51109989000E-03 0.  1.
     -623    1    1    2    0    0 -0.17765266098E-03  0.40861792192E-03  0.10656204338E-02  0.17130000000E+03  0.17130000000E+03 0. -1.
      622    1    1    2    0    0  0.41575957800E-02 -0.34061828745E-01  0.30607375484E+01  0.30611912443E+01  0.40000000000E-01 0.  1.
</event>
<event>
 5   0  0.7212170E+07  0.9118800E+02  0.7818608E-02  0.1180000E+00
       11   -1    0    0    0    0  0.00000000000E+00  0.00000000000E+00  0.39999999673E+01  0.40000000000E+01  0.51109989000E-03 0.  1.
     -623   -1    0    0    0    0  0.00000000000E+00  0.00000000000E+00  0.12525980253E-10  0.17130000000E+03  0.17130000000E+03 0. -1.
       11    1    1    2    0    0 -0.20052423473E-02  0.18361730157E-01  0.51394993870E+00  0.51428199934E+00  0.51109989000E-03 0.  1.
     -623    1    1    2    0    0 -0.34408698987E-02 -0.18033701306E-02  0.60517525027E-03  0.17130000005E+03  0.17130000000E+03 0. -1.
      622    1    1    2    0    0  0.54461122463E-02 -0.16558360026E-01  0.34854448538E+01  0.34857179559E+01  0.40000000000E-01 0.  1.
</event>
<event>
 5   0  0.7212170E+07  0.9118800E+02  0.7818608E-02  0.1180000E+00
       11   -1    0    0    0    0  0.00000000000E+00  0.00000000000E+00  0.39999999673E+01  0.40000000000E+01  0.51109989000E-03 0.  1.
     -623   -1    0    0    0    0  0.00000000000E+00  0.00000000000E+00  0.12525980253E-10  0.17130000000E+03  0.17130000000E+03 0.  1.
       11    1    1    2    0    0  0.53236912359E-02 -0.35260320250E-02  0.17243720711E+00  0.17255615378E+00  0.51109989000E-03 0.  1.
     -623    1    1    2    0    0  0.48986629821E-03  0.96270829344E-02  0.33748638190E-03  0.17130000027E+03  0.17130000000E+03 0.  1.
      622    1    1    2    0    0 -0.58135575342E-02 -0.61010509114E-02  0.38272252747E+01  0.38274435755E+01  0.40000000000E-01 0.  1.
</event>
<event>
 5   0  0.7212170E+07  0.9118800E+02  0.7818608E-02  0.1180000E+00
       11   -1    0    0    0    0  0.00000000000E+00  0.00000000000E+00  0.39999999673E+01  0.40000000000E+01  0.51109989000E-03 0.  1.
     -623   -1    0    0    0    0  0.00000000000E+00  0.00000000000E+00  0.12525980253E-10  0.17130000000E+03  0.17130000000E+03 0. -1.
       11    1    1    2    0    0  0.16602231316E-02  0.59505077572E-03  0.34962798626E-02  0.39491293024E-02  0.51109989000E-03 0.  1.
     -623    1    1    2    0    0 -0.11074640113E-02  0.60133443088E-03  0.65324268307E-03  0.17130000001E+03  0.17130000000E+03 0. -1.
      622    1    1    2    0    0 -0.55275912020E-03 -0.11963852067E-02  0.39958504452E+01  0.39960508652E+01  0.40000000000E-01 0.  1.
</event>
<event>
 5   0  0.7212170E+07  0.9118800E+02  0.7818608E-02  0.1180000E+00
       11   -1    0    0    0    0  0.00000000000E+00  0.00000000000E+00  0.39999999673E+01  0.40000000000E+01  0.51109989000E-03 0.  1.
     -623   -1    0    0    0    0  0.00000000000E+00  0.00000000000E+00  0.12525980253E-10  0.17130000000E+03  0.17130000000E+03 0.  1.
       11    1    1    2    0    0  0.56135003919E-02 -0.62826443005E-02  0.10753881554E+01  0.10754212798E+01  0.51109989000E-03 0.  1.
     -623    1    1    2    0    0  0.30377227790E-03  0.60368457895E-03  0.31815082763E-03  0.17130000000E+03  0.17130000000E+03 0.  1.
      622    1    1    2    0    0 -0.59172726698E-02  0.56789597215E-02  0.29242936609E+01  0.29245787184E+01  0.40000000000E-01 0.  0.
</event>
<event>
 5   0  0.7212170E+07  0.9118800E+02  0.7818608E-02  0.1180000E+00
       11   -1    0    0    0    0  0.00000000000E+00  0.00000000000E+00  0.39999999673E+01  0.40000000000E+01  0.51109989000E-03 0.  1.
     -623   -1    0    0    0    0  0.00000000000E+00  0.00000000000E+00  0.12525980253E-10  0.17130000000E+03  0.17130000000E+03 0. -1.
       11    1    1    2    0    0 -0.11923031043E-02  0.48866788642E-02  0.74965973923E-01  0.75136274105E-01  0.51109989000E-03 0.  1.
     -623    1    1    2    0    0 -0.41513424750E-02 -0.61344366242E-02  0.37809832363E-03  0.17130000016E+03  0.17130000000E+03 0. -1.
      622    1    1    2    0    0  0.53436455789E-02  0.12477577594E-02  0.39246558947E+01  0.39248635649E+01  0.40000000000E-01 0.  1.
</event>
<event>
 5   0  0.7212170E+07  0.9118800E+02  0.7818608E-02  0.1180000E+00
       11   -1    0    0    0    0  0.00000000000E+00  0.00000000000E+00  0.39999999673E+01  0.40000000000E+01  0.51109989000E-03 0.  1.
     -623   -1    0    0    0    0  0.00000000000E+00  0.00000000000E+00  0.12525980253E-10  0.17130000000E+03  0.17130000000E+03 0. -1.
       11    1    1    2    0    0 -0.43088922736E-01  0.32789513027E-01  0.21784916983E+01  0.21791645528E+01  0.51109989000E-03 0.  1.
     -623    1    1    2    0    0  0.51805849716E-01  0.24287153861E-01  0.20376996278E-02  0.17130000957E+03  0.17130000000E+03 0. -1.
      622    1    1    2    0    0 -0.87169269793E-02 -0.57076666888E-01  0.18194705694E+01  0.18208258795E+01  0.40000000000E-01 0.  1.
</event>
<event>
 5   0  0.7212170E+07  0.9118800E+02  0.7818608E-02  0.1180000E+00
       11   -1    0    0    0    0  0.00000000000E+00  0.00000000000E+00  0.39999999673E+01  0.40000000000E+01  0.51109989000E-03 0.  1.
     -623   -1    0    0    0    0  0.00000000000E+00  0.00000000000E+00  0.12525980253E-10  0.17130000000E+03  0.17130000000E+03 0. -1.
       11    1    1    2    0    0  0.94155842853E-03  0.60514645861E-02  0.91704610709E+00  0.91706669905E+00  0.51109989000E-03 0.  1.
     -623    1    1    2    0    0 -0.30063278586E-02 -0.40322719395E-02  0.28149023389E-03  0.17130000007E+03  0.17130000000E+03 0. -1.
      622    1    1    2    0    0  0.20647694306E-02 -0.20191926459E-02  0.30826723707E+01  0.30829332276E+01  0.40000000000E-01 0.  1.
</event>
<event>
 5   0  0.7212170E+07  0.9118800E+02  0.7818608E-02  0.1180000E+00
       11   -1    0    0    0    0  0.00000000000E+00  0.00000000000E+00  0.39999999673E+01  0.40000000000E+01  0.51109989000E-03 0. -1.
     -623   -1    0    0    0    0  0.00000000000E+00  0.00000000000E+00  0.12525980253E-10  0.17130000000E+03  0.17130000000E+03 0.  1.
       11    1    1    2    0    0  0.19020700433E-02  0.62802193326E-03  0.18956614229E-01  0.19068999138E-01  0.51109989000E-03 0. -1.
     -623    1    1    2    0    0 -0.14152650660E-02 -0.13439770753E-02  0.31342091419E-03  0.17130000001E+03  0.17130000000E+03 0.  1.
      622    1    1    2    0    0 -0.48680497719E-03  0.71595514214E-03  0.39807299325E+01  0.39809309898E+01  0.40000000000E-01 0. -1.
</event>
<event>
 5   0  0.7212170E+07  0.9118800E+02  0.7818608E-02  0.1180000E+00
       11   -1    0    0    0    0  0.00000000000E+00  0.00000000000E+00  0.39999999673E+01  0.40000000000E+01  0.51109989000E-03 0. -1.
     -623   -1    0    0    0    0  0.00000000000E+00  0.00000000000E+00  0.12525980253E-10  0.17130000000E+03  0.17130000000E+03 0.  1.
       11    1    1    2    0    0  0.13996636437E-01 -0.38604631964E-02  0.73308958612E+00  0.73323353136E+00  0.51109989000E-03 0. -1.
     -623    1    1    2    0    0 -0.32289867575E-02  0.29257262357E-02  0.40674900584E-03  0.17130000006E+03  0.17130000000E+03 0.  1.
      622    1    1    2    0    0 -0.10767649679E-01  0.93473696018E-03  0.32665036330E+01  0.32667664135E+01  0.40000000000E-01 0. -1.
</event>
<event>
 5   0  0.7212170E+07  0.9118800E+02  0.7818608E-02  0.1180000E+00
       11   -1    0    0    0    0  0.00000000000E+00  0.00000000000E+00  0.39999999673E+01  0.40000000000E+01  0.51109989000E-03 0.  1.
     -623   -1    0    0    0    0  0.00000000000E+00  0.00000000000E+00  0.12525980253E-10  0.17130000000E+03  0.17130000000E+03 0.  1.
       11    1    1    2    0    0 -0.42602869936E-02  0.40583493721E-02  0.10100461564E+00  0.10117714093E+00  0.51109989000E-03 0.  1.
     -623    1    1    2    0    0  0.34088199204E-02 -0.46990295929E-02  0.37793261117E-03  0.17130000010E+03  0.17130000000E+03 0.  1.
      622    1    1    2    0    0  0.85146707385E-03  0.64068021983E-03  0.38986174183E+01  0.38988227594E+01  0.40000000000E-01 0.  1.
</event>
<event>
 5   0  0.7212170E+07  0.9118800E+02  0.7818608E-02  0.1180000E+00
       11   -1    0    0    0    0  0.00000000000E+00  0.00000000000E+00  0.39999999673E+01  0.40000000000E+01  0.51109989000E-03 0.  1.
     -623   -1    0    0    0    0  0.00000000000E+00  0.00000000000E+00  0.12525980253E-10  0.17130000000E+03  0.17130000000E+03 0.  1.
       11    1    1    2    0    0 -0.11380743058E-03 -0.25210834986E-02  0.51613662841E-01  0.51677850469E-01  0.51109989000E-03 0.  1.
     -623    1    1    2    0    0 -0.15989471907E-03  0.22082505607E-03  0.26745790193E-03  0.17130000000E+03  0.17130000000E+03 0.  1.
      622    1    1    2    0    0  0.27370214961E-03  0.23002584426E-02  0.39481188456E+01  0.39483221481E+01  0.40000000000E-01 0.  1.
</event>
<event>
 5   0  0.7212170E+07  0.9118800E+02  0.7818608E-02  0.1180000E+00
       11   -1    0    0    0    0  0.00000000000E+00  0.00000000000E+00  0.39999999673E+01  0.40000000000E+01  0.51109989000E-03 0. -1.
     -623   -1    0    0    0    0  0.00000000000E+00  0.00000000000E+00  0.12525980253E-10  0.17130000000E+03  0.17130000000E+03 0.  1.
       11    1    1    2    0    0 -0.35083102212E-02  0.62915039885E-02  0.18865939576E-01  0.20200895085E-01  0.51109989000E-03 0. -1.
     -623    1    1    2    0    0 -0.21723035896E-03 -0.14326650584E-01  0.15464050557E-02  0.17130000061E+03  0.17130000000E+03 0.  1.
      622    1    1    2    0    0  0.37255405801E-02  0.80351465952E-02  0.39795876227E+01  0.39797984986E+01  0.40000000000E-01 0. -1.
</event>
<event>
 5   0  0.7212170E+07  0.9118800E+02  0.7818608E-02  0.1180000E+00
       11   -1    0    0    0    0  0.00000000000E+00  0.00000000000E+00  0.39999999673E+01  0.40000000000E+01  0.51109989000E-03 0.  1.
     -623   -1    0    0    0    0  0.00000000000E+00  0.00000000000E+00  0.12525980253E-10  0.17130000000E+03  0.17130000000E+03 0.  1.
       11    1    1    2    0    0 -0.19916113696E-03  0.12713606219E-02  0.13527250644E-01  0.13597932051E-01  0.51109989000E-03 0.  1.
     -623    1    1    2    0    0  0.79379675564E-03 -0.12271231435E-02  0.27138708169E-03  0.17130000001E+03  0.17130000000E+03 0.  1.
      622    1    1    2    0    0 -0.59463561888E-03 -0.44237478022E-04  0.39862013307E+01  0.39864020625E+01  0.40000000000E-01 0.  1.
</event>
<event>
 5   0  0.7212170E+07  0.9118800E+02  0.7818608E-02  0.1180000E+00
       11   -1    0    0    0    0  0.00000000000E+00  0.00000000000E+00  0.39999999673E+01  0.40000000000E+01  0.51109989000E-03 0.  1.
     -623   -1    0    0    0    0  0.00000000000E+00  0.00000000000E+00  0.12525980253E-10  0.17130000000E+03  0.17130000000E+03 0.  1.
       11    1    1    2    0    0  0.61107169657E-02  0.25268567339E-02  0.78333535610E+00  0.78336343239E+00  0.51109989000E-03 0.  1.
     -623    1    1    2    0    0 -0.56795358783E-02 -0.53311512986E-02  0.27818900879E-03  0.17130000018E+03  0.17130000000E+03 0.  1.
      622    1    1    2    0    0 -0.43118108748E-03  0.28042945646E-02  0.32163864222E+01  0.32166363902E+01  0.40000000000E-01 0.  1.
</event>
<event>
 5   0  0.7212170E+07  0.9118800E+02  0.7818608E-02  0.1180000E+00
       11   -1    0    0    0    0  0.00000000000E+00  0.00000000000E+00  0.39999999673E+01  0.40000000000E+01  0.51109989000E-03 0. -1.
     -623   -1    0    0    0    0  0.00000000000E+00  0.00000000000E+00  0.12525980253E-10  0.17130000000E+03  0.17130000000E+03 0.  1.
       11    1    1    2    0    0 -0.36734442769E-03 -0.12455994458E-02  0.92381376005E-02  0.93429582751E-02  0.51109989000E-03 0. -1.
     -623    1    1    2    0    0  0.10338948729E-02  0.26307095941E-02  0.30558096435E-03  0.17130000002E+03  0.17130000000E+03 0.  1.
      622    1    1    2    0    0 -0.66655044565E-03 -0.13851101495E-02  0.39904562505E+01  0.39906570198E+01  0.40000000000E-01 0. -1.
</event>
<event>
 5   0  0.7212170E+07  0.9118800E+02  0.7818608E-02  0.1180000E+00
       11   -1    0    0    0    0  0.00000000000E+00  0.00000000000E+00  0.39999999673E+01  0.40000000000E+01  0.51109989000E-03 0.  1.
     -623   -1    0    0    0    0  0.00000000000E+00  0.00000000000E+00  0.12525980253E-10  0.17130000000E+03  0.17130000000E+03 0. -1.
       11    1    1    2    0    0 -0.14169191215E-01 -0.11538916613E-01  0.12570494490E+01  0.12571823619E+01  0.51109989000E-03 0.  1.
     -623    1    1    2    0    0  0.23249785875E-02  0.10481640217E-01  0.45068356976E-03  0.17130000034E+03  0.17130000000E+03 0. -1.
      622    1    1    2    0    0  0.11844212627E-01  0.10572763943E-02  0.27424998354E+01  0.27428173017E+01  0.40000000000E-01 0.  1.
</event>
<event>
 5   0  0.7212170E+07  0.9118800E+02  0.7818608E-02  0.1180000E+00
       11   -1    0    0    0    0  0.00000000000E+00  0.00000000000E+00  0.39999999673E+01  0.40000000000E+01  0.51109989000E-03 0. -1.
     -623   -1    0    0    0    0  0.00000000000E+00  0.00000000000E+00  0.12525980253E-10  0.17130000000E+03  0.17130000000E+03 0.  1.
       11    1    1    2    0    0  0.58272578247E-03  0.71265682841E-02  0.12493659096E+00  0.12514208137E+00  0.51109989000E-03 0. -1.
     -623    1    1    2    0    0  0.68010053607E-02  0.31141615157E-01  0.61090871206E-03  0.17130000297E+03  0.17130000000E+03 0.  1.
      622    1    1    2    0    0 -0.73837311453E-02 -0.38268183451E-01  0.38744524690E+01  0.38748549531E+01  0.40000000000E-01 0. -1.
</event>
<event>
 5   0  0.7212170E+07  0.9118800E+02  0.7818608E-02  0.1180000E+00
       11   -1    0    0    0    0  0.00000000000E+00  0.00000000000E+00  0.39999999673E+01  0.40000000000E+01  0.51109989000E-03 0. -1.
     -623   -1    0    0    0    0  0.00000000000E+00  0.00000000000E+00  0.12525980253E-10  0.17130000000E+03  0.17130000000E+03 0. -1.
       11    1    1    2    0    0 -0.49988206916E-02 -0.16164243642E-02  0.62928563746E-01  0.63149555773E-01  0.51109989000E-03 0. -1.
     -623    1    1    2    0    0  0.20075651488E-02 -0.24143500738E-02  0.42740209758E-03  0.17130000003E+03  0.17130000000E+03 0. -1.
      622    1    1    2    0    0  0.29912555423E-02  0.40307744386E-02  0.39366440026E+01  0.39368504160E+01  0.40000000000E-01 0. -1.
</event>
<event>
 5   0  0.7212170E+07  0.9118800E+02  0.7818608E-02  0.1180000E+00
       11   -1    0    0    0    0  0.00000000000E+00  0.00000000000E+00  0.39999999673E+01  0.40000000000E+01  0.51109989000E-03 0.  1.
     -623   -1    0    0    0    0  0.00000000000E+00  0.00000000000E+00  0.12525980253E-10  0.17130000000E+03  0.17130000000E+03 0.  1.
       11    1    1    2    0    0  0.14412230894E-01  0.14182499745E-02  0.28447568042E+01  0.28447937114E+01  0.51109989000E-03 0.  1.
     -623    1    1    2    0    0  0.32984563662E-02 -0.68371125505E-02  0.87834083581E-03  0.17130000017E+03  0.17130000000E+03 0.  1.
      622    1    1    2    0    0 -0.17710687261E-01  0.54188625760E-02  0.11543648223E+01  0.11552061182E+01  0.40000000000E-01 0.  1.
</event>
<event>
 5   0  0.7212170E+07  0.9118800E+02  0.7818608E-02  0.1180000E+00
       11   -1    0    0    0    0  0.00000000000E+00  0.00000000000E+00  0.39999999673E+01  0.40000000000E+01  0.51109989000E-03 0. -1.
     -623   -1    0    0    0    0  0.00000000000E+00  0.00000000000E+00  0.12525980253E-10  0.17130000000E+03  0.17130000000E+03 0.  1.
       11    1    1    2    0    0  0.77341472765E-02  0.17127221253E-03  0.44047486381E-01  0.44724586615E-01  0.51109989000E-03 0. -1.
     -623    1    1    2    0    0 -0.89242012712E-03  0.44932323725E-02  0.88806606259E-03  0.17130000006E+03  0.17130000000E+03 0.  1.
      622    1    1    2    0    0 -0.68417271493E-02 -0.46645045855E-02  0.39550644153E+01  0.39552753502E+01  0.40000000000E-01 0. -1.
</event>
<event>
 5   0  0.7212170E+07  0.9118800E+02  0.7818608E-02  0.1180000E+00
       11   -1    0    0    0    0  0.00000000000E+00  0.00000000000E+00  0.39999999673E+01  0.40000000000E+01  0.51109989000E-03 0.  1.
     -623   -1    0    0    0    0  0.00000000000E+00  0.00000000000E+00  0.12525980253E-10  0.17130000000E+03  0.17130000000E+03 0. -1.
       11    1    1    2    0    0  0.31194674288E-01 -0.11104052800E-01  0.10587466819E+01  0.10592644643E+01  0.51109989000E-03 0.  1.
     -623    1    1    2    0    0  0.34922623418E-02  0.21094001689E-02  0.10082105867E-02  0.17130000005E+03  0.17130000000E+03 0. -1.
      622    1    1    2    0    0 -0.34686936630E-01  0.89946526311E-02  0.29402450751E+01  0.29407354843E+01  0.40000000000E-01 0. -1.
</event>
<event>
 5   0  0.7212170E+07  0.9118800E+02  0.7818608E-02  0.1180000E+00
       11   -1    0    0    0    0  0.00000000000E+00  0.00000000000E+00  0.39999999673E+01  0.40000000000E+01  0.51109989000E-03 0. -1.
     -623   -1    0    0    0    0  0.00000000000E+00  0.00000000000E+00  0.12525980253E-10  0.17130000000E+03  0.17130000000E+03 0.  1.
       11    1    1    2    0    0 -0.75800210351E-03  0.11743377056E-02  0.49891785710E-02  0.52064154796E-02  0.51109989000E-03 0. -1.
     -623    1    1    2    0    0 -0.80132341898E-03 -0.20790127311E-02  0.41789174094E-03  0.17130000002E+03  0.17130000000E+03 0.  1.
      622    1    1    2    0    0  0.15593255223E-02  0.90467502495E-03  0.39945928960E+01  0.39947935685E+01  0.40000000000E-01 0. -1.
</event>
<event>
 5   0  0.7212170E+07  0.9118800E+02  0.7818608E-02  0.1180000E+00
       11   -1    0    0    0    0  0.00000000000E+00  0.00000000000E+00  0.39999999673E+01  0.40000000000E+01  0.51109989000E-03 0.  1.
     -623   -1    0    0    0    0  0.00000000000E+00  0.00000000000E+00  0.12525980253E-10  0.17130000000E+03  0.17130000000E+03 0.  1.
       11    1    1    2    0    0 -0.17232085679E-01 -0.46014957020E-02  0.11137616797E+00  0.11279641197E+00  0.51109989000E-03 0.  1.
     -623    1    1    2    0    0  0.12701494893E-02 -0.28472779032E-02  0.16659679277E-02  0.17130000004E+03  0.17130000000E+03 0.  1.
      622    1    1    2    0    0  0.15961936190E-01  0.74487736052E-02  0.38869578315E+01  0.38872035515E+01  0.40000000000E-01 0.  1.
</event>
<event>
 5   0  0.7212170E+07  0.9118800E+02  0.7818608E-02  0.1180000E+00
       11   -1    0    0    0    0  0.00000000000E+00  0.00000000000E+00  0.39999999673E+01  0.40000000000E+01  0.51109989000E-03 0.  1.
     -623   -1    0    0    0    0  0.00000000000E+00  0.00000000000E+00  0.12525980253E-10  0.17130000000E+03  0.17130000000E+03 0.  1.
       11    1    1    2    0    0  0.24036571726E-02 -0.11354793177E-02  0.17082826325E-02  0.32009894930E-02  0.51109989000E-03 0.  1.
     -623    1    1    2    0    0  0.82493742022E-02 -0.14287145913E-02  0.17080731011E-02  0.17130000021E+03  0.17130000000E+03 0.  1.
      622    1    1    2    0    0 -0.10653031375E-01  0.25641939091E-02  0.39965836118E+01  0.39967987976E+01  0.40000000000E-01 0.  1.
</event>
<event>
 5   0  0.7212170E+07  0.9118800E+02  0.7818608E-02  0.1180000E+00
       11   -1    0    0    0    0  0.00000000000E+00  0.00000000000E+00  0.39999999673E+01  0.40000000000E+01  0.51109989000E-03 0. -1.
     -623   -1    0    0    0    0  0.00000000000E+00  0.00000000000E+00  0.12525980253E-10  0.17130000000E+03  0.17130000000E+03 0. -1.
       11    1    1    2    0    0 -0.92214767811E-03 -0.15151868665E-02  0.53903100841E-01  0.53934698024E-01  0.51109989000E-03 0. -1.
     -623    1    1    2    0    0  0.31424073101E-03  0.60046207215E-04  0.23461894258E-03  0.17130000000E+03  0.17130000000E+03 0. -1.
      622    1    1    2    0    0  0.60790694701E-03  0.14551406592E-02  0.39458622488E+01  0.39460653027E+01  0.40000000000E-01 0. -1.
</event>
<event>
 5   0  0.7212170E+07  0.9118800E+02  0.7818608E-02  0.1180000E+00
       11   -1    0    0    0    0  0.00000000000E+00  0.00000000000E+00  0.39999999673E+01  0.40000000000E+01  0.51109989000E-03 0.  1.
     -623   -1    0    0    0    0  0.00000000000E+00  0.00000000000E+00  0.12525980253E-10  0.17130000000E+03  0.17130000000E+03 0.  1.
       11    1    1    2    0    0 -0.21525346798E-02 -0.32397093103E-02  0.11413837675E-01  0.12069218514E-01  0.51109989000E-03 0.  1.
     -623    1    1    2    0    0  0.23233294436E-03  0.28281438206E-02  0.85646773116E-03  0.17130000003E+03  0.17130000000E+03 0.  1.
      622    1    1    2    0    0  0.19202017354E-02  0.41156548959E-03  0.39877296621E+01  0.39879307560E+01  0.40000000000E-01 0.  1.
</event>
<event>
 5   0  0.7212170E+07  0.9118800E+02  0.7818608E-02  0.1180000E+00
       11   -1    0    0    0    0  0.00000000000E+00  0.00000000000E+00  0.39999999673E+01  0.40000000000E+01  0.51109989000E-03 0. -1.
     -623   -1    0    0    0    0  0.00000000000E+00  0.00000000000E+00  0.12525980253E-10  0.17130000000E+03  0.17130000000E+03 0. -1.
       11    1    1    2    0    0  0.72261298739E-02  0.33724869845E-01  0.21700550199E+01  0.21703291535E+01  0.51109989000E-03 0. -1.
     -623    1    1    2    0    0 -0.90203253541E-02  0.76485461007E-03  0.10376891304E-02  0.17130000024E+03  0.17130000000E+03 0. -1.
      622    1    1    2    0    0  0.17941954807E-02 -0.34489724455E-01  0.18289072586E+01  0.18296706044E+01  0.40000000000E-01 0. -1.
</event>
<event>
 5   0  0.7212170E+07  0.9118800E+02  0.7818608E-02  0.1180000E+00
       11   -1    0    0    0    0  0.00000000000E+00  0.00000000000E+00  0.39999999673E+01  0.40000000000E+01  0.51109989000E-03 0.  1.
     -623   -1    0    0    0    0  0.00000000000E+00  0.00000000000E+00  0.12525980253E-10  0.17130000000E+03  0.17130000000E+03 0. -1.
       11    1    1    2    0    0 -0.19726909664E-01  0.41833385889E-01  0.91759667609E+00  0.91876172337E+00  0.51109989000E-03 0.  1.
     -623    1    1    2    0    0 -0.58241954600E-02 -0.32845426136E-01  0.15469790428E-02  0.17130000325E+03  0.17130000000E+03 0. -1.
      622    1    1    2    0    0  0.25551105125E-01 -0.89879597516E-02  0.30808563124E+01  0.30812350219E+01  0.40000000000E-01 0.  1.
</event>
<event>
 5   0  0.7212170E+07  0.9118800E+02  0.7818608E-02  0.1180000E+00
       11   -1    0    0    0    0  0.00000000000E+00  0.00000000000E+00  0.39999999673E+01  0.40000000000E+01  0.51109989000E-03 0.  1.
     -623   -1    0    0    0    0  0.00000000000E+00  0.00000000000E+00  0.12525980253E-10  0.17130000000E+03  0.17130000000E+03 0.  1.
       11    1    1    2    0    0 -0.18607648426E-02  0.29767331642E-01  0.13634665763E+01  0.13637928444E+01  0.51109989000E-03 0.  1.
     -623    1    1    2    0    0 -0.53925898273E-02 -0.10351410205E-02  0.79638907687E-03  0.17130000009E+03  0.17130000000E+03 0.  1.
      622    1    1    2    0    0  0.72533546707E-02 -0.28732190621E-01  0.26357370025E+01  0.26362070663E+01  0.40000000000E-01 0.  1.
</event>
<event>
 5   0  0.7212170E+07  0.9118800E+02  0.7818608E-02  0.1180000E+00
       11   -1    0    0    0    0  0.00000000000E+00  0.00000000000E+00  0.39999999673E+01  0.40000000000E+01  0.51109989000E-03 0.  1.
     -623   -1    0    0    0    0  0.00000000000E+00  0.00000000000E+00  0.12525980253E-10  0.17130000000E+03  0.17130000000E+03 0. -1.
       11    1    1    2    0    0 -0.29623657253E-02  0.80602506245E-02  0.12401015875E+01  0.12401314252E+01  0.51109989000E-03 0.  1.
     -623    1    1    2    0    0  0.13504555324E-02 -0.86598697310E-03  0.32954556467E-03  0.17130000001E+03  0.17130000000E+03 0. -1.
      622    1    1    2    0    0  0.16119101928E-02 -0.71942636514E-02  0.27595688343E+01  0.27598685670E+01  0.40000000000E-01 0.  1.
</event>
<event>
 5   0  0.7212170E+07  0.9118800E+02  0.7818608E-02  0.1180000E+00
       11   -1    0    0    0    0  0.00000000000E+00  0.00000000000E+00  0.39999999673E+01  0.40000000000E+01  0.51109989000E-03 0.  1.
     -623   -1    0    0    0    0  0.00000000000E+00  0.00000000000E+00  0.12525980253E-10  0.17130000000E+03  0.17130000000E+03 0. -1.
       11    1    1    2    0    0 -0.25749894379E-02 -0.52453264895E-03  0.28946622599E+00  0.28947860529E+00  0.51109989000E-03 0.  1.
     -623    1    1    2    0    0  0.57560519299E-03  0.91898302271E-04  0.22852111570E-03  0.17130000000E+03  0.17130000000E+03 0. -1.
      622    1    1    2    0    0  0.19993842449E-02  0.43263434668E-03  0.37103052203E+01  0.37105213936E+01  0.40000000000E-01 0.  1.
</event>
<event>
 5   0  0.7212170E+07  0.9118800E+02  0.7818608E-02  0.1180000E+00
       11   -1    0    0    0    0  0.00000000000E+00  0.00000000000E+00  0.39999999673E+01  0.40000000000E+01  0.51109989000E-03 0. -1.
     -623   -1    0    0    0    0  0.00000000000E+00  0.00000000000E+00  0.12525980253E-10  0.17130000000E+03  0.17130000000E+03 0. -1.
       11    1    1    2    0    0  0.40866523160E-02 -0.16030293611E-02  0.19021990810E-01  0.19528640192E-01  0.51109989000E-03 0. -1.
     -623    1    1    2    0    0 -0.40279241340E-03 -0.61600218596E-03  0.70992941698E-03  0.17130000000E+03  0.17130000000E+03 0. -1.
      622    1    1    2    0    0 -0.36838599025E-02  0.22190315472E-02  0.39802680476E+01  0.39804713572E+01  0.40000000000E-01 0. -1.
</event>
<event>
 5   0  0.7212170E+07  0.9118800E+02  0.7818608E-02  0.1180000E+00
       11   -1    0    0    0    0  0.00000000000E+00  0.00000000000E+00  0.39999999673E+01  0.40000000000E+01  0.51109989000E-03 0.  1.
     -623   -1    0    0    0    0  0.00000000000E+00  0.00000000000E+00  0.12525980253E-10  0.17130000000E+03  0.17130000000E+03 0.  1.
       11    1    1    2    0    0  0.38519378823E-02  0.38806349204E-03  0.66064641085E-01  0.66179951976E-01  0.51109989000E-03 0.  1.
     -623    1    1    2    0    0 -0.17368903548E-02 -0.50832129189E-03  0.31922848438E-03  0.17130000001E+03  0.17130000000E+03 0.  1.
      622    1    1    2    0    0 -0.21150475275E-02  0.12025779986E-03  0.39336160979E+01  0.39338200382E+01  0.40000000000E-01 0.  1.
</event>
<event>
 5   0  0.7212170E+07  0.9118800E+02  0.7818608E-02  0.1180000E+00
       11   -1    0    0    0    0  0.00000000000E+00  0.00000000000E+00  0.39999999673E+01  0.40000000000E+01  0.51109989000E-03 0.  1.
     -623   -1    0    0    0    0  0.00000000000E+00  0.00000000000E+00  0.12525980253E-10  0.17130000000E+03  0.17130000000E+03 0.  1.
       11    1    1    2    0    0 -0.10798719053E-01  0.67952889346E-02  0.43631254546E+00  0.43649935491E+00  0.51109989000E-03 0.  1.
     -623    1    1    2    0    0  0.27360418859E-03 -0.26377235310E-02  0.42927323007E-03  0.17130000002E+03  0.17130000000E+03 0.  1.
      622    1    1    2    0    0  0.10525114864E-01 -0.41575654035E-02  0.35632581487E+01  0.35635006240E+01  0.40000000000E-01 0.  1.
</event>
<event>
 5   0  0.7212170E+07  0.9118800E+02  0.7818608E-02  0.1180000E+00
       11   -1    0    0    0    0  0.00000000000E+00  0.00000000000E+00  0.39999999673E+01  0.40000000000E+01  0.51109989000E-03 0. -1.
     -623   -1    0    0    0    0  0.00000000000E+00  0.00000000000E+00  0.12525980253E-10  0.17130000000E+03  0.17130000000E+03 0. -1.
       11    1    1    2    0    0  0.30837846273E-01 -0.82795272010E-02  0.65164155586E+00  0.65242356018E+00  0.51109989000E-03 0. -1.
     -623    1    1    2    0    0  0.16896383490E-02  0.51839243045E-02  0.11805267394E-02  0.17130000009E+03  0.17130000000E+03 0. -1.
      622    1    1    2    0    0 -0.32527484622E-01  0.30956028963E-02  0.33471778849E+01  0.33475763491E+01  0.40000000000E-01 0. -1.
</event>
<event>
 5   0  0.7212170E+07  0.9118800E+02  0.7818608E-02  0.1180000E+00
       11   -1    0    0    0    0  0.00000000000E+00  0.00000000000E+00  0.39999999673E+01  0.40000000000E+01  0.51109989000E-03 0. -1.
     -623   -1    0    0    0    0  0.00000000000E+00  0.00000000000E+00  0.12525980253E-10  0.17130000000E+03  0.17130000000E+03 0. -1.
       11    1    1    2    0    0  0.11794867227E-02 -0.18474763394E-02  0.68539093872E-02  0.72139902092E-02  0.51109989000E-03 0. -1.
     -623    1    1    2    0    0 -0.59023084207E-02  0.62274472987E-02  0.56582617048E-03  0.17130000022E+03  0.17130000000E+03 0. -1.
      622    1    1    2    0    0  0.47228216983E-02 -0.43799709595E-02  0.39925802319E+01  0.39927857941E+01  0.40000000000E-01 0. -1.
</event>
<event>
 5   0  0.7212170E+07  0.9118800E+02  0.7818608E-02  0.1180000E+00
       11   -1    0    0    0    0  0.00000000000E+00  0.00000000000E+00  0.39999999673E+01  0.40000000000E+01  0.51109989000E-03 0.  1.
     -623   -1    0    0    0    0  0.00000000000E+00  0.00000000000E+00  0.12525980253E-10  0.17130000000E+03  0.17130000000E+03 0. -1.
       11    1    1    2    0    0 -0.48114995566E-03  0.55939785797E-02  0.51660509136E-01  0.51967235148E-01  0.51109989000E-03 0.  1.
     -623    1    1    2    0    0 -0.62122313572E-03 -0.99004068199E-03  0.51217434426E-03  0.17130000000E+03  0.17130000000E+03 0. -1.
      622    1    1    2    0    0  0.11023730914E-02 -0.46039378976E-02  0.39478272841E+01  0.39480327603E+01  0.40000000000E-01 0.  1.
</event>
<event>
 5   0  0.7212170E+07  0.9118800E+02  0.7818608E-02  0.1180000E+00
       11   -1    0    0    0    0  0.00000000000E+00  0.00000000000E+00  0.39999999673E+01  0.40000000000E+01  0.51109989000E-03 0. -1.
     -623   -1    0    0    0    0  0.00000000000E+00  0.00000000000E+00  0.12525980253E-10  0.17130000000E+03  0.17130000000E+03 0. -1.
       11    1    1    2    0    0  0.20183129289E-02 -0.19080929369E-02  0.20330026766E-01  0.20525243412E-01  0.51109989000E-03 0. -1.
     -623    1    1    2    0    0 -0.12606549355E-02  0.30889757828E-02  0.39650093778E-03  0.17130000003E+03  0.17130000000E+03 0. -1.
      622    1    1    2    0    0 -0.75765799292E-03 -0.11808828472E-02  0.39792734413E+01  0.39794747253E+01  0.40000000000E-01 0. -1.
</event>
<event>
 5   0  0.7212170E+07  0.9118800E+02  0.7818608E-02  0.1180000E+00
       11   -1    0    0    0    0  0.00000000000E+00  0.00000000000E+00  0.39999999673E+01  0.40000000000E+01  0.51109989000E-03 0. -1.
     -623   -1    0    0    0    0  0.00000000000E+00  0.00000000000E+00  0.12525980253E-10  0.17130000000E+03  0.17130000000E+03 0.  1.
       11    1    1    2    0    0  0.15628824809E-01 -0.28349735854E-01  0.21501838465E+01  0.21504275860E+01  0.51109989000E-03 0. -1.
     -623    1    1    2    0    0 -0.12760017397E-01  0.77954283521E-02  0.79341032665E-03  0.17130000065E+03  0.17130000000E+03 0.  1.
      622    1    1    2    0    0 -0.28688074117E-02  0.20554307502E-01  0.18490227107E+01  0.18495717597E+01  0.40000000000E-01 0. -1.
</event>
<event>
 5   0  0.7212170E+07  0.9118800E+02  0.7818608E-02  0.1180000E+00
       11   -1    0    0    0    0  0.00000000000E+00  0.00000000000E+00  0.39999999673E+01  0.40000000000E+01  0.51109989000E-03 0.  1.
     -623   -1    0    0    0    0  0.00000000000E+00  0.00000000000E+00  0.12525980253E-10  0.17130000000E+03  0.17130000000E+03 0. -1.
       11    1    1    2    0    0 -0.25989122619E-01 -0.22564300843E-01  0.41798563462E+00  0.41940056526E+00  0.51109989000E-03 0.  1.
     -623    1    1    2    0    0  0.21189766086E-02 -0.74912674497E-03  0.17938312269E-02  0.17130000002E+03  0.17130000000E+03 0. -1.
      622    1    1    2    0    0  0.23870146010E-01  0.23313427588E-01  0.35802205016E+01  0.35805994107E+01  0.40000000000E-01 0.  1.
</event>
<event>
 5   0  0.7212170E+07  0.9118800E+02  0.7818608E-02  0.1180000E+00
       11   -1    0    0    0    0  0.00000000000E+00  0.00000000000E+00  0.39999999673E+01  0.40000000000E+01  0.51109989000E-03 0. -1.
     -623   -1    0    0    0    0  0.00000000000E+00  0.00000000000E+00  0.12525980253E-10  0.17130000000E+03  0.17130000000E+03 0. -1.
       11    1    1    2    0    0  0.22847828623E-01  0.83021381722E-04  0.22490777985E+01  0.22491939079E+01  0.51109989000E-03 0. -1.
     -623    1    1    2    0    0 -0.33460731586E-02 -0.20543971880E-04  0.68174801355E-03  0.17130000003E+03  0.17130000000E+03 0. -1.
      622    1    1    2    0    0 -0.19501755464E-01 -0.62477409842E-04  0.17502404209E+01  0.17508060582E+01  0.40000000000E-01 0.  0.
</event>
<event>
 5   0  0.7212170E+07  0.9118800E+02  0.7818608E-02  0.1180000E+00
       11   -1    0    0    0    0  0.00000000000E+00  0.00000000000E+00  0.39999999673E+01  0.40000000000E+01  0.51109989000E-03 0.  1.
     -623   -1    0    0    0    0  0.00000000000E+00  0.00000000000E+00  0.12525980253E-10  0.17130000000E+03  0.17130000000E+03 0.  1.
       11    1    1    2    0    0 -0.85526497065E-02  0.50029783263E-03  0.11100384353E+00  0.11133513648E+00  0.51109989000E-03 0.  1.
     -623    1    1    2    0    0  0.82717666865E-03 -0.23962015770E-02  0.54514809183E-03  0.17130000002E+03  0.17130000000E+03 0.  1.
      622    1    1    2    0    0  0.77254730378E-02  0.18959037446E-02  0.38884509761E+01  0.38886648442E+01  0.40000000000E-01 0.  1.
</event>
<event>
 5   0  0.7212170E+07  0.9118800E+02  0.7818608E-02  0.1180000E+00
       11   -1    0    0    0    0  0.00000000000E+00  0.00000000000E+00  0.39999999673E+01  0.40000000000E+01  0.51109989000E-03 0. -1.
     -623   -1    0    0    0    0  0.00000000000E+00  0.00000000000E+00  0.12525980253E-10  0.17130000000E+03  0.17130000000E+03 0. -1.
       11    1    1    2    0    0 -0.24829474428E-01  0.27596397845E-01  0.20683131857E+01  0.20686463592E+01  0.51109989000E-03 0. -1.
     -623    1    1    2    0    0 -0.14549242003E-02 -0.13009799864E-01  0.98190922734E-03  0.17130000050E+03  0.17130000000E+03 0. -1.
      622    1    1    2    0    0  0.26284398629E-01 -0.14586597981E-01  0.19307048726E+01  0.19313531379E+01  0.40000000000E-01 0. -1.
</event>
<event>
 5   0  0.7212170E+07  0.9118800E+02  0.7818608E-02  0.1180000E+00
       11   -1    0    0    0    0  0.00000000000E+00  0.00000000000E+00  0.39999999673E+01  0.40000000000E+01  0.51109989000E-03 0. -1.
     -623   -1    0    0    0    0  0.00000000000E+00  0.00000000000E+00  0.12525980253E-10  0.17130000000E+03  0.17130000000E+03 0.  1.
       11    1    1    2    0    0  0.73700226129E-03  0.10936768764E-02  0.58498999442E-02  0.60184594290E-02  0.51109989000E-03 0. -1.
     -623    1    1    2    0    0 -0.54027707537E-03 -0.14885662163E-02  0.36886532890E-03  0.17130000001E+03  0.17130000000E+03 0.  1.
      622    1    1    2    0    0 -0.19672518597E-03  0.39488933980E-03  0.39937812017E+01  0.39939815325E+01  0.40000000000E-01 0. -1.
</event>
<event>
 5   0  0.7212170E+07  0.9118800E+02  0.7818608E-02  0.1180000E+00
       11   -1    0    0    0    0  0.00000000000E+00  0.00000000000E+00  0.39999999673E+01  0.40000000000E+01  0.51109989000E-03 0. -1.
     -623   -1    0    0    0    0  0.00000000000E+00  0.00000000000E+00  0.12525980253E-10  0.17130000000E+03  0.17130000000E+03 0. -1.
       11    1    1    2    0    0 -0.48747370692E-02 -0.20722656798E-01  0.25474885509E+00  0.25563730549E+00  0.51109989000E-03 0. -1.
     -623    1    1    2    0    0 -0.51430917268E-02 -0.13003166084E-01  0.12679538162E-02  0.17130000058E+03  0.17130000000E+03 0. -1.
      622    1    1    2    0    0  0.10017828796E-01  0.33725822882E-01  0.37439831583E+01  0.37443621190E+01  0.40000000000E-01 0. -1.
</event>
<event>
 5   0  0.7212170E+07  0.9118800E+02  0.7818608E-02  0.1180000E+00
       11   -1    0    0    0    0  0.00000000000E+00  0.00000000000E+00  0.39999999673E+01  0.40000000000E+01  0.51109989000E-03 0.  1.
     -623   -1    0    0    0    0  0.00000000000E+00  0.00000000000E+00  0.12525980253E-10  0.17130000000E+03  0.17130000000E+03 0.  1.
       11    1    1    2    0    0 -0.41559412579E-02  0.80285122078E-02  0.10124926572E+01  0.10125331456E+01  0.51109989000E-03 0.  1.
     -623    1    1    2    0    0  0.64697263258E-02 -0.19076074465E-02  0.31555337580E-03  0.17130000013E+03  0.17130000000E+03 0.  1.
      622    1    1    2    0    0 -0.23137850674E-02 -0.61209047614E-02  0.29871917565E+01  0.29874667210E+01  0.40000000000E-01 0.  1.
</event>
<event>
 5   0  0.7212170E+07  0.9118800E+02  0.7818608E-02  0.1180000E+00
       11   -1    0    0    0    0  0.00000000000E+00  0.00000000000E+00  0.39999999673E+01  0.40000000000E+01  0.51109989000E-03 0.  1.
     -623   -1    0    0    0    0  0.00000000000E+00  0.00000000000E+00  0.12525980253E-10  0.17130000000E+03  0.17130000000E+03 0. -1.
       11    1    1    2    0    0 -0.27559298687E-01 -0.47023339618E-02  0.57270923305E+00  0.57339144895E+00  0.51109989000E-03 0.  1.
     -623    1    1    2    0    0  0.10670576163E-01 -0.52459472267E-02  0.97213881533E-03  0.17130000042E+03  0.17130000000E+03 0. -1.
      622    1    1    2    0    0  0.16888722523E-01  0.99482811894E-02  0.34263185961E+01  0.34266081362E+01  0.40000000000E-01 0.  0.
</event>
<event>
 5   0  0.7212170E+07  0.9118800E+02  0.7818608E-02  0.1180000E+00
       11   -1    0    0    0    0  0.00000000000E+00  0.00000000000E+00  0.39999999673E+01  0.40000000000E+01  0.51109989000E-03 0. -1.
     -623   -1    0    0    0    0  0.00000000000E+00  0.00000000000E+00  0.12525980253E-10  0.17130000000E+03  0.17130000000E+03 0. -1.
       11    1    1    2    0    0 -0.36804012385E-03 -0.73372253450E-03 -0.23032281414E-02  0.24979762328E-02  0.51109989000E-03 0. -1.
     -623    1    1    2    0    0 -0.10707061586E-01 -0.14393115552E-01  0.50462801929E-02  0.17130000101E+03  0.17130000000E+03 0. -1.
      622    1    1    2    0    0  0.11075101709E-01  0.15126838087E-01  0.39972569153E+01  0.39975010102E+01  0.40000000000E-01 0. -1.
</event>
<event>
 5   0  0.7212170E+07  0.9118800E+02  0.7818608E-02  0.1180000E+00
       11   -1    0    0    0    0  0.00000000000E+00  0.00000000000E+00  0.39999999673E+01  0.40000000000E+01  0.51109989000E-03 0.  1.
     -623   -1    0    0    0    0  0.00000000000E+00  0.00000000000E+00  0.12525980253E-10  0.17130000000E+03  0.17130000000E+03 0. -1.
       11    1    1    2    0    0  0.54485940335E-03 -0.50234256772E-02  0.11522614845E+00  0.11533801709E+00  0.51109989000E-03 0.  1.
     -623    1    1    2    0    0 -0.42589264573E-03  0.79784845694E-03  0.32008242230E-03  0.17130000000E+03  0.17130000000E+03 0. -1.
      622    1    1    2    0    0 -0.11896675759E-03  0.42255772202E-02  0.38844537369E+01  0.38846619806E+01  0.40000000000E-01 0.  1.
</event>
<event>
 5   0  0.7212170E+07  0.9118800E+02  0.7818608E-02  0.1180000E+00
       11   -1    0    0    0    0  0.00000000000E+00  0.00000000000E+00  0.39999999673E+01  0.40000000000E+01  0.51109989000E-03 0. -1.
     -623   -1    0    0    0    0  0.00000000000E+00  0.00000000000E+00  0.12525980253E-10  0.17130000000E+03  0.17130000000E+03 0. -1.
       11    1    1    2    0    0  0.12206417224E-01 -0.32404247225E-01  0.66891488926E-01  0.75324394279E-01  0.51109989000E-03 0. -1.
     -623    1    1    2    0    0 -0.30753686449E-01  0.53688629595E-02  0.87767388147E-02  0.17130000307E+03  0.17130000000E+03 0. -1.
      622    1    1    2    0    0  0.18547269225E-01  0.27035384266E-01  0.39243317396E+01  0.39246725361E+01  0.40000000000E-01 0. -1.
</event>
<event>
 5   0  0.7212170E+07  0.9118800E+02  0.7818608E-02  0.1180000E+00
       11   -1    0    0    0    0  0.00000000000E+00  0.00000000000E+00  0.39999999673E+01  0.40000000000E+01  0.51109989000E-03 0.  1.
     -623   -1    0    0    0    0  0.00000000000E+00  0.00000000000E+00  0.12525980253E-10  0.17130000000E+03  0.17130000000E+03 0. -1.
       11    1    1    2    0    0 -0.15961624788E-02 -0.20765003509E-01  0.12526933846E+00  0.12698976922E+00  0.51109989000E-03 0.  1.
     -623    1    1    2    0    0 -0.34279983536E-02 -0.21311597467E-02  0.19979615694E-02  0.17130000006E+03  0.17130000000E+03 0. -1.
      622    1    1    2    0    0  0.50241608325E-02  0.22896163255E-01  0.38727326675E+01  0.38730101717E+01  0.40000000000E-01 0.  1.
</event>
<event>
 5   0  0.7212170E+07  0.9118800E+02  0.7818608E-02  0.1180000E+00
       11   -1    0    0    0    0  0.00000000000E+00  0.00000000000E+00  0.39999999673E+01  0.40000000000E+01  0.51109989000E-03 0. -1.
     -623   -1    0    0    0    0  0.00000000000E+00  0.00000000000E+00  0.12525980253E-10  0.17130000000E+03  0.17130000000E+03 0. -1.
       11    1    1    2    0    0  0.45079439430E-01  0.30790013040E-01  0.15490290116E+01  0.15499907486E+01  0.51109989000E-03 0. -1.
     -623    1    1    2    0    0 -0.35829781415E-02  0.11818554741E-02  0.18484756084E-02  0.17130000005E+03  0.17130000000E+03 0. -1.
      622    1    1    2    0    0 -0.41496461288E-01 -0.31971868514E-01  0.24491224803E+01  0.24500092000E+01  0.40000000000E-01 0. -1.
</event>
<event>
 5   0  0.7212170E+07  0.9118800E+02  0.7818608E-02  0.1180000E+00
       11   -1    0    0    0    0  0.00000000000E+00  0.00000000000E+00  0.39999999673E+01  0.40000000000E+01  0.51109989000E-03 0. -1.
     -623   -1    0    0    0    0  0.00000000000E+00  0.00000000000E+00  0.12525980253E-10  0.17130000000E+03  0.17130000000E+03 0.  1.
       11    1    1    2    0    0 -0.11277634032E-02  0.28033381777E-02  0.45713633762E+00  0.45714660991E+00  0.51109989000E-03 0. -1.
     -623    1    1    2    0    0  0.41710586066E-03 -0.21056903225E-03  0.23707441117E-03  0.17130000000E+03  0.17130000000E+03 0.  1.
      622    1    1    2    0    0  0.71065754227E-03 -0.25927691453E-02  0.35426265576E+01  0.35428533916E+01  0.40000000000E-01 0. -1.
</event>
<event>
 5   0  0.7212170E+07  0.9118800E+02  0.7818608E-02  0.1180000E+00
       11   -1    0    0    0    0  0.00000000000E+00  0.00000000000E+00  0.39999999673E+01  0.40000000000E+01  0.51109989000E-03 0. -1.
     -623   -1    0    0    0    0  0.00000000000E+00  0.00000000000E+00  0.12525980253E-10  0.17130000000E+03  0.17130000000E+03 0.  1.
       11    1    1    2    0    0 -0.38982549148E-02 -0.52679813605E-03  0.58690040741E-01  0.58823940815E-01  0.51109989000E-03 0. -1.
     -623    1    1    2    0    0  0.11840002419E-03 -0.15793661071E-02  0.33924087322E-03  0.17130000001E+03  0.17130000000E+03 0.  1.
      622    1    1    2    0    0  0.37798548906E-02  0.21061642431E-02  0.39409706854E+01  0.39411760512E+01  0.40000000000E-01 0. -1.
</event>
<event>
 5   0  0.7212170E+07  0.9118800E+02  0.7818608E-02  0.1180000E+00
       11   -1    0    0    0    0  0.00000000000E+00  0.00000000000E+00  0.39999999673E+01  0.40000000000E+01  0.51109989000E-03 0. -1.
     -623   -1    0    0    0    0  0.00000000000E+00  0.00000000000E+00  0.12525980253E-10  0.17130000000E+03  0.17130000000E+03 0. -1.
       11    1    1    2    0    0 -0.13494751113E-02 -0.10510070857E-02  0.19417232507E-02  0.26376526022E-02  0.51109989000E-03 0. -1.
     -623    1    1    2    0    0  0.20766191593E-02 -0.10630421718E-02  0.89667711098E-03  0.17130000002E+03  0.17130000000E+03 0. -1.
      622    1    1    2    0    0 -0.72714404810E-03  0.21140492576E-02  0.39971615672E+01  0.39973623294E+01  0.40000000000E-01 0. -1.
</event>
<event>
 5   0  0.7212170E+07  0.9118800E+02  0.7818608E-02  0.1180000E+00
       11   -1    0    0    0    0  0.00000000000E+00  0.00000000000E+00  0.39999999673E+01  0.40000000000E+01  0.51109989000E-03 0.  1.
     -623   -1    0    0    0    0  0.00000000000E+00  0.00000000000E+00  0.12525980253E-10  0.17130000000E+03  0.17130000000E+03 0. -1.
       11    1    1    2    0    0  0.52672210056E-02  0.36436388025E-01  0.13289160952E+01  0.13294260428E+01  0.51109989000E-03 0.  1.
     -623    1    1    2    0    0 -0.13718160075E-01 -0.20200110145E-01  0.87397056898E-03  0.17130000174E+03  0.17130000000E+03 0. -1.
      622    1    1    2    0    0  0.84509390699E-02 -0.16236277879E-01  0.26702099017E+01  0.26705722147E+01  0.40000000000E-01 0.  1.
</event>
<event>
 5   0  0.7212170E+07  0.9118800E+02  0.7818608E-02  0.1180000E+00
       11   -1    0    0    0    0  0.00000000000E+00  0.00000000000E+00  0.39999999673E+01  0.40000000000E+01  0.51109989000E-03 0.  1.
     -623   -1    0    0    0    0  0.00000000000E+00  0.00000000000E+00  0.12525980253E-10  0.17130000000E+03  0.17130000000E+03 0. -1.
       11    1    1    2    0    0 -0.94709980130E-03 -0.15232234108E-03  0.20258190352E-02  0.22989923859E-02  0.51109989000E-03 0.  1.
     -623    1    1    2    0    0  0.14307527158E-02 -0.88698867403E-03  0.47343402499E-03  0.17130000001E+03  0.17130000000E+03 0. -1.
      622    1    1    2    0    0 -0.48365291435E-03  0.10393110150E-02  0.39975007138E+01  0.39977009982E+01  0.40000000000E-01 0.  1.
</event>
<event>
 5   0  0.7212170E+07  0.9118800E+02  0.7818608E-02  0.1180000E+00
       11   -1    0    0    0    0  0.00000000000E+00  0.00000000000E+00  0.39999999673E+01  0.40000000000E+01  0.51109989000E-03 0.  1.
     -623   -1    0    0    0    0  0.00000000000E+00  0.00000000000E+00  0.12525980253E-10  0.17130000000E+03  0.17130000000E+03 0. -1.
       11    1    1    2    0    0 -0.23239691316E-02  0.67193980429E-02  0.47129922274E+00  0.47135312635E+00  0.51109989000E-03 0.  1.
     -623    1    1    2    0    0  0.66156244861E-03  0.15467709023E-03  0.28768331403E-03  0.17130000000E+03  0.17130000000E+03 0. -1.
      622    1    1    2    0    0  0.16624066830E-02 -0.68740751331E-02  0.35284130615E+01  0.35286468722E+01  0.40000000000E-01 0.  1.
</event>
<event>
 5   0  0.7212170E+07  0.9118800E+02  0.7818608E-02  0.1180000E+00
       11   -1    0    0    0    0  0.00000000000E+00  0.00000000000E+00  0.39999999673E+01  0.40000000000E+01  0.51109989000E-03 0. -1.
     -623   -1    0    0    0    0  0.00000000000E+00  0.00000000000E+00  0.12525980253E-10  0.17130000000E+03  0.17130000000E+03 0. -1.
       11    1    1    2    0    0  0.12101159352E-01  0.10905326802E-01  0.21102935871E+01  0.21103565218E+01  0.51109989000E-03 0. -1.
     -623    1    1    2    0    0  0.54087083571E-02 -0.13914986219E-01  0.57050402478E-03  0.17130000065E+03  0.17130000000E+03 0. -1.
      622    1    1    2    0    0 -0.17509867710E-01  0.30096594187E-02  0.18891358769E+01  0.18896428273E+01  0.40000000000E-01 0. -1.
</event>
<event>
 5   0  0.7212170E+07  0.9118800E+02  0.7818608E-02  0.1180000E+00
       11   -1    0    0    0    0  0.00000000000E+00  0.00000000000E+00  0.39999999673E+01  0.40000000000E+01  0.51109989000E-03 0. -1.
     -623   -1    0    0    0    0  0.00000000000E+00  0.00000000000E+00  0.12525980253E-10  0.17130000000E+03  0.17130000000E+03 0. -1.
       11    1    1    2    0    0 -0.99221888116E-02  0.23035335122E-01  0.12921504696E+01  0.12923939701E+01  0.51109989000E-03 0. -1.
     -623    1    1    2    0    0 -0.55385625902E-03  0.39151981953E-02  0.69341065449E-03  0.17130000005E+03  0.17130000000E+03 0. -1.
      622    1    1    2    0    0  0.10476045071E-01 -0.26950533318E-01  0.27071560880E+01  0.27076059838E+01  0.40000000000E-01 0.  0.
</event>
<event>
 5   0  0.7212170E+07  0.9118800E+02  0.7818608E-02  0.1180000E+00
       11   -1    0    0    0    0  0.00000000000E+00  0.00000000000E+00  0.39999999673E+01  0.40000000000E+01  0.51109989000E-03 0. -1.
     -623   -1    0    0    0    0  0.00000000000E+00  0.00000000000E+00  0.12525980253E-10  0.17130000000E+03  0.17130000000E+03 0.  1.
       11    1    1    2    0    0 -0.32438997647E-01  0.20286227683E-01  0.31353811467E+00  0.31586425909E+00  0.51109989000E-03 0. -1.
     -623    1    1    2    0    0  0.68899306429E-01 -0.49282578050E-02  0.27696623628E-02  0.17130001395E+03  0.17130000000E+03 0.  1.
      622    1    1    2    0    0 -0.36460308782E-01 -0.15357969878E-01  0.36836921903E+01  0.36841217915E+01  0.40000000000E-01 0. -1.
</event>
<event>
 5   0  0.7212170E+07  0.9118800E+02  0.7818608E-02  0.1180000E+00
       11   -1    0    0    0    0  0.00000000000E+00  0.00000000000E+00  0.39999999673E+01  0.40000000000E+01  0.51109989000E-03 0.  1.
     -623   -1    0    0    0    0  0.00000000000E+00  0.00000000000E+00  0.12525980253E-10  0.17130000000E+03  0.17130000000E+03 0. -1.
       11    1    1    2    0    0  0.96779937056E-03 -0.19993966944E-02  0.31637017984E-02  0.38992890288E-02  0.51109989000E-03 0.  1.
     -623    1    1    2    0    0 -0.55937998954E-02  0.67432265321E-03  0.93874743019E-03  0.17130000010E+03  0.17130000000E+03 0. -1.
      622    1    1    2    0    0  0.46260005251E-02  0.13250740412E-02  0.39958975183E+01  0.39961006159E+01  0.40000000000E-01 0.  1.
</event>
<event>
 5   0  0.7212170E+07  0.9118800E+02  0.7818608E-02  0.1180000E+00
       11   -1    0    0    0    0  0.00000000000E+00  0.00000000000E+00  0.39999999673E+01  0.40000000000E+01  0.51109989000E-03 0. -1.
     -623   -1    0    0    0    0  0.00000000000E+00  0.00000000000E+00  0.12525980253E-10  0.17130000000E+03  0.17130000000E+03 0.  1.
       11    1    1    2    0    0 -0.13911901601E-03 -0.13160700286E-03  0.31010670919E-03  0.62774498999E-03  0.51109989000E-03 0.  1.
     -623    1    1    2    0    0 -0.12499801101E-03 -0.34075639729E-04  0.51765502013E-03  0.17130000000E+03  0.17130000000E+03 0.  1.
      622    1    1    2    0    0  0.26411702704E-03  0.16568264259E-03  0.39991722063E+01  0.39993722548E+01  0.40000000000E-01 0. -1.
</event>
<event>
 5   0  0.7212170E+07  0.9118800E+02  0.7818608E-02  0.1180000E+00
       11   -1    0    0    0    0  0.00000000000E+00  0.00000000000E+00  0.39999999673E+01  0.40000000000E+01  0.51109989000E-03 0.  1.
     -623   -1    0    0    0    0  0.00000000000E+00  0.00000000000E+00  0.12525980253E-10  0.17130000000E+03  0.17130000000E+03 0.  1.
       11    1    1    2    0    0 -0.14959120807E-02 -0.12615925235E-02  0.20141732943E-02  0.28543801088E-02  0.51109989000E-03 0.  1.
     -623    1    1    2    0    0  0.43888473883E-02  0.10476530927E-01  0.10523712975E-02  0.17130000038E+03  0.17130000000E+03 0.  1.
      622    1    1    2    0    0 -0.28929353078E-02 -0.92149384036E-02  0.39969334229E+01  0.39971452402E+01  0.40000000000E-01 0.  1.
</event>
<event>
 5   0  0.7212170E+07  0.9118800E+02  0.7818608E-02  0.1180000E+00
       11   -1    0    0    0    0  0.00000000000E+00  0.00000000000E+00  0.39999999673E+01  0.40000000000E+01  0.51109989000E-03 0.  1.
     -623   -1    0    0    0    0  0.00000000000E+00  0.00000000000E+00  0.12525980253E-10  0.17130000000E+03  0.17130000000E+03 0.  1.
       11    1    1    2    0    0  0.44696939703E-01  0.17895669464E-01  0.32253495268E+00  0.32610907428E+00  0.51109989000E-03 0.  1.
     -623    1    1    2    0    0  0.11975707444E-02 -0.51935306464E-02  0.41006284823E-02  0.17130000013E+03  0.17130000000E+03 0.  1.
      622    1    1    2    0    0 -0.45894510448E-01 -0.12702138817E-01  0.36733643863E+01  0.36738907938E+01  0.40000000000E-01 0.  1.
</event>
<event>
 5   0  0.7212170E+07  0.9118800E+02  0.7818608E-02  0.1180000E+00
       11   -1    0    0    0    0  0.00000000000E+00  0.00000000000E+00  0.39999999673E+01  0.40000000000E+01  0.51109989000E-03 0. -1.
     -623   -1    0    0    0    0  0.00000000000E+00  0.00000000000E+00  0.12525980253E-10  0.17130000000E+03  0.17130000000E+03 0.  1.
       11    1    1    2    0    0 -0.29556926891E-02  0.29923288634E-03  0.14699275968E+00  0.14702366571E+00  0.51109989000E-03 0. -1.
     -623    1    1    2    0    0  0.57112082248E-03 -0.25909297505E-02  0.23995090716E-03  0.17130000002E+03  0.17130000000E+03 0.  1.
      622    1    1    2    0    0  0.23845718667E-02  0.22916968637E-02  0.38527672561E+01  0.38529763129E+01  0.40000000000E-01 0. -1.
</event>
<event>
 5   0  0.7212170E+07  0.9118800E+02  0.7818608E-02  0.1180000E+00
       11   -1    0    0    0    0  0.00000000000E+00  0.00000000000E+00  0.39999999673E+01  0.40000000000E+01  0.51109989000E-03 0. -1.
     -623   -1    0    0    0    0  0.00000000000E+00  0.00000000000E+00  0.12525980253E-10  0.17130000000E+03  0.17130000000E+03 0.  1.
       11    1    1    2    0    0 -0.40430699031E-03  0.38804914833E-03  0.92044368355E-02  0.92356335376E-02  0.51109989000E-03 0. -1.
     -623    1    1    2    0    0  0.10073975099E-02 -0.71458210053E-03  0.23169548868E-03  0.17130000000E+03  0.17130000000E+03 0.  1.
      622    1    1    2    0    0 -0.60309051962E-03  0.32653295222E-03  0.39905638351E+01  0.39907643620E+01  0.40000000000E-01 0. -1.
</event>
<event>
 5   0  0.7212170E+07  0.9118800E+02  0.7818608E-02  0.1180000E+00
       11   -1    0    0    0    0  0.00000000000E+00  0.00000000000E+00  0.39999999673E+01  0.40000000000E+01  0.51109989000E-03 0.  1.
     -623   -1    0    0    0    0  0.00000000000E+00  0.00000000000E+00  0.12525980253E-10  0.17130000000E+03  0.17130000000E+03 0. -1.
       11    1    1    2    0    0  0.13165804915E-02  0.48309376716E-02  0.64185959589E+00  0.64187932931E+00  0.51109989000E-03 0.  1.
     -623    1    1    2    0    0 -0.86031484882E-02 -0.15935493823E-02  0.26762790384E-03  0.17130000022E+03  0.17130000000E+03 0. -1.
      622    1    1    2    0    0  0.72865679958E-02 -0.32373882894E-02  0.33578727432E+01  0.33581204466E+01  0.40000000000E-01 0.  1.
</event>
<event>
 5   0  0.7212170E+07  0.9118800E+02  0.7818608E-02  0.1180000E+00
       11   -1    0    0    0    0  0.00000000000E+00  0.00000000000E+00  0.39999999673E+01  0.40000000000E+01  0.51109989000E-03 0.  1.
     -623   -1    0    0    0    0  0.00000000000E+00  0.00000000000E+00  0.12525980253E-10  0.17130000000E+03  0.17130000000E+03 0.  1.
       11    1    1    2    0    0 -0.94914743207E-02  0.22182761579E-03  0.94590550079E+00  0.94595328370E+00  0.51109989000E-03 0.  1.
     -623    1    1    2    0    0  0.20886717127E-03 -0.20288368012E-02  0.32436434639E-03  0.17130000001E+03  0.17130000000E+03 0.  1.
      622    1    1    2    0    0  0.92826071494E-02  0.18070091853E-02  0.30537701020E+01  0.30540467037E+01  0.40000000000E-01 0.  1.
</event>
<event>
 5   0  0.7212170E+07  0.9118800E+02  0.7818608E-02  0.1180000E+00
       11   -1    0    0    0    0  0.00000000000E+00  0.00000000000E+00  0.39999999673E+01  0.40000000000E+01  0.51109989000E-03 0. -1.
     -623   -1    0    0    0    0  0.00000000000E+00  0.00000000000E+00  0.12525980253E-10  0.17130000000E+03  0.17130000000E+03 0. -1.
       11    1    1    2    0    0 -0.12496792976E-02 -0.23725802407E-02  0.31914435605E-01  0.32030973423E-01  0.51109989000E-03 0. -1.
     -623    1    1    2    0    0 -0.26272900870E-03  0.50716794125E-02  0.31940664382E-03  0.17130000008E+03  0.17130000000E+03 0. -1.
      622    1    1    2    0    0  0.15124083064E-02 -0.26990991736E-02  0.39677661265E+01  0.39679689524E+01  0.40000000000E-01 0. -1.
</event>
<event>
 5   0  0.7212170E+07  0.9118800E+02  0.7818608E-02  0.1180000E+00
       11   -1    0    0    0    0  0.00000000000E+00  0.00000000000E+00  0.39999999673E+01  0.40000000000E+01  0.51109989000E-03 0.  1.
     -623   -1    0    0    0    0  0.00000000000E+00  0.00000000000E+00  0.12525980253E-10  0.17130000000E+03  0.17130000000E+03 0. -1.
       11    1    1    2    0    0  0.33392867779E-02 -0.36665608558E-02  0.56508410071E-01  0.56727913204E-01  0.51109989000E-03 0.  1.
     -623    1    1    2    0    0 -0.49663313162E-02 -0.29199585022E-03  0.42474842408E-03  0.17130000007E+03  0.17130000000E+03 0. -1.
      622    1    1    2    0    0  0.16270445381E-02  0.39585567060E-02  0.39430668087E+01  0.39432720139E+01  0.40000000000E-01 0.  1.
</event>
<event>
 5   0  0.7212170E+07  0.9118800E+02  0.7818608E-02  0.1180000E+00
       11   -1    0    0    0    0  0.00000000000E+00  0.00000000000E+00  0.39999999673E+01  0.40000000000E+01  0.51109989000E-03 0. -1.
     -623   -1    0    0    0    0  0.00000000000E+00  0.00000000000E+00  0.12525980253E-10  0.17130000000E+03  0.17130000000E+03 0. -1.
       11    1    1    2    0    0 -0.21296397523E-02 -0.36326972499E-02  0.97867841441E-02  0.10666499977E-01  0.51109989000E-03 0. -1.
     -623    1    1    2    0    0 -0.29565789687E-02  0.49834900778E-02  0.10837956379E-02  0.17130000010E+03  0.17130000000E+03 0. -1.
      622    1    1    2    0    0  0.50862187213E-02 -0.13507928284E-02  0.39891293880E+01  0.39893333990E+01  0.40000000000E-01 0. -1.
</event>
<event>
 5   0  0.7212170E+07  0.9118800E+02  0.7818608E-02  0.1180000E+00
       11   -1    0    0    0    0  0.00000000000E+00  0.00000000000E+00  0.39999999673E+01  0.40000000000E+01  0.51109989000E-03 0. -1.
     -623   -1    0    0    0    0  0.00000000000E+00  0.00000000000E+00  0.12525980253E-10  0.17130000000E+03  0.17130000000E+03 0. -1.
       11    1    1    2    0    0 -0.22717980787E-02 -0.60104971296E-03  0.18916909330E+00  0.18918437940E+00  0.51109989000E-03 0. -1.
     -623    1    1    2    0    0 -0.20997610302E-04  0.30760863330E-03  0.22588955764E-03  0.17130000000E+03  0.17130000000E+03 0. -1.
      622    1    1    2    0    0  0.22927956891E-02  0.29344107955E-03  0.38106049860E+01  0.38108156216E+01  0.40000000000E-01 0. -1.
</event>
<event>
 5   0  0.7212170E+07  0.9118800E+02  0.7818608E-02  0.1180000E+00
       11   -1    0    0    0    0  0.00000000000E+00  0.00000000000E+00  0.39999999673E+01  0.40000000000E+01  0.51109989000E-03 0. -1.
     -623   -1    0    0    0    0  0.00000000000E+00  0.00000000000E+00  0.12525980253E-10  0.17130000000E+03  0.17130000000E+03 0. -1.
       11    1    1    2    0    0  0.17262169624E-03 -0.58258229954E-03  0.28738688485E-02  0.29815341088E-02  0.51109989000E-03 0.  1.
     -623    1    1    2    0    0  0.54821102597E-04 -0.38794394621E-03  0.30791184951E-03  0.17130000000E+03  0.17130000000E+03 0. -1.
      622    1    1    2    0    0 -0.22744279885E-03  0.97052624585E-03  0.39968181877E+01  0.39970184662E+01  0.40000000000E-01 0. -1.
</event>
<event>
 5   0  0.7212170E+07  0.9118800E+02  0.7818608E-02  0.1180000E+00
       11   -1    0    0    0    0  0.00000000000E+00  0.00000000000E+00  0.39999999673E+01  0.40000000000E+01  0.51109989000E-03 0. -1.
     -623   -1    0    0    0    0  0.00000000000E+00  0.00000000000E+00  0.12525980253E-10  0.17130000000E+03  0.17130000000E+03 0. -1.
       11    1    1    2    0    0  0.16286314028E-02  0.36856034148E-02  0.32092981267E-01  0.32348984258E-01  0.51109989000E-03 0. -1.
     -623    1    1    2    0    0 -0.38394017513E-02 -0.70078263599E-02  0.45980002367E-03  0.17130000019E+03  0.17130000000E+03 0. -1.
      622    1    1    2    0    0  0.22107703490E-02  0.33222229460E-02  0.39674471866E+01  0.39676508292E+01  0.40000000000E-01 0. -1.
</event>
<event>
 5   0  0.7212170E+07  0.9118800E+02  0.7818608E-02  0.1180000E+00
       11   -1    0    0    0    0  0.00000000000E+00  0.00000000000E+00  0.39999999673E+01  0.40000000000E+01  0.51109989000E-03 0.  1.
     -623   -1    0    0    0    0  0.00000000000E+00  0.00000000000E+00  0.12525980253E-10  0.17130000000E+03  0.17130000000E+03 0.  1.
       11    1    1    2    0    0 -0.12417992511E-02  0.37048369147E-02  0.22966012079E+01  0.22966045888E+01  0.51109989000E-03 0.  1.
     -623    1    1    2    0    0 -0.10194554159E-02 -0.20995095659E-02  0.47533775710E-03  0.17130000002E+03  0.17130000000E+03 0.  1.
      622    1    1    2    0    0  0.22612546672E-02 -0.16053273483E-02  0.17029234226E+01  0.17033953955E+01  0.40000000000E-01 0. -1.
</event>
<event>
 5   0  0.7212170E+07  0.9118800E+02  0.7818608E-02  0.1180000E+00
       11   -1    0    0    0    0  0.00000000000E+00  0.00000000000E+00  0.39999999673E+01  0.40000000000E+01  0.51109989000E-03 0.  1.
     -623   -1    0    0    0    0  0.00000000000E+00  0.00000000000E+00  0.12525980253E-10  0.17130000000E+03  0.17130000000E+03 0. -1.
       11    1    1    2    0    0 -0.83371491995E-02 -0.61543583434E-02  0.59875190467E+00  0.59884178941E+00  0.51109989000E-03 0.  1.
     -623    1    1    2    0    0  0.21316424838E-01  0.15948115197E-01  0.36601245298E-03  0.17130000207E+03  0.17130000000E+03 0. -1.
      622    1    1    2    0    0 -0.12979275644E-01 -0.97937568579E-02  0.34008820514E+01  0.34011561427E+01  0.40000000000E-01 0.  1.
</event>
<event>
 5   0  0.7212170E+07  0.9118800E+02  0.7818608E-02  0.1180000E+00
       11   -1    0    0    0    0  0.00000000000E+00  0.00000000000E+00  0.39999999673E+01  0.40000000000E+01  0.51109989000E-03 0.  1.
     -623   -1    0    0    0    0  0.00000000000E+00  0.00000000000E+00  0.12525980253E-10  0.17130000000E+03  0.17130000000E+03 0.  1.
       11    1    1    2    0    0 -0.34222978846E-02 -0.91369313425E-03  0.61992922140E+00  0.61993955167E+00  0.51109989000E-03 0.  1.
     -623    1    1    2    0    0  0.43162938251E-03 -0.58181176688E-03  0.24864381506E-03  0.17130000000E+03  0.17130000000E+03 0.  1.
      622    1    1    2    0    0  0.29906685020E-02  0.14955049012E-02  0.33798221025E+01  0.33800604470E+01  0.40000000000E-01 0.  1.
</event>
<event>
 5   0  0.7212170E+07  0.9118800E+02  0.7818608E-02  0.1180000E+00
       11   -1    0    0    0    0  0.00000000000E+00  0.00000000000E+00  0.39999999673E+01  0.40000000000E+01  0.51109989000E-03 0. -1.
     -623   -1    0    0    0    0  0.00000000000E+00  0.00000000000E+00  0.12525980253E-10  0.17130000000E+03  0.17130000000E+03 0.  1.
       11    1    1    2    0    0 -0.20460588818E-01  0.17661209865E-01  0.12759136064E+01  0.12761999633E+01  0.51109989000E-03 0. -1.
     -623    1    1    2    0    0  0.28780717017E-02 -0.24350475266E-01  0.64677428482E-03  0.17130000176E+03  0.17130000000E+03 0.  1.
      622    1    1    2    0    0  0.17582517117E-01  0.66892653980E-02  0.27234395861E+01  0.27237982800E+01  0.40000000000E-01 0. -1.
</event>
<event>
 5   0  0.7212170E+07  0.9118800E+02  0.7818608E-02  0.1180000E+00
       11   -1    0    0    0    0  0.00000000000E+00  0.00000000000E+00  0.39999999673E+01  0.40000000000E+01  0.51109989000E-03 0. -1.
     -623   -1    0    0    0    0  0.00000000000E+00  0.00000000000E+00  0.12525980253E-10  0.17130000000E+03  0.17130000000E+03 0. -1.
       11    1    1    2    0    0  0.10163800595E-01  0.14492948571E-02  0.16925784175E+00  0.16956969516E+00  0.51109989000E-03 0. -1.
     -623    1    1    2    0    0  0.57725467106E-02  0.12820236656E-02  0.55491030951E-03  0.17130000010E+03  0.17130000000E+03 0. -1.
      622    1    1    2    0    0 -0.15936347307E-01 -0.27313185227E-02  0.38301872157E+01  0.38304302022E+01  0.40000000000E-01 0. -1.
</event>
<event>
 5   0  0.7212170E+07  0.9118800E+02  0.7818608E-02  0.1180000E+00
       11   -1    0    0    0    0  0.00000000000E+00  0.00000000000E+00  0.39999999673E+01  0.40000000000E+01  0.51109989000E-03 0.  1.
     -623   -1    0    0    0    0  0.00000000000E+00  0.00000000000E+00  0.12525980253E-10  0.17130000000E+03  0.17130000000E+03 0. -1.
       11    1    1    2    0    0 -0.54914317247E-02  0.23102881528E-02  0.16469723877E+01  0.16469832423E+01  0.51109989000E-03 0.  1.
     -623    1    1    2    0    0 -0.40764704819E-03 -0.49101138261E-03  0.35893620626E-03  0.17130000000E+03  0.17130000000E+03 0. -1.
      622    1    1    2    0    0  0.58990787730E-02 -0.18192767701E-02  0.23526686444E+01  0.23530167571E+01  0.40000000000E-01 0.  1.
</event>
<event>
 5   0  0.7212170E+07  0.9118800E+02  0.7818608E-02  0.1180000E+00
       11   -1    0    0    0    0  0.00000000000E+00  0.00000000000E+00  0.39999999673E+01  0.40000000000E+01  0.51109989000E-03 0. -1.
     -623   -1    0    0    0    0  0.00000000000E+00  0.00000000000E+00  0.12525980253E-10  0.17130000000E+03  0.17130000000E+03 0.  1.
       11    1    1    2    0    0  0.27308654670E-02  0.15242892560E-02  0.21778031967E+01  0.21778055023E+01  0.51109989000E-03 0. -1.
     -623    1    1    2    0    0  0.32292931806E-02  0.11422748565E-01  0.49752637534E-03  0.17130000041E+03  0.17130000000E+03 0.  1.
      622    1    1    2    0    0 -0.59601586478E-02 -0.12947037822E-01  0.18216992445E+01  0.18221940859E+01  0.40000000000E-01 0.  0.
</event>
<event>
 5   0  0.7212170E+07  0.9118800E+02  0.7818608E-02  0.1180000E+00
       11   -1    0    0    0    0  0.00000000000E+00  0.00000000000E+00  0.39999999673E+01  0.40000000000E+01  0.51109989000E-03 0. -1.
     -623   -1    0    0    0    0  0.00000000000E+00  0.00000000000E+00  0.12525980253E-10  0.17130000000E+03  0.17130000000E+03 0.  1.
       11    1    1    2    0    0  0.41527984848E-02  0.43438364509E-02  0.11755288322E+00  0.11770750285E+00  0.51109989000E-03 0. -1.
     -623    1    1    2    0    0  0.16737991340E-03 -0.11528345301E-02  0.36437594826E-03  0.17130000000E+03  0.17130000000E+03 0.  1.
      622    1    1    2    0    0 -0.43201783982E-02 -0.31910019208E-02  0.38820827081E+01  0.38822924928E+01  0.40000000000E-01 0. -1.
</event>
<event>
 5   0  0.7212170E+07  0.9118800E+02  0.7818608E-02  0.1180000E+00
       11   -1    0    0    0    0  0.00000000000E+00  0.00000000000E+00  0.39999999673E+01  0.40000000000E+01  0.51109989000E-03 0.  1.
     -623   -1    0    0    0    0  0.00000000000E+00  0.00000000000E+00  0.12525980253E-10  0.17130000000E+03  0.17130000000E+03 0.  1.
       11    1    1    2    0    0  0.10302326022E-02 -0.80401195505E-03  0.44461856014E-01  0.44483993501E-01  0.51109989000E-03 0.  1.
     -623    1    1    2    0    0  0.23925758910E-03  0.29486916787E-03  0.22459629451E-03  0.17130000000E+03  0.17130000000E+03 0.  1.
      622    1    1    2    0    0 -0.12694901913E-02  0.50914278720E-03  0.39553135148E+01  0.39555160057E+01  0.40000000000E-01 0.  1.
</event>
<event>
 5   0  0.7212170E+07  0.9118800E+02  0.7818608E-02  0.1180000E+00
       11   -1    0    0    0    0  0.00000000000E+00  0.00000000000E+00  0.39999999673E+01  0.40000000000E+01  0.51109989000E-03 0.  1.
     -623   -1    0    0    0    0  0.00000000000E+00  0.00000000000E+00  0.12525980253E-10  0.17130000000E+03  0.17130000000E+03 0. -1.
       11    1    1    2    0    0 -0.57420156652E-02  0.27815480091E-02  0.22861122494E+00  0.22870081142E+00  0.51109989000E-03 0.  1.
     -623    1    1    2    0    0  0.30705705502E-02 -0.19757573683E-02  0.30275979875E-03  0.17130000004E+03  0.17130000000E+03 0. -1.
      622    1    1    2    0    0  0.26714451154E-02 -0.80579064102E-03  0.37710859821E+01  0.37712991489E+01  0.40000000000E-01 0.  1.
</event>
<event>
 5   0  0.7212170E+07  0.9118800E+02  0.7818608E-02  0.1180000E+00
       11   -1    0    0    0    0  0.00000000000E+00  0.00000000000E+00  0.39999999673E+01  0.40000000000E+01  0.51109989000E-03 0.  1.
     -623   -1    0    0    0    0  0.00000000000E+00  0.00000000000E+00  0.12525980253E-10  0.17130000000E+03  0.17130000000E+03 0.  1.
       11    1    1    2    0    0 -0.37533353949E-02 -0.20309182079E-01  0.56896222622E+00  0.56933718172E+00  0.51109989000E-03 0.  1.
     -623    1    1    2    0    0  0.34504043380E-03  0.40187449246E-03  0.66758023910E-03  0.17130000000E+03  0.17130000000E+03 0.  1.
      622    1    1    2    0    0  0.34082949611E-02  0.19907307587E-01  0.34303701611E+01  0.34306628163E+01  0.40000000000E-01 0.  0.
</event>
<event>
 5   0  0.7212170E+07  0.9118800E+02  0.7818608E-02  0.1180000E+00
       11   -1    0    0    0    0  0.00000000000E+00  0.00000000000E+00  0.39999999673E+01  0.40000000000E+01  0.51109989000E-03 0.  1.
     -623   -1    0    0    0    0  0.00000000000E+00  0.00000000000E+00  0.12525980253E-10  0.17130000000E+03  0.17130000000E+03 0.  1.
       11    1    1    2    0    0 -0.12315126094E-01 -0.12539244271E-01  0.71312770689E+00  0.71334443471E+00  0.51109989000E-03 0.  1.
     -623    1    1    2    0    0 -0.17786492978E-02  0.84160513165E-02  0.49313668225E-03  0.17130000022E+03  0.17130000000E+03 0.  1.
      622    1    1    2    0    0  0.14093775392E-01  0.41231929530E-02  0.32863791244E+01  0.32866553492E+01  0.40000000000E-01 0.  1.
</event>
<event>
 5   0  0.7212170E+07  0.9118800E+02  0.7818608E-02  0.1180000E+00
       11   -1    0    0    0    0  0.00000000000E+00  0.00000000000E+00  0.39999999673E+01  0.40000000000E+01  0.51109989000E-03 0. -1.
     -623   -1    0    0    0    0  0.00000000000E+00  0.00000000000E+00  0.12525980253E-10  0.17130000000E+03  0.17130000000E+03 0.  1.
       11    1    1    2    0    0 -0.16293929397E-02 -0.18201029299E-02  0.20448811015E-01  0.20600553174E-01  0.51109989000E-03 0. -1.
     -623    1    1    2    0    0  0.24229193262E-01  0.33926595260E-02  0.41898658371E-03  0.17130000175E+03  0.17130000000E+03 0.  1.
      622    1    1    2    0    0 -0.22599800323E-01 -0.15725565961E-02  0.39791321698E+01  0.39793976992E+01  0.40000000000E-01 0. -1.
</event>
<event>
 5   0  0.7212170E+07  0.9118800E+02  0.7818608E-02  0.1180000E+00
       11   -1    0    0    0    0  0.00000000000E+00  0.00000000000E+00  0.39999999673E+01  0.40000000000E+01  0.51109989000E-03 0. -1.
     -623   -1    0    0    0    0  0.00000000000E+00  0.00000000000E+00  0.12525980253E-10  0.17130000000E+03  0.17130000000E+03 0.  1.
       11    1    1    2    0    0  0.25217282031E-01 -0.40865270209E-01  0.34007444129E+01  0.34010834604E+01  0.51109989000E-03 0. -1.
     -623    1    1    2    0    0 -0.22900880952E-02 -0.74958933510E-02  0.40780262448E-02  0.17130000023E+03  0.17130000000E+03 0.  1.
      622    1    1    2    0    0 -0.22927193935E-01  0.48361163560E-01  0.59517752825E+00  0.59891631176E+00  0.40000000000E-01 0.  1.
</event>
<event>
 5   0  0.7212170E+07  0.9118800E+02  0.7818608E-02  0.1180000E+00
       11   -1    0    0    0    0  0.00000000000E+00  0.00000000000E+00  0.39999999673E+01  0.40000000000E+01  0.51109989000E-03 0. -1.
     -623   -1    0    0    0    0  0.00000000000E+00  0.00000000000E+00  0.12525980253E-10  0.17130000000E+03  0.17130000000E+03 0.  1.
       11    1    1    2    0    0  0.10546895993E-01 -0.12399269809E-02  0.31100970082E+00  0.31119137145E+00  0.51109989000E-03 0. -1.
     -623    1    1    2    0    0 -0.70231388148E-02 -0.52476433207E-02  0.40612977991E-03  0.17130000022E+03  0.17130000000E+03 0.  1.
      622    1    1    2    0    0 -0.35237571773E-02  0.64875703022E-02  0.36885841373E+01  0.36888084042E+01  0.40000000000E-01 0. -1.
</event>
<event>
 5   0  0.7212170E+07  0.9118800E+02  0.7818608E-02  0.1180000E+00
       11   -1    0    0    0    0  0.00000000000E+00  0.00000000000E+00  0.39999999673E+01  0.40000000000E+01  0.51109989000E-03 0.  1.
     -623   -1    0    0    0    0  0.00000000000E+00  0.00000000000E+00  0.12525980253E-10  0.17130000000E+03  0.17130000000E+03 0.  1.
       11    1    1    2    0    0  0.20187787363E-01 -0.35628432841E-01  0.16594346148E+01  0.16599398887E+01  0.51109989000E-03 0.  1.
     -623    1    1    2    0    0 -0.11823786431E-01 -0.26458870560E-01  0.16884804785E-02  0.17130000246E+03  0.17130000000E+03 0.  1.
      622    1    1    2    0    0 -0.83640009318E-02  0.62087303401E-01  0.23388768721E+01  0.23400576516E+01  0.40000000000E-01 0.  1.
</event>
<event>
 5   0  0.7212170E+07  0.9118800E+02  0.7818608E-02  0.1180000E+00
       11   -1    0    0    0    0  0.00000000000E+00  0.00000000000E+00  0.39999999673E+01  0.40000000000E+01  0.51109989000E-03 0. -1.
     -623   -1    0    0    0    0  0.00000000000E+00  0.00000000000E+00  0.12525980253E-10  0.17130000000E+03  0.17130000000E+03 0.  1.
       11    1    1    2    0    0 -0.37115997425E-04 -0.13460510168E-02  0.26588120384E-02  0.30238610236E-02  0.51109989000E-03 0.  1.
     -623    1    1    2    0    0  0.18034770901E-02 -0.13041849752E-02  0.56645705572E-03  0.17130000002E+03  0.17130000000E+03 0.  1.
      622    1    1    2    0    0 -0.17663610925E-02  0.26502359920E-02  0.39967746980E+01  0.39969761233E+01  0.40000000000E-01 0. -1.
</event>
<event>
 5   0  0.7212170E+07  0.9118800E+02  0.7818608E-02  0.1180000E+00
       11   -1    0    0    0    0  0.00000000000E+00  0.00000000000E+00  0.39999999673E+01  0.40000000000E+01  0.51109989000E-03 0. -1.
     -623   -1    0    0    0    0  0.00000000000E+00  0.00000000000E+00  0.12525980253E-10  0.17130000000E+03  0.17130000000E+03 0. -1.
       11    1    1    2    0    0  0.86528245222E-02  0.76029312378E-02  0.49607686071E+00  0.49621083109E+00  0.51109989000E-03 0. -1.
     -623    1    1    2    0    0 -0.79614022313E-02  0.17879595037E-02  0.37511803128E-03  0.17130000019E+03  0.17130000000E+03 0. -1.
      622    1    1    2    0    0 -0.69142228941E-03 -0.93908907418E-02  0.35035479893E+01  0.35037889749E+01  0.40000000000E-01 0. -1.
</event>
<event>
 5   0  0.7212170E+07  0.9118800E+02  0.7818608E-02  0.1180000E+00
       11   -1    0    0    0    0  0.00000000000E+00  0.00000000000E+00  0.39999999673E+01  0.40000000000E+01  0.51109989000E-03 0.  1.
     -623   -1    0    0    0    0  0.00000000000E+00  0.00000000000E+00  0.12525980253E-10  0.17130000000E+03  0.17130000000E+03 0. -1.
       11    1    1    2    0    0  0.95239551413E-03 -0.18070036494E-02  0.60718543778E-02  0.64265821466E-02  0.51109989000E-03 0.  1.
     -623    1    1    2    0    0 -0.16295111993E-02  0.17549874047E-02  0.55509738473E-03  0.17130000002E+03  0.17130000000E+03 0. -1.
      622    1    1    2    0    0  0.67711568502E-03  0.52016244935E-04  0.39933730153E+01  0.39935733999E+01  0.40000000000E-01 0.  1.
</event>
<event>
 5   0  0.7212170E+07  0.9118800E+02  0.7818608E-02  0.1180000E+00
       11   -1    0    0    0    0  0.00000000000E+00  0.00000000000E+00  0.39999999673E+01  0.40000000000E+01  0.51109989000E-03 0. -1.
     -623   -1    0    0    0    0  0.00000000000E+00  0.00000000000E+00  0.12525980253E-10  0.17130000000E+03  0.17130000000E+03 0. -1.
       11    1    1    2    0    0 -0.21762465276E-02 -0.23182458775E-04  0.82130469604E-01  0.82160890008E-01  0.51109989000E-03 0. -1.
     -623    1    1    2    0    0  0.26216390623E-02  0.77142190821E-03  0.23470601152E-03  0.17130000002E+03  0.17130000000E+03 0. -1.
      622    1    1    2    0    0 -0.44539253542E-03 -0.74823944965E-03  0.39176347928E+01  0.39178390891E+01  0.40000000000E-01 0. -1.
</event>
<event>
 5   0  0.7212170E+07  0.9118800E+02  0.7818608E-02  0.1180000E+00
       11   -1    0    0    0    0  0.00000000000E+00  0.00000000000E+00  0.39999999673E+01  0.40000000000E+01  0.51109989000E-03 0.  1.
     -623   -1    0    0    0    0  0.00000000000E+00  0.00000000000E+00  0.12525980253E-10  0.17130000000E+03  0.17130000000E+03 0. -1.
       11    1    1    2    0    0  0.90115018881E-03  0.60306749173E-02  0.17051022978E+00  0.17061998943E+00  0.51109989000E-03 0.  1.
     -623    1    1    2    0    0  0.92171463001E-02  0.12150869088E-02  0.33912032928E-03  0.17130000025E+03  0.17130000000E+03 0. -1.
      622    1    1    2    0    0 -0.10118296492E-01 -0.72457618264E-02  0.38291506184E+01  0.38293797591E+01  0.40000000000E-01 0.  1.
</event>
<event>
 5   0  0.7212170E+07  0.9118800E+02  0.7818608E-02  0.1180000E+00
       11   -1    0    0    0    0  0.00000000000E+00  0.00000000000E+00  0.39999999673E+01  0.40000000000E+01  0.51109989000E-03 0. -1.
     -623   -1    0    0    0    0  0.00000000000E+00  0.00000000000E+00  0.12525980253E-10  0.17130000000E+03  0.17130000000E+03 0.  1.
       11    1    1    2    0    0  0.63253736402E-03  0.13976377138E-02  0.10514603360E-02  0.19288044565E-02  0.51109989000E-03 0. -1.
     -623    1    1    2    0    0  0.34853592015E-02  0.39508521230E-02  0.10831958863E-02  0.17130000008E+03  0.17130000000E+03 0.  1.
      622    1    1    2    0    0 -0.41178965654E-02 -0.53484898367E-02  0.39978653110E+01  0.39980711110E+01  0.40000000000E-01 0. -1.
</event>
<event>
 5   0  0.7212170E+07  0.9118800E+02  0.7818608E-02  0.1180000E+00
       11   -1    0    0    0    0  0.00000000000E+00  0.00000000000E+00  0.39999999673E+01  0.40000000000E+01  0.51109989000E-03 0. -1.
     -623   -1    0    0    0    0  0.00000000000E+00  0.00000000000E+00  0.12525980253E-10  0.17130000000E+03  0.17130000000E+03 0. -1.
       11    1    1    2    0    0 -0.11186336513E-01  0.18408897005E-02  0.15557983898E+00  0.15599317459E+00  0.51109989000E-03 0. -1.
     -623    1    1    2    0    0 -0.80865339975E-03  0.13242362017E-02  0.64145203642E-03  0.17130000001E+03  0.17130000000E+03 0. -1.
      622    1    1    2    0    0  0.11994989913E-01 -0.31651259024E-02  0.38437786770E+01  0.38440068178E+01  0.40000000000E-01 0. -1.
</event>
<event>
 5   0  0.7212170E+07  0.9118800E+02  0.7818608E-02  0.1180000E+00
       11   -1    0    0    0    0  0.00000000000E+00  0.00000000000E+00  0.39999999673E+01  0.40000000000E+01  0.51109989000E-03 0. -1.
     -623   -1    0    0    0    0  0.00000000000E+00  0.00000000000E+00  0.12525980253E-10  0.17130000000E+03  0.17130000000E+03 0. -1.
       11    1    1    2    0    0  0.51766920862E-03  0.33794700372E-03  0.10091019731E-01  0.10122849989E-01  0.51109989000E-03 0. -1.
     -623    1    1    2    0    0 -0.11690138901E-03 -0.10855637100E-03  0.23233703806E-03  0.17130000000E+03  0.17130000000E+03 0. -1.
      622    1    1    2    0    0 -0.40076781964E-03 -0.22939063275E-03  0.39896766095E+01  0.39898771486E+01  0.40000000000E-01 0. -1.
</event>
<event>
 5   0  0.7212170E+07  0.9118800E+02  0.7818608E-02  0.1180000E+00
       11   -1    0    0    0    0  0.00000000000E+00  0.00000000000E+00  0.39999999673E+01  0.40000000000E+01  0.51109989000E-03 0.  1.
     -623   -1    0    0    0    0  0.00000000000E+00  0.00000000000E+00  0.12525980253E-10  0.17130000000E+03  0.17130000000E+03 0. -1.
       11    1    1    2    0    0  0.10362199495E-01 -0.47262672689E-02  0.25106111291E+00  0.25131982894E+00  0.51109989000E-03 0.  1.
     -623    1    1    2    0    0 -0.95855850021E-03 -0.34279812002E-03  0.48732440167E-03  0.17130000000E+03  0.17130000000E+03 0. -1.
      622    1    1    2    0    0 -0.94036409948E-02  0.50690653890E-02  0.37484515304E+01  0.37486801677E+01  0.40000000000E-01 0.  1.
</event>
<event>
 5   0  0.7212170E+07  0.9118800E+02  0.7818608E-02  0.1180000E+00
       11   -1    0    0    0    0  0.00000000000E+00  0.00000000000E+00  0.39999999673E+01  0.40000000000E+01  0.51109989000E-03 0.  1.
     -623   -1    0    0    0    0  0.00000000000E+00  0.00000000000E+00  0.12525980253E-10  0.17130000000E+03  0.17130000000E+03 0. -1.
       11    1    1    2    0    0 -0.89885367418E-03  0.73324524160E-03  0.20595245940E-01  0.20634218302E-01  0.51109989000E-03 0.  1.
     -623    1    1    2    0    0 -0.49910354157E-03 -0.18827072461E-03  0.24026574367E-03  0.17130000000E+03  0.17130000000E+03 0. -1.
      622    1    1    2    0    0  0.13979572160E-02 -0.54497451689E-03  0.39791644576E+01  0.39793657826E+01  0.40000000000E-01 0.  1.
</event>
<event>
 5   0  0.7212170E+07  0.9118800E+02  0.7818608E-02  0.1180000E+00
       11   -1    0    0    0    0  0.00000000000E+00  0.00000000000E+00  0.39999999673E+01  0.40000000000E+01  0.51109989000E-03 0.  1.
     -623   -1    0    0    0    0  0.00000000000E+00  0.00000000000E+00  0.12525980253E-10  0.17130000000E+03  0.17130000000E+03 0.  1.
       11    1    1    2    0    0 -0.82263025243E-02 -0.15783777947E-01  0.13289245120E+01  0.13290437989E+01  0.51109989000E-03 0.  1.
     -623    1    1    2    0    0  0.27790567229E-02 -0.26633957636E-02  0.48810001989E-03  0.17130000004E+03  0.17130000000E+03 0.  1.
      622    1    1    2    0    0  0.54472458009E-02  0.18447173712E-01  0.26705873562E+01  0.26709561579E+01  0.40000000000E-01 0.  1.
</event>
<event>
 5   0  0.7212170E+07  0.9118800E+02  0.7818608E-02  0.1180000E+00
       11   -1    0    0    0    0  0.00000000000E+00  0.00000000000E+00  0.39999999673E+01  0.40000000000E+01  0.51109989000E-03 0.  1.
     -623   -1    0    0    0    0  0.00000000000E+00  0.00000000000E+00  0.12525980253E-10  0.17130000000E+03  0.17130000000E+03 0.  1.
       11    1    1    2    0    0  0.93373052182E-02 -0.43019765574E-02  0.37192957073E-01  0.38591055311E-01  0.51109989000E-03 0.  1.
     -623    1    1    2    0    0 -0.53747766108E-03 -0.13938179676E-02  0.16139026253E-02  0.17130000001E+03  0.17130000000E+03 0.  1.
      622    1    1    2    0    0 -0.87998275570E-02  0.56957945250E-02  0.39611931079E+01  0.39614089308E+01  0.40000000000E-01 0.  1.
</event>
<event>
 5   0  0.7212170E+07  0.9118800E+02  0.7818608E-02  0.1180000E+00
       11   -1    0    0    0    0  0.00000000000E+00  0.00000000000E+00  0.39999999673E+01  0.40000000000E+01  0.51109989000E-03 0. -1.
     -623   -1    0    0    0    0  0.00000000000E+00  0.00000000000E+00  0.12525980253E-10  0.17130000000E+03  0.17130000000E+03 0.  1.
       11    1    1    2    0    0  0.32981288592E-01 -0.23150854928E-01  0.95298743934E+00  0.95383911025E+00  0.51109989000E-03 0. -1.
     -623    1    1    2    0    0 -0.27764841925E-01  0.93604289586E-02  0.11524706602E-02  0.17130000251E+03  0.17130000000E+03 0.  1.
      622    1    1    2    0    0 -0.52164466669E-02  0.13790425969E-01  0.30458600573E+01  0.30461583799E+01  0.40000000000E-01 0. -1.
</event>
<event>
 5   0  0.7212170E+07  0.9118800E+02  0.7818608E-02  0.1180000E+00
       11   -1    0    0    0    0  0.00000000000E+00  0.00000000000E+00  0.39999999673E+01  0.40000000000E+01  0.51109989000E-03 0. -1.
     -623   -1    0    0    0    0  0.00000000000E+00  0.00000000000E+00  0.12525980253E-10  0.17130000000E+03  0.17130000000E+03 0.  1.
       11    1    1    2    0    0  0.18418258014E-02  0.83310246454E-02  0.54130615621E-02  0.10117349085E-01  0.51109989000E-03 0. -1.
     -623    1    1    2    0    0 -0.86745111335E-02 -0.48678106962E-02  0.49124802342E-02  0.17130000036E+03  0.17130000000E+03 0.  1.
      622    1    1    2    0    0  0.68326853320E-02 -0.34632139492E-02  0.39896744255E+01  0.39898822916E+01  0.40000000000E-01 0. -1.
</event>
<event>
 5   0  0.7212170E+07  0.9118800E+02  0.7818608E-02  0.1180000E+00
       11   -1    0    0    0    0  0.00000000000E+00  0.00000000000E+00  0.39999999673E+01  0.40000000000E+01  0.51109989000E-03 0. -1.
     -623   -1    0    0    0    0  0.00000000000E+00  0.00000000000E+00  0.12525980253E-10  0.17130000000E+03  0.17130000000E+03 0.  1.
       11    1    1    2    0    0  0.45035795303E-04  0.33170711397E-03  0.59032656307E-02  0.59347978935E-02  0.51109989000E-03 0. -1.
     -623    1    1    2    0    0 -0.32093104972E-04 -0.85660626470E-03  0.23183864146E-03  0.17130000000E+03  0.17130000000E+03 0.  1.
      622    1    1    2    0    0 -0.12942690319E-04  0.52489915104E-03  0.39938648646E+01  0.39940652013E+01  0.40000000000E-01 0. -1.
</event>
<event>
 5   0  0.7212170E+07  0.9118800E+02  0.7818608E-02  0.1180000E+00
       11   -1    0    0    0    0  0.00000000000E+00  0.00000000000E+00  0.39999999673E+01  0.40000000000E+01  0.51109989000E-03 0. -1.
     -623   -1    0    0    0    0  0.00000000000E+00  0.00000000000E+00  0.12525980253E-10  0.17130000000E+03  0.17130000000E+03 0. -1.
       11    1    1    2    0    0 -0.41608767860E-02  0.50929076127E-02  0.57378464039E+00  0.57382255565E+00  0.51109989000E-03 0. -1.
     -623    1    1    2    0    0  0.54401891766E-02 -0.43998342101E-02  0.27183902947E-03  0.17130000014E+03  0.17130000000E+03 0. -1.
      622    1    1    2    0    0 -0.12793123921E-02 -0.69307340144E-03  0.34259434890E+01  0.34261773023E+01  0.40000000000E-01 0. -1.
</event>
<event>
 5   0  0.7212170E+07  0.9118800E+02  0.7818608E-02  0.1180000E+00
       11   -1    0    0    0    0  0.00000000000E+00  0.00000000000E+00  0.39999999673E+01  0.40000000000E+01  0.51109989000E-03 0.  1.
     -623   -1    0    0    0    0  0.00000000000E+00  0.00000000000E+00  0.12525980253E-10  0.17130000000E+03  0.17130000000E+03 0. -1.
       11    1    1    2    0    0  0.70101205701E-02  0.47096356900E-02  0.26836744080E-01  0.28138843520E-01  0.51109989000E-03 0.  1.
     -623    1    1    2    0    0 -0.67153037761E-02  0.24806612877E-02  0.15101646784E-02  0.17130000016E+03  0.17130000000E+03 0. -1.
      622    1    1    2    0    0 -0.29481679370E-03 -0.71902969778E-02  0.39716530588E+01  0.39718610004E+01  0.40000000000E-01 0.  1.
</event>
<event>
 5   0  0.7212170E+07  0.9118800E+02  0.7818608E-02  0.1180000E+00
       11   -1    0    0    0    0  0.00000000000E+00  0.00000000000E+00  0.39999999673E+01  0.40000000000E+01  0.51109989000E-03 0. -1.
     -623   -1    0    0    0    0  0.00000000000E+00  0.00000000000E+00  0.12525980253E-10  0.17130000000E+03  0.17130000000E+03 0. -1.
       11    1    1    2    0    0 -0.17093391528E-01  0.11109998254E-01  0.10839498466E+01  0.10841416638E+01  0.51109989000E-03 0. -1.
     -623    1    1    2    0    0  0.21371870433E-01 -0.96418073726E-02  0.47127351224E-03  0.17130000161E+03  0.17130000000E+03 0. -1.
      622    1    1    2    0    0 -0.42784789081E-02 -0.14681908799E-02  0.29155788478E+01  0.29158567315E+01  0.40000000000E-01 0. -1.
</event>
<event>
 5   0  0.7212170E+07  0.9118800E+02  0.7818608E-02  0.1180000E+00
       11   -1    0    0    0    0  0.00000000000E+00  0.00000000000E+00  0.39999999673E+01  0.40000000000E+01  0.51109989000E-03 0.  1.
     -623   -1    0    0    0    0  0.00000000000E+00  0.00000000000E+00  0.12525980253E-10  0.17130000000E+03  0.17130000000E+03 0. -1.
       11    1    1    2    0    0 -0.34124619175E-02 -0.10583408644E-01  0.94835128136E+00  0.94841661074E+00  0.51109989000E-03 0.  1.
     -623    1    1    2    0    0  0.88446543904E-02  0.57618153180E-02  0.33643744617E-03  0.17130000033E+03  0.17130000000E+03 0. -1.
      622    1    1    2    0    0 -0.54321924721E-02  0.48215933261E-02  0.30513122482E+01  0.30515830634E+01  0.40000000000E-01 0. -1.
</event>
<event>
 5   0  0.7212170E+07  0.9118800E+02  0.7818608E-02  0.1180000E+00
       11   -1    0    0    0    0  0.00000000000E+00  0.00000000000E+00  0.39999999673E+01  0.40000000000E+01  0.51109989000E-03 0.  1.
     -623   -1    0    0    0    0  0.00000000000E+00  0.00000000000E+00  0.12525980253E-10  0.17130000000E+03  0.17130000000E+03 0.  1.
       11    1    1    2    0    0 -0.25783091073E-02 -0.68990565457E-03  0.35529202437E-01  0.35632977655E-01  0.51109989000E-03 0.  1.
     -623    1    1    2    0    0  0.14868716107E-02  0.54947571716E-03  0.30570572242E-03  0.17130000001E+03  0.17130000000E+03 0.  1.
      622    1    1    2    0    0  0.10914374962E-02  0.14042993729E-03  0.39641650600E+01  0.39643670156E+01  0.40000000000E-01 0.  1.
</event>
<event>
 5   0  0.7212170E+07  0.9118800E+02  0.7818608E-02  0.1180000E+00
       11   -1    0    0    0    0  0.00000000000E+00  0.00000000000E+00  0.39999999673E+01  0.40000000000E+01  0.51109989000E-03 0.  1.
     -623   -1    0    0    0    0  0.00000000000E+00  0.00000000000E+00  0.12525980253E-10  0.17130000000E+03  0.17130000000E+03 0.  1.
       11    1    1    2    0    0  0.18638648446E-02 -0.33020778755E-02  0.69744607626E-01  0.69849475491E-01  0.51109989000E-03 0.  1.
     -623    1    1    2    0    0 -0.13479146140E-02  0.37824324293E-03  0.30952256082E-03  0.17130000001E+03  0.17130000000E+03 0.  1.
      622    1    1    2    0    0 -0.51595023089E-03  0.29238346326E-02  0.39299458365E+01  0.39301505179E+01  0.40000000000E-01 0.  1.
</event>
<event>
 5   0  0.7212170E+07  0.9118800E+02  0.7818608E-02  0.1180000E+00
       11   -1    0    0    0    0  0.00000000000E+00  0.00000000000E+00  0.39999999673E+01  0.40000000000E+01  0.51109989000E-03 0. -1.
     -623   -1    0    0    0    0  0.00000000000E+00  0.00000000000E+00  0.12525980253E-10  0.17130000000E+03  0.17130000000E+03 0. -1.
       11    1    1    2    0    0  0.22814337594E-02  0.98379891396E-04  0.36509311078E-01  0.36584226616E-01  0.51109989000E-03 0. -1.
     -623    1    1    2    0    0 -0.21439239636E-03  0.19642560115E-02  0.27782154005E-03  0.17130000001E+03  0.17130000000E+03 0. -1.
      622    1    1    2    0    0 -0.20670413631E-02 -0.20626359028E-02  0.39632128347E+01  0.39634157617E+01  0.40000000000E-01 0. -1.
</event>
<event>
 5   0  0.7212170E+07  0.9118800E+02  0.7818608E-02  0.1180000E+00
       11   -1    0    0    0    0  0.00000000000E+00  0.00000000000E+00  0.39999999673E+01  0.40000000000E+01  0.51109989000E-03 0. -1.
     -623   -1    0    0    0    0  0.00000000000E+00  0.00000000000E+00  0.12525980253E-10  0.17130000000E+03  0.17130000000E+03 0.  1.
       11    1    1    2    0    0  0.65629397931E-02 -0.26659155743E-02  0.47656963426E+00  0.47662255172E+00  0.51109989000E-03 0. -1.
     -623    1    1    2    0    0 -0.26385796239E-03  0.46702175361E-03  0.28626538253E-03  0.17130000000E+03  0.17130000000E+03 0.  1.
      622    1    1    2    0    0 -0.62990818306E-02  0.21988938206E-02  0.35231440688E+01  0.35233774482E+01  0.40000000000E-01 0. -1.
</event>
<event>
 5   0  0.7212170E+07  0.9118800E+02  0.7818608E-02  0.1180000E+00
       11   -1    0    0    0    0  0.00000000000E+00  0.00000000000E+00  0.39999999673E+01  0.40000000000E+01  0.51109989000E-03 0.  1.
     -623   -1    0    0    0    0  0.00000000000E+00  0.00000000000E+00  0.12525980253E-10  0.17130000000E+03  0.17130000000E+03 0. -1.
       11    1    1    2    0    0 -0.10752820603E-02 -0.45399039913E-02  0.12822093221E+00  0.12830680278E+00  0.51109989000E-03 0.  1.
     -623    1    1    2    0    0  0.83575525583E-03 -0.70471215137E-04  0.29522624694E-03  0.17130000000E+03  0.17130000000E+03 0. -1.
      622    1    1    2    0    0  0.23952680425E-03  0.46103752064E-02  0.38714838099E+01  0.38716931959E+01  0.40000000000E-01 0.  1.
</event>
<event>
 5   0  0.7212170E+07  0.9118800E+02  0.7818608E-02  0.1180000E+00
       11   -1    0    0    0    0  0.00000000000E+00  0.00000000000E+00  0.39999999673E+01  0.40000000000E+01  0.51109989000E-03 0. -1.
     -623   -1    0    0    0    0  0.00000000000E+00  0.00000000000E+00  0.12525980253E-10  0.17130000000E+03  0.17130000000E+03 0.  1.
       11    1    1    2    0    0  0.10832983017E-01  0.73584779739E-02  0.38831570522E+00  0.38853680503E+00  0.51109989000E-03 0. -1.
     -623    1    1    2    0    0  0.21902576336E-03 -0.83684905598E-03  0.46539453557E-03  0.17130000000E+03  0.17130000000E+03 0.  1.
      622    1    1    2    0    0 -0.11052008780E-01 -0.65216289178E-02  0.36112188682E+01  0.36114631927E+01  0.40000000000E-01 0.  0.
</event>
<event>
 5   0  0.7212170E+07  0.9118800E+02  0.7818608E-02  0.1180000E+00
       11   -1    0    0    0    0  0.00000000000E+00  0.00000000000E+00  0.39999999673E+01  0.40000000000E+01  0.51109989000E-03 0. -1.
     -623   -1    0    0    0    0  0.00000000000E+00  0.00000000000E+00  0.12525980253E-10  0.17130000000E+03  0.17130000000E+03 0.  1.
       11    1    1    2    0    0 -0.84098829484E-02 -0.16262082849E-02  0.85214018195E+00  0.85218338496E+00  0.51109989000E-03 0. -1.
     -623    1    1    2    0    0 -0.53136757256E-03 -0.14820620658E-01  0.35363704723E-03  0.17130000064E+03  0.17130000000E+03 0.  1.
      622    1    1    2    0    0  0.89412505209E-02  0.16446828941E-01  0.31475061480E+01  0.31478159724E+01  0.40000000000E-01 0. -1.
</event>
<event>
 5   0  0.7212170E+07  0.9118800E+02  0.7818608E-02  0.1180000E+00
       11   -1    0    0    0    0  0.00000000000E+00  0.00000000000E+00  0.39999999673E+01  0.40000000000E+01  0.51109989000E-03 0.  1.
     -623   -1    0    0    0    0  0.00000000000E+00  0.00000000000E+00  0.12525980253E-10  0.17130000000E+03  0.17130000000E+03 0. -1.
       11    1    1    2    0    0 -0.47255924620E-02  0.27232856396E-02  0.29695574117E+00  0.29700626415E+00  0.51109989000E-03 0.  1.
     -623    1    1    2    0    0 -0.17367934613E-04 -0.27893590526E-02  0.26959924872E-03  0.17130000002E+03  0.17130000000E+03 0. -1.
      622    1    1    2    0    0  0.47429603966E-02  0.66073413357E-04  0.37027746274E+01  0.37029937134E+01  0.40000000000E-01 0.  1.
</event>
<event>
 5   0  0.7212170E+07  0.9118800E+02  0.7818608E-02  0.1180000E+00
       11   -1    0    0    0    0  0.00000000000E+00  0.00000000000E+00  0.39999999673E+01  0.40000000000E+01  0.51109989000E-03 0. -1.
     -623   -1    0    0    0    0  0.00000000000E+00  0.00000000000E+00  0.12525980253E-10  0.17130000000E+03  0.17130000000E+03 0. -1.
       11    1    1    2    0    0 -0.33247941923E-01 -0.14523424803E-01  0.82403833285E+00  0.82483682674E+00  0.51109989000E-03 0. -1.
     -623    1    1    2    0    0  0.16404905074E-01 -0.13318370757E-01  0.12184921939E-02  0.17130000131E+03  0.17130000000E+03 0. -1.
      622    1    1    2    0    0  0.16843036849E-01  0.27841795560E-01  0.31747431424E+01  0.31751618658E+01  0.40000000000E-01 0. -1.
</event>
<event>
 5   0  0.7212170E+07  0.9118800E+02  0.7818608E-02  0.1180000E+00
       11   -1    0    0    0    0  0.00000000000E+00  0.00000000000E+00  0.39999999673E+01  0.40000000000E+01  0.51109989000E-03 0. -1.
     -623   -1    0    0    0    0  0.00000000000E+00  0.00000000000E+00  0.12525980253E-10  0.17130000000E+03  0.17130000000E+03 0.  1.
       11    1    1    2    0    0  0.90110463933E-03  0.39251606429E-02  0.90259664775E+00  0.90260577697E+00  0.51109989000E-03 0. -1.
     -623    1    1    2    0    0  0.87924756908E-03 -0.52686341385E-03  0.26976833424E-03  0.17130000000E+03  0.17130000000E+03 0.  1.
      622    1    1    2    0    0 -0.17803522082E-02 -0.33982972292E-02  0.30971335502E+01  0.30973942187E+01  0.40000000000E-01 0. -1.
</event>
<event>
 5   0  0.7212170E+07  0.9118800E+02  0.7818608E-02  0.1180000E+00
       11   -1    0    0    0    0  0.00000000000E+00  0.00000000000E+00  0.39999999673E+01  0.40000000000E+01  0.51109989000E-03 0.  1.
     -623   -1    0    0    0    0  0.00000000000E+00  0.00000000000E+00  0.12525980253E-10  0.17130000000E+03  0.17130000000E+03 0. -1.
       11    1    1    2    0    0  0.15285894709E-02  0.63975362205E-03  0.17878539989E-01  0.17962440973E-01  0.51109989000E-03 0.  1.
     -623    1    1    2    0    0 -0.38277719854E-03 -0.77192032176E-03  0.28494504204E-03  0.17130000000E+03  0.17130000000E+03 0. -1.
      622    1    1    2    0    0 -0.11458122723E-02  0.13216669983E-03  0.39818364830E+01  0.39820375573E+01  0.40000000000E-01 0.  1.
</event>
<event>
 5   0  0.7212170E+07  0.9118800E+02  0.7818608E-02  0.1180000E+00
       11   -1    0    0    0    0  0.00000000000E+00  0.00000000000E+00  0.39999999673E+01  0.40000000000E+01  0.51109989000E-03 0.  1.
     -623   -1    0    0    0    0  0.00000000000E+00  0.00000000000E+00  0.12525980253E-10  0.17130000000E+03  0.17130000000E+03 0.  1.
       11    1    1    2    0    0  0.29337416288E-02  0.14274331581E-02  0.21271325531E-01  0.21526144995E-01  0.51109989000E-03 0.  1.
     -623    1    1    2    0    0 -0.11347723467E-01 -0.86625830020E-02  0.47194652151E-03  0.17130000060E+03  0.17130000000E+03 0.  1.
      622    1    1    2    0    0  0.84139818394E-02  0.72351498452E-02  0.39782566959E+01  0.39784732601E+01  0.40000000000E-01 0.  1.
</event>
<event>
 5   0  0.7212170E+07  0.9118800E+02  0.7818608E-02  0.1180000E+00
       11   -1    0    0    0    0  0.00000000000E+00  0.00000000000E+00  0.39999999673E+01  0.40000000000E+01  0.51109989000E-03 0.  1.
     -623   -1    0    0    0    0  0.00000000000E+00  0.00000000000E+00  0.12525980253E-10  0.17130000000E+03  0.17130000000E+03 0. -1.
       11    1    1    2    0    0 -0.11953536089E-01 -0.19301751634E-02  0.25971679066E+01  0.25971961822E+01  0.51109989000E-03 0.  1.
     -623    1    1    2    0    0  0.50041218928E-02 -0.20944400921E-02  0.62172876285E-03  0.17130000009E+03  0.17130000000E+03 0. -1.
      622    1    1    2    0    0  0.69494141962E-02  0.40246152556E-02  0.14022103321E+01  0.14028037309E+01  0.40000000000E-01 0. -1.
</event>
<event>
 5   0  0.7212170E+07  0.9118800E+02  0.7818608E-02  0.1180000E+00
       11   -1    0    0    0    0  0.00000000000E+00  0.00000000000E+00  0.39999999673E+01  0.40000000000E+01  0.51109989000E-03 0.  1.
     -623   -1    0    0    0    0  0.00000000000E+00  0.00000000000E+00  0.12525980253E-10  0.17130000000E+03  0.17130000000E+03 0. -1.
       11    1    1    2    0    0 -0.70731164628E-03 -0.61109521738E-05  0.19300338836E-02  0.21181550930E-02  0.51109989000E-03 0.  1.
     -623    1    1    2    0    0  0.15591651097E-03  0.82436574215E-03  0.38832380375E-03  0.17130000000E+03  0.17130000000E+03 0. -1.
      622    1    1    2    0    0  0.55139513525E-03 -0.81825479028E-03  0.39976816112E+01  0.39978818439E+01  0.40000000000E-01 0.  1.
</event>
<event>
 5   0  0.7212170E+07  0.9118800E+02  0.7818608E-02  0.1180000E+00
       11   -1    0    0    0    0  0.00000000000E+00  0.00000000000E+00  0.39999999673E+01  0.40000000000E+01  0.51109989000E-03 0. -1.
     -623   -1    0    0    0    0  0.00000000000E+00  0.00000000000E+00  0.12525980253E-10  0.17130000000E+03  0.17130000000E+03 0.  1.
       11    1    1    2    0    0  0.76840652296E-02  0.97555958810E-02  0.12783595474E+01  0.12784199663E+01  0.51109989000E-03 0. -1.
     -623    1    1    2    0    0 -0.47410114626E-02 -0.25086079241E-02  0.36567448313E-03  0.17130000008E+03  0.17130000000E+03 0.  1.
      622    1    1    2    0    0 -0.29430537666E-02 -0.72469879566E-02  0.27212747458E+01  0.27215799497E+01  0.40000000000E-01 0.  0.
</event>
<event>
 5   0  0.7212170E+07  0.9118800E+02  0.7818608E-02  0.1180000E+00
       11   -1    0    0    0    0  0.00000000000E+00  0.00000000000E+00  0.39999999673E+01  0.40000000000E+01  0.51109989000E-03 0.  1.
     -623   -1    0    0    0    0  0.00000000000E+00  0.00000000000E+00  0.12525980253E-10  0.17130000000E+03  0.17130000000E+03 0.  1.
       11    1    1    2    0    0 -0.33645952793E-03 -0.25056250788E-02  0.20920238214E+00  0.20921828142E+00  0.51109989000E-03 0.  1.
     -623    1    1    2    0    0  0.82935787719E-03  0.14951025124E-03  0.22767729426E-03  0.17130000000E+03  0.17130000000E+03 0.  1.
      622    1    1    2    0    0 -0.49289834957E-03  0.23561148275E-02  0.37905699094E+01  0.37907817179E+01  0.40000000000E-01 0.  1.
</event>
<event>
 5   0  0.7212170E+07  0.9118800E+02  0.7818608E-02  0.1180000E+00
       11   -1    0    0    0    0  0.00000000000E+00  0.00000000000E+00  0.39999999673E+01  0.40000000000E+01  0.51109989000E-03 0. -1.
     -623   -1    0    0    0    0  0.00000000000E+00  0.00000000000E+00  0.12525980253E-10  0.17130000000E+03  0.17130000000E+03 0. -1.
       11    1    1    2    0    0  0.16148574423E-02 -0.28436114183E-02  0.15527293790E-01  0.15876144557E-01  0.51109989000E-03 0. -1.
     -623    1    1    2    0    0 -0.24847709215E-02  0.21567766890E-02  0.54980682154E-03  0.17130000003E+03  0.17130000000E+03 0. -1.
      622    1    1    2    0    0  0.86991347931E-03  0.68683472926E-03  0.39839228669E+01  0.39841238231E+01  0.40000000000E-01 0. -1.
</event>
<event>
 5   0  0.7212170E+07  0.9118800E+02  0.7818608E-02  0.1180000E+00
       11   -1    0    0    0    0  0.00000000000E+00  0.00000000000E+00  0.39999999673E+01  0.40000000000E+01  0.51109989000E-03 0.  1.
     -623   -1    0    0    0    0  0.00000000000E+00  0.00000000000E+00  0.12525980253E-10  0.17130000000E+03  0.17130000000E+03 0. -1.
       11    1    1    2    0    0 -0.10556220034E-01  0.34158377631E-02  0.59162295916E+00  0.59172720806E+00  0.51109989000E-03 0.  1.
     -623    1    1    2    0    0 -0.11321148043E-03 -0.27797246555E-02  0.35573092399E-03  0.17130000002E+03  0.17130000000E+03 0. -1.
      622    1    1    2    0    0  0.10669431514E-01 -0.63611310793E-03  0.34080212768E+01  0.34082727685E+01  0.40000000000E-01 0.  1.
</event>
<event>
 5   0  0.7212170E+07  0.9118800E+02  0.7818608E-02  0.1180000E+00
       11   -1    0    0    0    0  0.00000000000E+00  0.00000000000E+00  0.39999999673E+01  0.40000000000E+01  0.51109989000E-03 0. -1.
     -623   -1    0    0    0    0  0.00000000000E+00  0.00000000000E+00  0.12525980253E-10  0.17130000000E+03  0.17130000000E+03 0. -1.
       11    1    1    2    0    0  0.18043391427E-01  0.37697614886E-02  0.11073598363E+01  0.11075133604E+01  0.51109989000E-03 0. -1.
     -623    1    1    2    0    0  0.20605550453E-02 -0.76120074841E-03  0.50153570535E-03  0.17130000001E+03  0.17130000000E+03 0. -1.
      622    1    1    2    0    0 -0.20103946473E-01 -0.30085607401E-02  0.28921385959E+01  0.28924866253E+01  0.40000000000E-01 0. -1.
</event>
<event>
 5   0  0.7212170E+07  0.9118800E+02  0.7818608E-02  0.1180000E+00
       11   -1    0    0    0    0  0.00000000000E+00  0.00000000000E+00  0.39999999673E+01  0.40000000000E+01  0.51109989000E-03 0. -1.
     -623   -1    0    0    0    0  0.00000000000E+00  0.00000000000E+00  0.12525980253E-10  0.17130000000E+03  0.17130000000E+03 0.  1.
       11    1    1    2    0    0 -0.56706131123E-02 -0.25057821248E-01  0.46687126375E+00  0.46757789554E+00  0.51109989000E-03 0. -1.
     -623    1    1    2    0    0  0.42393815308E-02  0.30264366489E-02  0.10021609237E-02  0.17130000008E+03  0.17130000000E+03 0.  1.
      622    1    1    2    0    0  0.14312315816E-02  0.22031384599E-01  0.35321265427E+01  0.35324220223E+01  0.40000000000E-01 0. -1.
</event>
<event>
 5   0  0.7212170E+07  0.9118800E+02  0.7818608E-02  0.1180000E+00
       11   -1    0    0    0    0  0.00000000000E+00  0.00000000000E+00  0.39999999673E+01  0.40000000000E+01  0.51109989000E-03 0. -1.
     -623   -1    0    0    0    0  0.00000000000E+00  0.00000000000E+00  0.12525980253E-10  0.17130000000E+03  0.17130000000E+03 0.  1.
       11    1    1    2    0    0  0.10047918690E-01  0.64155036560E-02  0.58898191016E+00  0.58910276784E+00  0.51109989000E-03 0. -1.
     -623    1    1    2    0    0 -0.15094218700E-02 -0.79221432807E-02  0.36658647528E-03  0.17130000019E+03  0.17130000000E+03 0.  1.
      622    1    1    2    0    0 -0.85384968192E-02  0.15066396273E-02  0.34106514720E+01  0.34108970432E+01  0.40000000000E-01 0. -1.
</event>
<event>
 5   0  0.7212170E+07  0.9118800E+02  0.7818608E-02  0.1180000E+00
       11   -1    0    0    0    0  0.00000000000E+00  0.00000000000E+00  0.39999999673E+01  0.40000000000E+01  0.51109989000E-03 0. -1.
     -623   -1    0    0    0    0  0.00000000000E+00  0.00000000000E+00  0.12525980253E-10  0.17130000000E+03  0.17130000000E+03 0.  1.
       11    1    1    2    0    0  0.31561397636E-01 -0.17326188776E-02  0.33142403134E+00  0.33292833097E+00  0.51109989000E-03 0. -1.
     -623    1    1    2    0    0  0.96608869013E-03  0.13115480479E-02  0.18667466047E-02  0.17130000002E+03  0.17130000000E+03 0.  1.
      622    1    1    2    0    0 -0.32527486326E-01  0.42107082961E-03  0.36667091897E+01  0.36670716514E+01  0.40000000000E-01 0. -1.
</event>
<event>
 5   0  0.7212170E+07  0.9118800E+02  0.7818608E-02  0.1180000E+00
       11   -1    0    0    0    0  0.00000000000E+00  0.00000000000E+00  0.39999999673E+01  0.40000000000E+01  0.51109989000E-03 0.  1.
     -623   -1    0    0    0    0  0.00000000000E+00  0.00000000000E+00  0.12525980253E-10  0.17130000000E+03  0.17130000000E+03 0.  1.
       11    1    1    2    0    0 -0.24903114313E-02  0.16728956367E-01  0.28129502473E+00  0.28180349854E+00  0.51109989000E-03 0.  1.
     -623    1    1    2    0    0 -0.15290863372E-02  0.68009513519E-02  0.80037921042E-03  0.17130000014E+03  0.17130000000E+03 0.  1.
      622    1    1    2    0    0  0.40193977687E-02 -0.23529907720E-01  0.37179045639E+01  0.37181963582E+01  0.40000000000E-01 0.  1.
</event>
<event>
 5   0  0.7212170E+07  0.9118800E+02  0.7818608E-02  0.1180000E+00
       11   -1    0    0    0    0  0.00000000000E+00  0.00000000000E+00  0.39999999673E+01  0.40000000000E+01  0.51109989000E-03 0.  1.
     -623   -1    0    0    0    0  0.00000000000E+00  0.00000000000E+00  0.12525980253E-10  0.17130000000E+03  0.17130000000E+03 0. -1.
       11    1    1    2    0    0  0.23022082792E-01  0.34130055897E-02  0.13617027412E+00  0.13814582759E+00  0.51109989000E-03 0.  1.
     -623    1    1    2    0    0 -0.39999389716E-02  0.11591043844E-02  0.22323036234E-02  0.17130000007E+03  0.17130000000E+03 0. -1.
      622    1    1    2    0    0 -0.19022143821E-01 -0.45721099742E-02  0.38615973897E+01  0.38618541074E+01  0.40000000000E-01 0.  1.
</event>
<event>
 5   0  0.7212170E+07  0.9118800E+02  0.7818608E-02  0.1180000E+00
       11   -1    0    0    0    0  0.00000000000E+00  0.00000000000E+00  0.39999999673E+01  0.40000000000E+01  0.51109989000E-03 0. -1.
     -623   -1    0    0    0    0  0.00000000000E+00  0.00000000000E+00  0.12525980253E-10  0.17130000000E+03  0.17130000000E+03 0. -1.
       11    1    1    2    0    0 -0.24420906419E-02 -0.21087648233E-02  0.10593314044E+01  0.10593364415E+01  0.51109989000E-03 0. -1.
     -623    1    1    2    0    0 -0.17696273841E-01  0.44565298053E-02  0.34793763636E-03  0.17130000097E+03  0.17130000000E+03 0. -1.
      622    1    1    2    0    0  0.20138364481E-01 -0.23477649815E-02  0.29403206249E+01  0.29406625857E+01  0.40000000000E-01 0.  0.
</event>
<event>
 5   0  0.7212170E+07  0.9118800E+02  0.7818608E-02  0.1180000E+00
       11   -1    0    0    0    0  0.00000000000E+00  0.00000000000E+00  0.39999999673E+01  0.40000000000E+01  0.51109989000E-03 0. -1.
     -623   -1    0    0    0    0  0.00000000000E+00  0.00000000000E+00  0.12525980253E-10  0.17130000000E+03  0.17130000000E+03 0. -1.
       11    1    1    2    0    0 -0.57438675680E-02  0.45769971460E-02  0.30353517056E+00  0.30362444221E+00  0.51109989000E-03 0. -1.
     -623    1    1    2    0    0  0.97350986444E-04 -0.45477271088E-03  0.31228620608E-03  0.17130000000E+03  0.17130000000E+03 0. -1.
      622    1    1    2    0    0  0.56465165815E-02 -0.41222244352E-02  0.36961525096E+01  0.36963755559E+01  0.40000000000E-01 0.  0.
</event>
<event>
 5   0  0.7212170E+07  0.9118800E+02  0.7818608E-02  0.1180000E+00
       11   -1    0    0    0    0  0.00000000000E+00  0.00000000000E+00  0.39999999673E+01  0.40000000000E+01  0.51109989000E-03 0. -1.
     -623   -1    0    0    0    0  0.00000000000E+00  0.00000000000E+00  0.12525980253E-10  0.17130000000E+03  0.17130000000E+03 0. -1.
       11    1    1    2    0    0 -0.18436528354E-01  0.18731968387E-01  0.22114633082E+01  0.22116195462E+01  0.51109989000E-03 0. -1.
     -623    1    1    2    0    0  0.16219559288E-01 -0.75108722089E-02  0.64111411981E-03  0.17130000093E+03  0.17130000000E+03 0. -1.
      622    1    1    2    0    0  0.22169690647E-02 -0.11221096177E-01  0.17878955455E+01  0.17883795205E+01  0.40000000000E-01 0. -1.
</event>
<event>
 5   0  0.7212170E+07  0.9118800E+02  0.7818608E-02  0.1180000E+00
       11   -1    0    0    0    0  0.00000000000E+00  0.00000000000E+00  0.39999999673E+01  0.40000000000E+01  0.51109989000E-03 0.  1.
     -623   -1    0    0    0    0  0.00000000000E+00  0.00000000000E+00  0.12525980253E-10  0.17130000000E+03  0.17130000000E+03 0.  1.
       11    1    1    2    0    0  0.23215447321E-01  0.48043204061E-02  0.17986815308E+00  0.18142450828E+00  0.51109989000E-03 0.  1.
     -623    1    1    2    0    0 -0.91870334960E-02 -0.83200246277E-02  0.17936766701E-02  0.17130000046E+03  0.17130000000E+03 0.  1.
      622    1    1    2    0    0 -0.14028413825E-01  0.35157042214E-02  0.38183381375E+01  0.38185750338E+01  0.40000000000E-01 0.  1.
</event>
<event>
 5   0  0.7212170E+07  0.9118800E+02  0.7818608E-02  0.1180000E+00
       11   -1    0    0    0    0  0.00000000000E+00  0.00000000000E+00  0.39999999673E+01  0.40000000000E+01  0.51109989000E-03 0. -1.
     -623   -1    0    0    0    0  0.00000000000E+00  0.00000000000E+00  0.12525980253E-10  0.17130000000E+03  0.17130000000E+03 0.  1.
       11    1    1    2    0    0 -0.11013997177E-01  0.77359878320E-02  0.32658702827E-01  0.35327124635E-01  0.51109989000E-03 0. -1.
     -623    1    1    2    0    0  0.63548530196E-02  0.52103514738E-02  0.28942745418E-02  0.17130000022E+03  0.17130000000E+03 0.  1.
      622    1    1    2    0    0  0.46591441574E-02 -0.12946339306E-01  0.39644469901E+01  0.39646726539E+01  0.40000000000E-01 0. -1.
</event>
<event>
 5   0  0.7212170E+07  0.9118800E+02  0.7818608E-02  0.1180000E+00
       11   -1    0    0    0    0  0.00000000000E+00  0.00000000000E+00  0.39999999673E+01  0.40000000000E+01  0.51109989000E-03 0. -1.
     -623   -1    0    0    0    0  0.00000000000E+00  0.00000000000E+00  0.12525980253E-10  0.17130000000E+03  0.17130000000E+03 0. -1.
       11    1    1    2    0    0 -0.12246739275E-02  0.43223988349E-03  0.98323811228E-02  0.99309415056E-02  0.51109989000E-03 0. -1.
     -623    1    1    2    0    0 -0.81705574273E-03 -0.17577696478E-02  0.29978438545E-03  0.17130000001E+03  0.17130000000E+03 0. -1.
      622    1    1    2    0    0  0.20417296701E-02  0.13255297641E-02  0.39898678013E+01  0.39900690467E+01  0.40000000000E-01 0. -1.
</event>
<event>
 5   0  0.7212170E+07  0.9118800E+02  0.7818608E-02  0.1180000E+00
       11   -1    0    0    0    0  0.00000000000E+00  0.00000000000E+00  0.39999999673E+01  0.40000000000E+01  0.51109989000E-03 0.  1.
     -623   -1    0    0    0    0  0.00000000000E+00  0.00000000000E+00  0.12525980253E-10  0.17130000000E+03  0.17130000000E+03 0.  1.
       11    1    1    2    0    0  0.39334094611E-02  0.54586833496E-02  0.18476949331E+00  0.18489266025E+00  0.51109989000E-03 0.  1.
     -623    1    1    2    0    0 -0.17646681051E-02 -0.43786093442E-03  0.33676313815E-03  0.17130000001E+03  0.17130000000E+03 0.  1.
      622    1    1    2    0    0 -0.21687413555E-02 -0.50208224151E-02  0.38148937122E+01  0.38151073311E+01  0.40000000000E-01 0.  1.
</event>
<event>
 5   0  0.7212170E+07  0.9118800E+02  0.7818608E-02  0.1180000E+00
       11   -1    0    0    0    0  0.00000000000E+00  0.00000000000E+00  0.39999999673E+01  0.40000000000E+01  0.51109989000E-03 0. -1.
     -623   -1    0    0    0    0  0.00000000000E+00  0.00000000000E+00  0.12525980253E-10  0.17130000000E+03  0.17130000000E+03 0. -1.
       11    1    1    2    0    0 -0.30603543074E-02 -0.35149773202E-02  0.71497505861E-01  0.71651066995E-01  0.51109989000E-03 0. -1.
     -623    1    1    2    0    0  0.10926079130E-02  0.39553674411E-02  0.35774873885E-03  0.17130000005E+03  0.17130000000E+03 0. -1.
      622    1    1    2    0    0  0.19677463941E-02 -0.44039012163E-03  0.39281447135E+01  0.39283488842E+01  0.40000000000E-01 0. -1.
</event>
<event>
 5   0  0.7212170E+07  0.9118800E+02  0.7818608E-02  0.1180000E+00
       11   -1    0    0    0    0  0.00000000000E+00  0.00000000000E+00  0.39999999673E+01  0.40000000000E+01  0.51109989000E-03 0.  1.
     -623   -1    0    0    0    0  0.00000000000E+00  0.00000000000E+00  0.12525980253E-10  0.17130000000E+03  0.17130000000E+03 0.  1.
       11    1    1    2    0    0 -0.28567738282E-03 -0.58143255406E-02  0.39522534638E-01  0.39952220969E-01  0.51109989000E-03 0.  1.
     -623    1    1    2    0    0 -0.87240477174E-02  0.11687920106E-01  0.64690468481E-03  0.17130000062E+03  0.17130000000E+03 0.  1.
      622    1    1    2    0    0  0.90097250989E-02 -0.58735945634E-02  0.39598305274E+01  0.39600471563E+01  0.40000000000E-01 0.  1.
</event>
<event>
 5   0  0.7212170E+07  0.9118800E+02  0.7818608E-02  0.1180000E+00
       11   -1    0    0    0    0  0.00000000000E+00  0.00000000000E+00  0.39999999673E+01  0.40000000000E+01  0.51109989000E-03 0. -1.
     -623   -1    0    0    0    0  0.00000000000E+00  0.00000000000E+00  0.12525980253E-10  0.17130000000E+03  0.17130000000E+03 0. -1.
       11    1    1    2    0    0 -0.23120248098E-01  0.47008701243E-01  0.27132371874E+00  0.27633527722E+00  0.51109989000E-03 0. -1.
     -623    1    1    2    0    0 -0.10659634286E-02 -0.21797889519E-02  0.55749123879E-02  0.17130000011E+03  0.17130000000E+03 0. -1.
      622    1    1    2    0    0  0.24186211527E-01 -0.44828912291E-01  0.37231013362E+01  0.37236646149E+01  0.40000000000E-01 0. -1.
</event>
<event>
 5   0  0.7212170E+07  0.9118800E+02  0.7818608E-02  0.1180000E+00
       11   -1    0    0    0    0  0.00000000000E+00  0.00000000000E+00  0.39999999673E+01  0.40000000000E+01  0.51109989000E-03 0.  1.
     -623   -1    0    0    0    0  0.00000000000E+00  0.00000000000E+00  0.12525980253E-10  0.17130000000E+03  0.17130000000E+03 0. -1.
       11    1    1    2    0    0 -0.96030625881E-02 -0.44370513416E-01  0.17636643346E+01  0.17642485957E+01  0.51109989000E-03 0.  1.
     -623    1    1    2    0    0 -0.12491792255E-02  0.10112607005E-02  0.13889920710E-02  0.17130000001E+03  0.17130000000E+03 0. -1.
      622    1    1    2    0    0  0.10852241814E-01  0.43359252715E-01  0.22349466409E+01  0.22357513913E+01  0.40000000000E-01 0.  0.
</event>
<event>
 5   0  0.7212170E+07  0.9118800E+02  0.7818608E-02  0.1180000E+00
       11   -1    0    0    0    0  0.00000000000E+00  0.00000000000E+00  0.39999999673E+01  0.40000000000E+01  0.51109989000E-03 0.  1.
     -623   -1    0    0    0    0  0.00000000000E+00  0.00000000000E+00  0.12525980253E-10  0.17130000000E+03  0.17130000000E+03 0.  1.
       11    1    1    2    0    0  0.16265997988E-01 -0.17099631689E-02  0.84004643567E-01  0.85583573357E-01  0.51109989000E-03 0.  1.
     -623    1    1    2    0    0 -0.18649053987E-01 -0.58106128141E-02  0.17923486204E-02  0.17130000112E+03  0.17130000000E+03 0.  1.
      622    1    1    2    0    0  0.23830559991E-02  0.75205759831E-02  0.39142029753E+01  0.39144153037E+01  0.40000000000E-01 0.  1.
</event>
<event>
 5   0  0.7212170E+07  0.9118800E+02  0.7818608E-02  0.1180000E+00
       11   -1    0    0    0    0  0.00000000000E+00  0.00000000000E+00  0.39999999673E+01  0.40000000000E+01  0.51109989000E-03 0. -1.
     -623   -1    0    0    0    0  0.00000000000E+00  0.00000000000E+00  0.12525980253E-10  0.17130000000E+03  0.17130000000E+03 0. -1.
       11    1    1    2    0    0 -0.50823926578E-02  0.33084720999E-03  0.96272797507E-01  0.96408780399E-01  0.51109989000E-03 0. -1.
     -623    1    1    2    0    0 -0.14601056509E-03  0.44285357195E-03  0.34447438507E-03  0.17130000000E+03  0.17130000000E+03 0. -1.
      622    1    1    2    0    0  0.52284032228E-02 -0.77370078193E-03  0.39033826954E+01  0.39035912185E+01  0.40000000000E-01 0. -1.
</event>
<event>
 5   0  0.7212170E+07  0.9118800E+02  0.7818608E-02  0.1180000E+00
       11   -1    0    0    0    0  0.00000000000E+00  0.00000000000E+00  0.39999999673E+01  0.40000000000E+01  0.51109989000E-03 0. -1.
     -623   -1    0    0    0    0  0.00000000000E+00  0.00000000000E+00  0.12525980253E-10  0.17130000000E+03  0.17130000000E+03 0.  1.
       11    1    1    2    0    0 -0.75319070952E-04 -0.38945402189E-03  0.12005106264E-02  0.13637434727E-02  0.51109989000E-03 0. -1.
     -623    1    1    2    0    0  0.43430731688E-03 -0.35953285376E-04  0.36331310719E-03  0.17130000000E+03  0.17130000000E+03 0.  1.
      622    1    1    2    0    0 -0.35898824599E-03  0.42540730727E-03  0.39984361442E+01  0.39986362561E+01  0.40000000000E-01 0. -1.
</event>
<event>
 5   0  0.7212170E+07  0.9118800E+02  0.7818608E-02  0.1180000E+00
       11   -1    0    0    0    0  0.00000000000E+00  0.00000000000E+00  0.39999999673E+01  0.40000000000E+01  0.51109989000E-03 0. -1.
     -623   -1    0    0    0    0  0.00000000000E+00  0.00000000000E+00  0.12525980253E-10  0.17130000000E+03  0.17130000000E+03 0. -1.
       11    1    1    2    0    0  0.16173643944E-02 -0.72857463162E-02  0.92966233559E-02  0.11932577085E-01  0.51109989000E-03 0. -1.
     -623    1    1    2    0    0 -0.20624166805E-02 -0.12523943637E-01  0.28862464900E-02  0.17130000049E+03  0.17130000000E+03 0. -1.
      622    1    1    2    0    0  0.44505228611E-03  0.19809689953E-01  0.39878170975E+01  0.39880669284E+01  0.40000000000E-01 0. -1.
</event>
<event>
 5   0  0.7212170E+07  0.9118800E+02  0.7818608E-02  0.1180000E+00
       11   -1    0    0    0    0  0.00000000000E+00  0.00000000000E+00  0.39999999673E+01  0.40000000000E+01  0.51109989000E-03 0.  1.
     -623   -1    0    0    0    0  0.00000000000E+00  0.00000000000E+00  0.12525980253E-10  0.17130000000E+03  0.17130000000E+03 0. -1.
       11    1    1    2    0    0  0.36876597222E-04 -0.13198872372E-02  0.57125503930E-03  0.15267670483E-02  0.51109989000E-03 0.  1.
     -623    1    1    2    0    0  0.74841852798E-03  0.14561520726E-02  0.11556519065E-02  0.17130000001E+03  0.17130000000E+03 0. -1.
      622    1    1    2    0    0 -0.78529512521E-03 -0.13626483544E-03  0.39982730605E+01  0.39984732213E+01  0.40000000000E-01 0.  1.
</event>
<event>
 5   0  0.7212170E+07  0.9118800E+02  0.7818608E-02  0.1180000E+00
       11   -1    0    0    0    0  0.00000000000E+00  0.00000000000E+00  0.39999999673E+01  0.40000000000E+01  0.51109989000E-03 0.  1.
     -623   -1    0    0    0    0  0.00000000000E+00  0.00000000000E+00  0.12525980253E-10  0.17130000000E+03  0.17130000000E+03 0. -1.
       11    1    1    2    0    0 -0.87680525415E-04  0.31876772658E-02  0.66727447710E-02  0.74132125359E-02  0.51109989000E-03 0.  1.
     -623    1    1    2    0    0 -0.27379936349E-02  0.47316032548E-02  0.94975566125E-03  0.17130000009E+03  0.17130000000E+03 0. -1.
      622    1    1    2    0    0  0.28256741604E-02 -0.79192805207E-02  0.39923774670E+01  0.39925866977E+01  0.40000000000E-01 0.  1.
</event>
<event>
 5   0  0.7212170E+07  0.9118800E+02  0.7818608E-02  0.1180000E+00
       11   -1    0    0    0    0  0.00000000000E+00  0.00000000000E+00  0.39999999673E+01  0.40000000000E+01  0.51109989000E-03 0.  1.
     -623   -1    0    0    0    0  0.00000000000E+00  0.00000000000E+00  0.12525980253E-10  0.17130000000E+03  0.17130000000E+03 0.  1.
       11    1    1    2    0    0 -0.69640716083E-03 -0.27084987017E-03  0.37589052137E-01  0.37599952211E-01  0.51109989000E-03 0.  1.
     -623    1    1    2    0    0  0.52265665199E-03 -0.33162568434E-03  0.21282127991E-03  0.17130000000E+03  0.17130000000E+03 0.  1.
      622    1    1    2    0    0  0.17375050876E-03  0.60247555456E-03  0.39621980946E+01  0.39624000472E+01  0.40000000000E-01 0.  1.
</event>
<event>
 5   0  0.7212170E+07  0.9118800E+02  0.7818608E-02  0.1180000E+00
       11   -1    0    0    0    0  0.00000000000E+00  0.00000000000E+00  0.39999999673E+01  0.40000000000E+01  0.51109989000E-03 0.  1.
     -623   -1    0    0    0    0  0.00000000000E+00  0.00000000000E+00  0.12525980253E-10  0.17130000000E+03  0.17130000000E+03 0. -1.
       11    1    1    2    0    0 -0.90005802885E-03  0.84860231972E-03  0.40599367530E-02  0.42748730845E-02  0.51109989000E-03 0.  1.
     -623    1    1    2    0    0 -0.15778421126E-02 -0.82246464812E-03  0.41590087041E-03  0.17130000001E+03  0.17130000000E+03 0. -1.
      622    1    1    2    0    0  0.24779001414E-02 -0.26137671632E-04  0.39955241296E+01  0.39957251170E+01  0.40000000000E-01 0.  1.
</event>
<event>
 5   0  0.7212170E+07  0.9118800E+02  0.7818608E-02  0.1180000E+00
       11   -1    0    0    0    0  0.00000000000E+00  0.00000000000E+00  0.39999999673E+01  0.40000000000E+01  0.51109989000E-03 0.  1.
     -623   -1    0    0    0    0  0.00000000000E+00  0.00000000000E+00  0.12525980253E-10  0.17130000000E+03  0.17130000000E+03 0.  1.
       11    1    1    2    0    0  0.10774869128E+00 -0.37821188044E-01  0.25935520906E+01  0.25960648933E+01  0.51109989000E-03 0.  1.
     -623    1    1    2    0    0 -0.60265313479E-01  0.85377213951E-02  0.42028615477E-02  0.17130001087E+03  0.17130000000E+03 0.  1.
      622    1    1    2    0    0 -0.47483377800E-01  0.29283466649E-01  0.14022450153E+01  0.14039242414E+01  0.40000000000E-01 0.  1.
</event>
<event>
 5   0  0.7212170E+07  0.9118800E+02  0.7818608E-02  0.1180000E+00
       11   -1    0    0    0    0  0.00000000000E+00  0.00000000000E+00  0.39999999673E+01  0.40000000000E+01  0.51109989000E-03 0.  1.
     -623   -1    0    0    0    0  0.00000000000E+00  0.00000000000E+00  0.12525980253E-10  0.17130000000E+03  0.17130000000E+03 0. -1.
       11    1    1    2    0    0 -0.54141097363E-02 -0.22281791533E-02  0.57487603457E+00  0.57490607381E+00  0.51109989000E-03 0.  1.
     -623    1    1    2    0    0  0.64279613163E-02  0.22863613845E-02  0.26387144116E-03  0.17130000014E+03  0.17130000000E+03 0. -1.
      622    1    1    2    0    0 -0.10138515804E-02 -0.58182231286E-04  0.34248600616E+01  0.34250937904E+01  0.40000000000E-01 0.  1.
</event>
<event>
 5   0  0.7212170E+07  0.9118800E+02  0.7818608E-02  0.1180000E+00
       11   -1    0    0    0    0  0.00000000000E+00  0.00000000000E+00  0.39999999673E+01  0.40000000000E+01  0.51109989000E-03 0.  1.
     -623   -1    0    0    0    0  0.00000000000E+00  0.00000000000E+00  0.12525980253E-10  0.17130000000E+03  0.17130000000E+03 0.  1.
       11    1    1    2    0    0  0.86454115933E-03 -0.39091563377E-02  0.10504016316E-01  0.11252755954E-01  0.51109989000E-03 0.  1.
     -623    1    1    2    0    0 -0.63383144634E-02 -0.11272396719E-01  0.98241610007E-03  0.17130000049E+03  0.17130000000E+03 0.  1.
      622    1    1    2    0    0  0.54737733040E-02  0.15181553057E-01  0.39885135349E+01  0.39887467530E+01  0.40000000000E-01 0.  1.
</event>
<event>
 5   0  0.7212170E+07  0.9118800E+02  0.7818608E-02  0.1180000E+00
       11   -1    0    0    0    0  0.00000000000E+00  0.00000000000E+00  0.39999999673E+01  0.40000000000E+01  0.51109989000E-03 0. -1.
     -623   -1    0    0    0    0  0.00000000000E+00  0.00000000000E+00  0.12525980253E-10  0.17130000000E+03  0.17130000000E+03 0.  1.
       11    1    1    2    0    0 -0.27799994394E-02  0.48059156312E-02  0.32804989737E-01  0.33275423313E-01  0.51109989000E-03 0. -1.
     -623    1    1    2    0    0  0.49149009057E-02 -0.74409812384E-02  0.67376705470E-03  0.17130000023E+03  0.17130000000E+03 0.  1.
      622    1    1    2    0    0 -0.21349014661E-02  0.26350656069E-02  0.39665212104E+01  0.39667243431E+01  0.40000000000E-01 0. -1.
</event>
<event>
 5   0  0.7212170E+07  0.9118800E+02  0.7818608E-02  0.1180000E+00
       11   -1    0    0    0    0  0.00000000000E+00  0.00000000000E+00  0.39999999673E+01  0.40000000000E+01  0.51109989000E-03 0.  1.
     -623   -1    0    0    0    0  0.00000000000E+00  0.00000000000E+00  0.12525980253E-10  0.17130000000E+03  0.17130000000E+03 0. -1.
       11    1    1    2    0    0  0.57876108773E-02 -0.28143635541E-02  0.18630560985E-02  0.67193216179E-02  0.51109989000E-03 0.  1.
     -623    1    1    2    0    0 -0.10524990475E-01  0.87963142453E-02  0.50644894507E-02  0.17130000062E+03  0.17130000000E+03 0. -1.
      622    1    1    2    0    0  0.47373795980E-02 -0.59819506912E-02  0.39930724218E+01  0.39932800543E+01  0.40000000000E-01 0.  1.
</event>
<event>
 5   0  0.7212170E+07  0.9118800E+02  0.7818608E-02  0.1180000E+00
       11   -1    0    0    0    0  0.00000000000E+00  0.00000000000E+00  0.39999999673E+01  0.40000000000E+01  0.51109989000E-03 0.  1.
     -623   -1    0    0    0    0  0.00000000000E+00  0.00000000000E+00  0.12525980253E-10  0.17130000000E+03  0.17130000000E+03 0.  1.
       11    1    1    2    0    0 -0.38255770164E-02 -0.42424972246E-03  0.30580153877E-01  0.30825672119E-01  0.51109989000E-03 0.  1.
     -623    1    1    2    0    0  0.31100792258E-02 -0.15599810874E-03  0.44717976924E-03  0.17130000003E+03  0.17130000000E+03 0.  1.
      622    1    1    2    0    0  0.71549778993E-03  0.58024783124E-03  0.39689726345E+01  0.39691742998E+01  0.40000000000E-01 0.  1.
</event>
<event>
 5   0  0.7212170E+07  0.9118800E+02  0.7818608E-02  0.1180000E+00
       11   -1    0    0    0    0  0.00000000000E+00  0.00000000000E+00  0.39999999673E+01  0.40000000000E+01  0.51109989000E-03 0.  1.
     -623   -1    0    0    0    0  0.00000000000E+00  0.00000000000E+00  0.12525980253E-10  0.17130000000E+03  0.17130000000E+03 0.  1.
       11    1    1    2    0    0 -0.12768980344E-01  0.39003937084E-02  0.76435369622E+00  0.76447046646E+00  0.51109989000E-03 0.  1.
     -623    1    1    2    0    0 -0.28826008128E-03  0.13271717739E-02  0.39457989399E-03  0.17130000001E+03  0.17130000000E+03 0.  1.
      622    1    1    2    0    0  0.13057240426E-01 -0.52275654824E-02  0.32352516916E+01  0.32355295280E+01  0.40000000000E-01 0.  0.
</event>
<event>
 5   0  0.7212170E+07  0.9118800E+02  0.7818608E-02  0.1180000E+00
       11   -1    0    0    0    0  0.00000000000E+00  0.00000000000E+00  0.39999999673E+01  0.40000000000E+01  0.51109989000E-03 0.  1.
     -623   -1    0    0    0    0  0.00000000000E+00  0.00000000000E+00  0.12525980253E-10  0.17130000000E+03  0.17130000000E+03 0.  1.
       11    1    1    2    0    0  0.59804737958E-03  0.45644757323E-02  0.20222016443E-01  0.20745680791E-01  0.51109989000E-03 0.  1.
     -623    1    1    2    0    0  0.11596440620E-02 -0.29258549725E-02  0.72543554859E-03  0.17130000003E+03  0.17130000000E+03 0.  1.
      622    1    1    2    0    0 -0.17576914417E-02 -0.16386207598E-02  0.39790525155E+01  0.39792542889E+01  0.40000000000E-01 0.  1.
</event>
<event>
 5   0  0.7212170E+07  0.9118800E+02  0.7818608E-02  0.1180000E+00
       11   -1    0    0    0    0  0.00000000000E+00  0.00000000000E+00  0.39999999673E+01  0.40000000000E+01  0.51109989000E-03 0. -1.
     -623   -1    0    0    0    0  0.00000000000E+00  0.00000000000E+00  0.12525980253E-10  0.17130000000E+03  0.17130000000E+03 0. -1.
       11    1    1    2    0    0 -0.27261149274E-02 -0.47081408202E-03  0.31137792499E-01  0.31264623991E-01  0.51109989000E-03 0. -1.
     -623    1    1    2    0    0  0.26092895254E-02  0.29514206519E-02  0.32920212893E-03  0.17130000005E+03  0.17130000000E+03 0. -1.
      622    1    1    2    0    0  0.11682540197E-03 -0.24806065699E-02  0.39685329727E+01  0.39687353304E+01  0.40000000000E-01 0. -1.
</event>
<event>
 5   0  0.7212170E+07  0.9118800E+02  0.7818608E-02  0.1180000E+00
       11   -1    0    0    0    0  0.00000000000E+00  0.00000000000E+00  0.39999999673E+01  0.40000000000E+01  0.51109989000E-03 0.  1.
     -623   -1    0    0    0    0  0.00000000000E+00  0.00000000000E+00  0.12525980253E-10  0.17130000000E+03  0.17130000000E+03 0.  1.
       11    1    1    2    0    0  0.12944304303E-02  0.37510995413E-02  0.82889179184E-01  0.82985682782E-01  0.51109989000E-03 0.  1.
     -623    1    1    2    0    0  0.19240236100E-02 -0.33492455923E-02  0.30210021068E-03  0.17130000004E+03  0.17130000000E+03 0.  1.
      622    1    1    2    0    0 -0.32184540404E-02 -0.40185394894E-03  0.39168086881E+01  0.39170142735E+01  0.40000000000E-01 0.  1.
</event>
<event>
 5   0  0.7212170E+07  0.9118800E+02  0.7818608E-02  0.1180000E+00
       11   -1    0    0    0    0  0.00000000000E+00  0.00000000000E+00  0.39999999673E+01  0.40000000000E+01  0.51109989000E-03 0.  1.
     -623   -1    0    0    0    0  0.00000000000E+00  0.00000000000E+00  0.12525980253E-10  0.17130000000E+03  0.17130000000E+03 0.  1.
       11    1    1    2    0    0 -0.82817537954E-02  0.12626630126E-01  0.17762641468E+01  0.17763284042E+01  0.51109989000E-03 0.  1.
     -623    1    1    2    0    0  0.17011056499E-01 -0.47325396674E-01  0.71932853290E-03  0.17130000738E+03  0.17130000000E+03 0.  1.
      622    1    1    2    0    0 -0.87293027045E-02  0.34698766552E-01  0.22230164924E+01  0.22236642126E+01  0.40000000000E-01 0.  0.
</event>
<event>
 5   0  0.7212170E+07  0.9118800E+02  0.7818608E-02  0.1180000E+00
       11   -1    0    0    0    0  0.00000000000E+00  0.00000000000E+00  0.39999999673E+01  0.40000000000E+01  0.51109989000E-03 0.  1.
     -623   -1    0    0    0    0  0.00000000000E+00  0.00000000000E+00  0.12525980253E-10  0.17130000000E+03  0.17130000000E+03 0.  1.
       11    1    1    2    0    0 -0.10090320045E-01  0.21802033548E-02  0.55216929523E-01  0.56175959042E-01  0.51109989000E-03 0.  1.
     -623    1    1    2    0    0 -0.61124393956E-04  0.25298676630E-02  0.11777520520E-02  0.17130000002E+03  0.17130000000E+03 0.  1.
      622    1    1    2    0    0  0.10151444439E-01 -0.47100710181E-02  0.39436052863E+01  0.39438240187E+01  0.40000000000E-01 0.  1.
</event>
<event>
 5   0  0.7212170E+07  0.9118800E+02  0.7818608E-02  0.1180000E+00
       11   -1    0    0    0    0  0.00000000000E+00  0.00000000000E+00  0.39999999673E+01  0.40000000000E+01  0.51109989000E-03 0.  1.
     -623   -1    0    0    0    0  0.00000000000E+00  0.00000000000E+00  0.12525980253E-10  0.17130000000E+03  0.17130000000E+03 0. -1.
       11    1    1    2    0    0  0.36297512923E-03 -0.47516180694E-03  0.42796487588E+00  0.42796559878E+00  0.51109989000E-03 0.  1.
     -623    1    1    2    0    0 -0.47828953099E-04 -0.18948977425E-02  0.22547015179E-03  0.17130000001E+03  0.17130000000E+03 0. -1.
      622    1    1    2    0    0 -0.31514617614E-03  0.23700595490E-02  0.35718096203E+01  0.35720343896E+01  0.40000000000E-01 0.  1.
</event>
<event>
 5   0  0.7212170E+07  0.9118800E+02  0.7818608E-02  0.1180000E+00
       11   -1    0    0    0    0  0.00000000000E+00  0.00000000000E+00  0.39999999673E+01  0.40000000000E+01  0.51109989000E-03 0.  1.
     -623   -1    0    0    0    0  0.00000000000E+00  0.00000000000E+00  0.12525980253E-10  0.17130000000E+03  0.17130000000E+03 0. -1.
       11    1    1    2    0    0  0.10644874766E-01 -0.13402974804E-02  0.59604458246E-01  0.60564531056E-01  0.51109989000E-03 0.  1.
     -623    1    1    2    0    0  0.19319510198E-01  0.12771501757E-01  0.12952433304E-02  0.17130000157E+03  0.17130000000E+03 0. -1.
      622    1    1    2    0    0 -0.29964384965E-01 -0.11431204277E-01  0.39391002660E+01  0.39394338987E+01  0.40000000000E-01 0.  1.
</event>
<event>
 5   0  0.7212170E+07  0.9118800E+02  0.7818608E-02  0.1180000E+00
       11   -1    0    0    0    0  0.00000000000E+00  0.00000000000E+00  0.39999999673E+01  0.40000000000E+01  0.51109989000E-03 0.  1.
     -623   -1    0    0    0    0  0.00000000000E+00  0.00000000000E+00  0.12525980253E-10  0.17130000000E+03  0.17130000000E+03 0. -1.
       11    1    1    2    0    0 -0.10319715900E-01 -0.50576092460E-03  0.89819383986E+00  0.89825340941E+00  0.51109989000E-03 0.  1.
     -623    1    1    2    0    0  0.97332769035E-03  0.11947896463E-03  0.33157679822E-03  0.17130000000E+03  0.17130000000E+03 0. -1.
      622    1    1    2    0    0  0.93463882098E-02  0.38628195996E-03  0.31014745511E+01  0.31017465878E+01  0.40000000000E-01 0.  1.
</event>
<event>
 5   0  0.7212170E+07  0.9118800E+02  0.7818608E-02  0.1180000E+00
       11   -1    0    0    0    0  0.00000000000E+00  0.00000000000E+00  0.39999999673E+01  0.40000000000E+01  0.51109989000E-03 0.  1.
     -623   -1    0    0    0    0  0.00000000000E+00  0.00000000000E+00  0.12525980253E-10  0.17130000000E+03  0.17130000000E+03 0. -1.
       11    1    1    2    0    0 -0.17025369274E-02 -0.20695166919E-02  0.38115148936E-02  0.46872593495E-02  0.51109989000E-03 0.  1.
     -623    1    1    2    0    0  0.66559762922E-02  0.16053146196E-02  0.10791895032E-02  0.17130000014E+03  0.17130000000E+03 0. -1.
      622    1    1    2    0    0 -0.49534393651E-02  0.46420207225E-03  0.39951092632E+01  0.39953126006E+01  0.40000000000E-01 0.  1.
</event>
<event>
 5   0  0.7212170E+07  0.9118800E+02  0.7818608E-02  0.1180000E+00
       11   -1    0    0    0    0  0.00000000000E+00  0.00000000000E+00  0.39999999673E+01  0.40000000000E+01  0.51109989000E-03 0. -1.
     -623   -1    0    0    0    0  0.00000000000E+00  0.00000000000E+00  0.12525980253E-10  0.17130000000E+03  0.17130000000E+03 0. -1.
       11    1    1    2    0    0 -0.48412744989E-02  0.96940007988E-02  0.12509405770E+01  0.12509876098E+01  0.51109989000E-03 0. -1.
     -623    1    1    2    0    0 -0.20989275445E-02  0.20760061535E-03  0.36463838061E-03  0.17130000001E+03  0.17130000000E+03 0. -1.
      622    1    1    2    0    0  0.69402020434E-02 -0.99016014141E-02  0.27486947522E+01  0.27490123770E+01  0.40000000000E-01 0. -1.
</event>
<event>
 5   0  0.7212170E+07  0.9118800E+02  0.7818608E-02  0.1180000E+00
       11   -1    0    0    0    0  0.00000000000E+00  0.00000000000E+00  0.39999999673E+01  0.40000000000E+01  0.51109989000E-03 0.  1.
     -623   -1    0    0    0    0  0.00000000000E+00  0.00000000000E+00  0.12525980253E-10  0.17130000000E+03  0.17130000000E+03 0.  1.
       11    1    1    2    0    0  0.64936921097E-02  0.85630061151E-02  0.58824105200E-01  0.59799913768E-01  0.51109989000E-03 0.  1.
     -623    1    1    2    0    0  0.62494800791E-02 -0.14014600396E-02  0.12060568981E-02  0.17130000012E+03  0.17130000000E+03 0.  1.
      622    1    1    2    0    0 -0.12743172189E-01 -0.71615460755E-02  0.39399698055E+01  0.39401999625E+01  0.40000000000E-01 0.  1.
</event>
<event>
 5   0  0.7212170E+07  0.9118800E+02  0.7818608E-02  0.1180000E+00
       11   -1    0    0    0    0  0.00000000000E+00  0.00000000000E+00  0.39999999673E+01  0.40000000000E+01  0.51109989000E-03 0.  1.
     -623   -1    0    0    0    0  0.00000000000E+00  0.00000000000E+00  0.12525980253E-10  0.17130000000E+03  0.17130000000E+03 0.  1.
       11    1    1    2    0    0 -0.23008006666E-01  0.15105601870E-02  0.23069642420E+01  0.23070795229E+01  0.51109989000E-03 0.  1.
     -623    1    1    2    0    0 -0.13013382563E-02  0.33118622174E-02  0.76937203496E-03  0.17130000004E+03  0.17130000000E+03 0.  1.
      622    1    1    2    0    0  0.24309344923E-01 -0.48224224049E-02  0.16922663539E+01  0.16929204390E+01  0.40000000000E-01 0. -1.
</event>
<event>
 5   0  0.7212170E+07  0.9118800E+02  0.7818608E-02  0.1180000E+00
       11   -1    0    0    0    0  0.00000000000E+00  0.00000000000E+00  0.39999999673E+01  0.40000000000E+01  0.51109989000E-03 0.  1.
     -623   -1    0    0    0    0  0.00000000000E+00  0.00000000000E+00  0.12525980253E-10  0.17130000000E+03  0.17130000000E+03 0.  1.
       11    1    1    2    0    0  0.17683908089E-02 -0.21249035545E-02  0.12826520166E-01  0.13131003916E-01  0.51109989000E-03 0.  1.
     -623    1    1    2    0    0 -0.10095598631E-01 -0.42661632431E-02  0.51928589384E-03  0.17130000035E+03  0.17130000000E+03 0.  1.
      622    1    1    2    0    0  0.83272078207E-02  0.63910667969E-02  0.39866541607E+01  0.39868686440E+01  0.40000000000E-01 0.  1.
</event>
<event>
 5   0  0.7212170E+07  0.9118800E+02  0.7818608E-02  0.1180000E+00
       11   -1    0    0    0    0  0.00000000000E+00  0.00000000000E+00  0.39999999673E+01  0.40000000000E+01  0.51109989000E-03 0.  1.
     -623   -1    0    0    0    0  0.00000000000E+00  0.00000000000E+00  0.12525980253E-10  0.17130000000E+03  0.17130000000E+03 0.  1.
       11    1    1    2    0    0 -0.17521522237E-03  0.13745062568E-02  0.13078867808E-02  0.19727541035E-02  0.51109989000E-03 0.  1.
     -623    1    1    2    0    0  0.57583552135E-03  0.41085037676E-04  0.86521223105E-03  0.17130000000E+03  0.17130000000E+03 0.  1.
      622    1    1    2    0    0 -0.40062029901E-03 -0.14155912945E-02  0.39978268686E+01  0.39980272429E+01  0.40000000000E-01 0.  1.
</event>
<event>
 5   0  0.7212170E+07  0.9118800E+02  0.7818608E-02  0.1180000E+00
       11   -1    0    0    0    0  0.00000000000E+00  0.00000000000E+00  0.39999999673E+01  0.40000000000E+01  0.51109989000E-03 0.  1.
     -623   -1    0    0    0    0  0.00000000000E+00  0.00000000000E+00  0.12525980253E-10  0.17130000000E+03  0.17130000000E+03 0.  1.
       11    1    1    2    0    0 -0.42180122932E-03  0.66272832170E-03  0.45601037453E-04  0.93831106655E-03  0.51109989000E-03 0. -1.
     -623    1    1    2    0    0 -0.64905144389E-03  0.51393736884E-03  0.10930513059E-02  0.17130000001E+03  0.17130000000E+03 0.  1.
      622    1    1    2    0    0  0.10708526733E-02 -0.11766656906E-02  0.39988613153E+01  0.39990616838E+01  0.40000000000E-01 0.  1.
</event>
<event>
 5   0  0.7212170E+07  0.9118800E+02  0.7818608E-02  0.1180000E+00
       11   -1    0    0    0    0  0.00000000000E+00  0.00000000000E+00  0.39999999673E+01  0.40000000000E+01  0.51109989000E-03 0. -1.
     -623   -1    0    0    0    0  0.00000000000E+00  0.00000000000E+00  0.12525980253E-10  0.17130000000E+03  0.17130000000E+03 0.  1.
       11    1    1    2    0    0 -0.11952438813E-02 -0.90489647195E-04  0.12301204172E-02  0.17919865096E-02  0.51109989000E-03 0. -1.
     -623    1    1    2    0    0  0.27049692794E-02 -0.22090374054E-02  0.76291175807E-03  0.17130000004E+03  0.17130000000E+03 0.  1.
      622    1    1    2    0    0 -0.15097253985E-02  0.22995270529E-02  0.39980069357E+01  0.39982079767E+01  0.40000000000E-01 0. -1.
</event>
<event>
 5   0  0.7212170E+07  0.9118800E+02  0.7818608E-02  0.1180000E+00
       11   -1    0    0    0    0  0.00000000000E+00  0.00000000000E+00  0.39999999673E+01  0.40000000000E+01  0.51109989000E-03 0. -1.
     -623   -1    0    0    0    0  0.00000000000E+00  0.00000000000E+00  0.12525980253E-10  0.17130000000E+03  0.17130000000E+03 0. -1.
       11    1    1    2    0    0 -0.20339438463E-02  0.11744502363E-01  0.42420099826E+00  0.42436872930E+00  0.51109989000E-03 0. -1.
     -623    1    1    2    0    0 -0.35822443387E-02 -0.14752464338E-02  0.41064501753E-03  0.17130000004E+03  0.17130000000E+03 0. -1.
      622    1    1    2    0    0  0.56161881850E-02 -0.10269255929E-01  0.35753883241E+01  0.35756312264E+01  0.40000000000E-01 0. -1.
</event>
<event>
 5   0  0.7212170E+07  0.9118800E+02  0.7818608E-02  0.1180000E+00
       11   -1    0    0    0    0  0.00000000000E+00  0.00000000000E+00  0.39999999673E+01  0.40000000000E+01  0.51109989000E-03 0. -1.
     -623   -1    0    0    0    0  0.00000000000E+00  0.00000000000E+00  0.12525980253E-10  0.17130000000E+03  0.17130000000E+03 0.  1.
       11    1    1    2    0    0 -0.18696034074E-02 -0.31369790067E-02  0.29723836520E-01  0.29951690015E-01  0.51109989000E-03 0. -1.
     -623    1    1    2    0    0  0.13365214766E-02  0.32555406201E-03  0.43037222652E-03  0.17130000001E+03  0.17130000000E+03 0.  1.
      622    1    1    2    0    0  0.53308193075E-03  0.28114249446E-02  0.39698457588E+01  0.39700483041E+01  0.40000000000E-01 0. -1.
</event>
<event>
 5   0  0.7212170E+07  0.9118800E+02  0.7818608E-02  0.1180000E+00
       11   -1    0    0    0    0  0.00000000000E+00  0.00000000000E+00  0.39999999673E+01  0.40000000000E+01  0.51109989000E-03 0. -1.
     -623   -1    0    0    0    0  0.00000000000E+00  0.00000000000E+00  0.12525980253E-10  0.17130000000E+03  0.17130000000E+03 0.  1.
       11    1    1    2    0    0  0.89314938698E-04  0.55402909116E-02  0.49814643778E-01  0.50124472649E-01  0.51109989000E-03 0. -1.
     -623    1    1    2    0    0 -0.47540208745E-02 -0.55469791323E-02  0.51525061297E-03  0.17130000016E+03  0.17130000000E+03 0.  1.
      622    1    1    2    0    0  0.46647059366E-02  0.66882215971E-05  0.39496700736E+01  0.39498753715E+01  0.40000000000E-01 0. -1.
</event>
<event>
 5   0  0.7212170E+07  0.9118800E+02  0.7818608E-02  0.1180000E+00
       11   -1    0    0    0    0  0.00000000000E+00  0.00000000000E+00  0.39999999673E+01  0.40000000000E+01  0.51109989000E-03 0.  1.
     -623   -1    0    0    0    0  0.00000000000E+00  0.00000000000E+00  0.12525980253E-10  0.17130000000E+03  0.17130000000E+03 0. -1.
       11    1    1    2    0    0 -0.43511872754E-02 -0.18365828534E-02  0.87895647748E-01  0.88023928471E-01  0.51109989000E-03 0.  1.
     -623    1    1    2    0    0  0.69425512042E-04  0.27767331094E-03  0.33540822463E-03  0.17130000000E+03  0.17130000000E+03 0. -1.
      622    1    1    2    0    0  0.42817617633E-02  0.15589095424E-02  0.39117689124E+01  0.39119760719E+01  0.40000000000E-01 0.  1.
</event>
<event>
 5   0  0.7212170E+07  0.9118800E+02  0.7818608E-02  0.1180000E+00
       11   -1    0    0    0    0  0.00000000000E+00  0.00000000000E+00  0.39999999673E+01  0.40000000000E+01  0.51109989000E-03 0.  1.
     -623   -1    0    0    0    0  0.00000000000E+00  0.00000000000E+00  0.12525980253E-10  0.17130000000E+03  0.17130000000E+03 0.  1.
       11    1    1    2    0    0  0.39774280098E-03 -0.46472789754E-03  0.10793120177E-02  0.13417558957E-02  0.51109989000E-03 0.  1.
     -623    1    1    2    0    0 -0.56609006853E-03 -0.26118005899E-03  0.46255454968E-03  0.17130000000E+03  0.17130000000E+03 0.  1.
      622    1    1    2    0    0  0.16834726756E-03  0.72590795654E-03  0.39984581009E+01  0.39986582424E+01  0.40000000000E-01 0.  1.
</event>
<event>
 5   0  0.7212170E+07  0.9118800E+02  0.7818608E-02  0.1180000E+00
       11   -1    0    0    0    0  0.00000000000E+00  0.00000000000E+00  0.39999999673E+01  0.40000000000E+01  0.51109989000E-03 0.  1.
     -623   -1    0    0    0    0  0.00000000000E+00  0.00000000000E+00  0.12525980253E-10  0.17130000000E+03  0.17130000000E+03 0.  1.
       11    1    1    2    0    0 -0.25490583549E-01  0.16171384537E-02  0.28345735803E+01  0.28346887004E+01  0.51109989000E-03 0.  1.
     -623    1    1    2    0    0  0.39349212297E-02  0.43381980048E-02  0.10166344783E-02  0.17130000010E+03  0.17130000000E+03 0.  1.
      622    1    1    2    0    0  0.21555662318E-01 -0.59553364590E-02  0.11644097530E+01  0.11653111969E+01  0.40000000000E-01 0.  1.
</event>
<event>
 5   0  0.7212170E+07  0.9118800E+02  0.7818608E-02  0.1180000E+00
       11   -1    0    0    0    0  0.00000000000E+00  0.00000000000E+00  0.39999999673E+01  0.40000000000E+01  0.51109989000E-03 0. -1.
     -623   -1    0    0    0    0  0.00000000000E+00  0.00000000000E+00  0.12525980253E-10  0.17130000000E+03  0.17130000000E+03 0. -1.
       11    1    1    2    0    0 -0.80112144505E-01  0.75200791193E-01  0.13133529141E+01  0.13179412934E+01  0.51109989000E-03 0. -1.
     -623    1    1    2    0    0  0.10910877127E-01 -0.31996097652E-01  0.61312515601E-02  0.17130000345E+03  0.17130000000E+03 0. -1.
      622    1    1    2    0    0  0.69201267377E-01 -0.43204693540E-01  0.26805158018E+01  0.26820552613E+01  0.40000000000E-01 0. -1.
</event>
<event>
 5   0  0.7212170E+07  0.9118800E+02  0.7818608E-02  0.1180000E+00
       11   -1    0    0    0    0  0.00000000000E+00  0.00000000000E+00  0.39999999673E+01  0.40000000000E+01  0.51109989000E-03 0. -1.
     -623   -1    0    0    0    0  0.00000000000E+00  0.00000000000E+00  0.12525980253E-10  0.17130000000E+03  0.17130000000E+03 0. -1.
       11    1    1    2    0    0  0.25642321241E-02 -0.83720300330E-02  0.50278647132E-01  0.51037924662E-01  0.51109989000E-03 0. -1.
     -623    1    1    2    0    0  0.37992573325E-02  0.33918548561E-02  0.97018136776E-03  0.17130000008E+03  0.17130000000E+03 0. -1.
      622    1    1    2    0    0 -0.63634894569E-02  0.49801751766E-02  0.39487511393E+01  0.39489619973E+01  0.40000000000E-01 0. -1.
</event>
<event>
 5   0  0.7212170E+07  0.9118800E+02  0.7818608E-02  0.1180000E+00
       11   -1    0    0    0    0  0.00000000000E+00  0.00000000000E+00  0.39999999673E+01  0.40000000000E+01  0.51109989000E-03 0.  1.
     -623   -1    0    0    0    0  0.00000000000E+00  0.00000000000E+00  0.12525980253E-10  0.17130000000E+03  0.17130000000E+03 0.  1.
       11    1    1    2    0    0  0.51272690641E-02 -0.86704326118E-02  0.10129427794E+01  0.10129929915E+01  0.51109989000E-03 0.  1.
     -623    1    1    2    0    0 -0.52816913975E-02  0.14110975199E-01  0.32364024528E-03  0.17130000066E+03  0.17130000000E+03 0.  1.
      622    1    1    2    0    0  0.15442233493E-03 -0.54405425916E-02  0.29867335489E+01  0.29870063467E+01  0.40000000000E-01 0.  1.
</event>
<event>
 5   0  0.7212170E+07  0.9118800E+02  0.7818608E-02  0.1180000E+00
       11   -1    0    0    0    0  0.00000000000E+00  0.00000000000E+00  0.39999999673E+01  0.40000000000E+01  0.51109989000E-03 0. -1.
     -623   -1    0    0    0    0  0.00000000000E+00  0.00000000000E+00  0.12525980253E-10  0.17130000000E+03  0.17130000000E+03 0. -1.
       11    1    1    2    0    0  0.29595297516E-02 -0.74406653349E-02  0.16623812172E+00  0.16643165761E+00  0.51109989000E-03 0. -1.
     -623    1    1    2    0    0  0.81993513250E-03  0.10040427271E-02  0.40946423914E-03  0.17130000001E+03  0.17130000000E+03 0. -1.
      622    1    1    2    0    0 -0.37794648840E-02  0.64366226080E-02  0.38333523808E+01  0.38335683364E+01  0.40000000000E-01 0. -1.
</event>
<event>
 5   0  0.7212170E+07  0.9118800E+02  0.7818608E-02  0.1180000E+00
       11   -1    0    0    0    0  0.00000000000E+00  0.00000000000E+00  0.39999999673E+01  0.40000000000E+01  0.51109989000E-03 0. -1.
     -623   -1    0    0    0    0  0.00000000000E+00  0.00000000000E+00  0.12525980253E-10  0.17130000000E+03  0.17130000000E+03 0.  1.
       11    1    1    2    0    0 -0.63692772566E-02  0.49477579134E-03  0.23245906459E+00  0.23254739394E+00  0.51109989000E-03 0. -1.
     -623    1    1    2    0    0 -0.84492017852E-03 -0.11589812933E-02  0.30762013934E-03  0.17130000001E+03  0.17130000000E+03 0.  1.
      622    1    1    2    0    0  0.72141974352E-02  0.66420550216E-03  0.37672332832E+01  0.37674526004E+01  0.40000000000E-01 0. -1.
</event>
<event>
 5   0  0.7212170E+07  0.9118800E+02  0.7818608E-02  0.1180000E+00
       11   -1    0    0    0    0  0.00000000000E+00  0.00000000000E+00  0.39999999673E+01  0.40000000000E+01  0.51109989000E-03 0.  1.
     -623   -1    0    0    0    0  0.00000000000E+00  0.00000000000E+00  0.12525980253E-10  0.17130000000E+03  0.17130000000E+03 0. -1.
       11    1    1    2    0    0  0.61449420066E-02  0.21864962552E-02  0.12350541506E+00  0.12367857474E+00  0.51109989000E-03 0.  1.
     -623    1    1    2    0    0  0.17458486862E-03  0.54028210160E-03  0.38562587528E-03  0.17130000000E+03  0.17130000000E+03 0. -1.
      622    1    1    2    0    0 -0.63195268752E-02 -0.27267783568E-02  0.38761089264E+01  0.38763214238E+01  0.40000000000E-01 0.  1.
</event>
<event>
 5   0  0.7212170E+07  0.9118800E+02  0.7818608E-02  0.1180000E+00
       11   -1    0    0    0    0  0.00000000000E+00  0.00000000000E+00  0.39999999673E+01  0.40000000000E+01  0.51109989000E-03 0. -1.
     -623   -1    0    0    0    0  0.00000000000E+00  0.00000000000E+00  0.12525980253E-10  0.17130000000E+03  0.17130000000E+03 0. -1.
       11    1    1    2    0    0  0.35942092354E-02  0.17932531566E-02  0.82788381202E-02  0.92159904855E-02  0.51109989000E-03 0. -1.
     -623    1    1    2    0    0 -0.12706549747E-04 -0.23491719314E-02  0.11392524226E-02  0.17130000002E+03  0.17130000000E+03 0. -1.
      622    1    1    2    0    0 -0.35815026857E-02  0.55591877487E-03  0.39905818770E+01  0.39907839898E+01  0.40000000000E-01 0. -1.
</event>
<event>
 5   0  0.7212170E+07  0.9118800E+02  0.7818608E-02  0.1180000E+00
       11   -1    0    0    0    0  0.00000000000E+00  0.00000000000E+00  0.39999999673E+01  0.40000000000E+01  0.51109989000E-03 0.  1.
     -623   -1    0    0    0    0  0.00000000000E+00  0.00000000000E+00  0.12525980253E-10  0.17130000000E+03  0.17130000000E+03 0.  1.
       11    1    1    2    0    0 -0.41780785253E-01 -0.27728051465E-01  0.23584983773E+01  0.23590314402E+01  0.51109989000E-03 0.  1.
     -623    1    1    2    0    0  0.15665154557E-02 -0.44870180834E-02  0.18301084439E-02  0.17130000008E+03  0.17130000000E+03 0.  1.
      622    1    1    2    0    0  0.40214269797E-01  0.32215069548E-01  0.16396714817E+01  0.16409684842E+01  0.40000000000E-01 0.  1.
</event>
<event>
 5   0  0.7212170E+07  0.9118800E+02  0.7818608E-02  0.1180000E+00
       11   -1    0    0    0    0  0.00000000000E+00  0.00000000000E+00  0.39999999673E+01  0.40000000000E+01  0.51109989000E-03 0. -1.
     -623   -1    0    0    0    0  0.00000000000E+00  0.00000000000E+00  0.12525980253E-10  0.17130000000E+03  0.17130000000E+03 0. -1.
       11    1    1    2    0    0  0.31736659657E-01  0.20801516188E-01  0.38169411546E+00  0.38357603893E+00  0.51109989000E-03 0. -1.
     -623    1    1    2    0    0 -0.23881412919E-02  0.28530602834E-02  0.22996312497E-02  0.17130000006E+03  0.17130000000E+03 0. -1.
      622    1    1    2    0    0 -0.29348518365E-01 -0.23654576472E-01  0.36160062207E+01  0.36164239053E+01  0.40000000000E-01 0. -1.
</event>
<event>
 5   0  0.7212170E+07  0.9118800E+02  0.7818608E-02  0.1180000E+00
       11   -1    0    0    0    0  0.00000000000E+00  0.00000000000E+00  0.39999999673E+01  0.40000000000E+01  0.51109989000E-03 0. -1.
     -623   -1    0    0    0    0  0.00000000000E+00  0.00000000000E+00  0.12525980253E-10  0.17130000000E+03  0.17130000000E+03 0.  1.
       11    1    1    2    0    0 -0.34692494095E-02 -0.75516874853E-03  0.95845093232E+00  0.95845764479E+00  0.51109989000E-03 0. -1.
     -623    1    1    2    0    0  0.58908554231E-03 -0.19509419839E-03  0.27122924192E-03  0.17130000000E+03  0.17130000000E+03 0.  1.
      622    1    1    2    0    0  0.28801638672E-02  0.95026294690E-03  0.30412778056E+01  0.30415423537E+01  0.40000000000E-01 0. -1.
</event>
<event>
 5   0  0.7212170E+07  0.9118800E+02  0.7818608E-02  0.1180000E+00
       11   -1    0    0    0    0  0.00000000000E+00  0.00000000000E+00  0.39999999673E+01  0.40000000000E+01  0.51109989000E-03 0. -1.
     -623   -1    0    0    0    0  0.00000000000E+00  0.00000000000E+00  0.12525980253E-10  0.17130000000E+03  0.17130000000E+03 0. -1.
       11    1    1    2    0    0 -0.32251894706E-02  0.37654614512E-02  0.17153054366E-01  0.17862503862E-01  0.51109989000E-03 0. -1.
     -623    1    1    2    0    0 -0.16402735188E-02 -0.96442357669E-03  0.91428975681E-03  0.17130000001E+03  0.17130000000E+03 0. -1.
      622    1    1    2    0    0  0.48654629893E-02 -0.28010378746E-02  0.39819326228E+01  0.39821374827E+01  0.40000000000E-01 0. -1.
</event>
<event>
 5   0  0.7212170E+07  0.9118800E+02  0.7818608E-02  0.1180000E+00
       11   -1    0    0    0    0  0.00000000000E+00  0.00000000000E+00  0.39999999673E+01  0.40000000000E+01  0.51109989000E-03 0.  1.
     -623   -1    0    0    0    0  0.00000000000E+00  0.00000000000E+00  0.12525980253E-10  0.17130000000E+03  0.17130000000E+03 0. -1.
       11    1    1    2    0    0 -0.52841285806E-03 -0.12270481253E-02  0.41429671268E-02  0.43829518548E-02  0.51109989000E-03 0.  1.
     -623    1    1    2    0    0  0.72199326230E-03  0.30132063809E-03  0.44029077889E-03  0.17130000000E+03  0.17130000000E+03 0. -1.
      622    1    1    2    0    0 -0.19358040431E-03  0.92572748715E-03  0.39954167098E+01  0.39956170462E+01  0.40000000000E-01 0.  1.
</event>
<event>
 5   0  0.7212170E+07  0.9118800E+02  0.7818608E-02  0.1180000E+00
       11   -1    0    0    0    0  0.00000000000E+00  0.00000000000E+00  0.39999999673E+01  0.40000000000E+01  0.51109989000E-03 0.  1.
     -623   -1    0    0    0    0  0.00000000000E+00  0.00000000000E+00  0.12525980253E-10  0.17130000000E+03  0.17130000000E+03 0. -1.
       11    1    1    2    0    0  0.74308124585E-03  0.19697399188E-02  0.17073925292E-02  0.27583432404E-02  0.51109989000E-03 0.  1.
     -623    1    1    2    0    0  0.19278092186E-03 -0.19721192974E-02  0.12511866864E-02  0.17130000002E+03  0.17130000000E+03 0. -1.
      622    1    1    2    0    0 -0.93586216771E-03  0.23793785520E-05  0.39970413882E+01  0.39972416408E+01  0.40000000000E-01 0.  1.
</event>
<event>
 5   0  0.7212170E+07  0.9118800E+02  0.7818608E-02  0.1180000E+00
       11   -1    0    0    0    0  0.00000000000E+00  0.00000000000E+00  0.39999999673E+01  0.40000000000E+01  0.51109989000E-03 0.  1.
     -623   -1    0    0    0    0  0.00000000000E+00  0.00000000000E+00  0.12525980253E-10  0.17130000000E+03  0.17130000000E+03 0.  1.
       11    1    1    2    0    0 -0.51697158884E-01  0.10288456244E+00  0.63427077871E+00  0.64463750385E+00  0.51109989000E-03 0.  1.
     -623    1    1    2    0    0  0.30998855614E-01  0.12270100907E-01  0.12649476093E-01  0.17130000371E+03  0.17130000000E+03 0.  1.
      622    1    1    2    0    0  0.20698303269E-01 -0.11515466334E+00  0.33530797125E+01  0.33553587848E+01  0.40000000000E-01 0.  1.
</event>
<event>
 5   0  0.7212170E+07  0.9118800E+02  0.7818608E-02  0.1180000E+00
       11   -1    0    0    0    0  0.00000000000E+00  0.00000000000E+00  0.39999999673E+01  0.40000000000E+01  0.51109989000E-03 0.  1.
     -623   -1    0    0    0    0  0.00000000000E+00  0.00000000000E+00  0.12525980253E-10  0.17130000000E+03  0.17130000000E+03 0. -1.
       11    1    1    2    0    0  0.28937393892E-01 -0.24739507432E-01  0.15965081685E+01  0.15969621189E+01  0.51109989000E-03 0.  1.
     -623    1    1    2    0    0 -0.42306054541E-02  0.35566134370E-02  0.10073608892E-02  0.17130000009E+03  0.17130000000E+03 0. -1.
      622    1    1    2    0    0 -0.24706788438E-01  0.21182893995E-01  0.24024844379E+01  0.24030377889E+01  0.40000000000E-01 0.  0.
</event>
<event>
 5   0  0.7212170E+07  0.9118800E+02  0.7818608E-02  0.1180000E+00
       11   -1    0    0    0    0  0.00000000000E+00  0.00000000000E+00  0.39999999673E+01  0.40000000000E+01  0.51109989000E-03 0. -1.
     -623   -1    0    0    0    0  0.00000000000E+00  0.00000000000E+00  0.12525980253E-10  0.17130000000E+03  0.17130000000E+03 0. -1.
       11    1    1    2    0    0  0.10540417022E-02 -0.15762305558E-04  0.30041854318E-02  0.32245318368E-02  0.51109989000E-03 0. -1.
     -623    1    1    2    0    0 -0.11666719061E-02 -0.13471518087E-02  0.42072389904E-03  0.17130000001E+03  0.17130000000E+03 0. -1.
      622    1    1    2    0    0  0.11263020391E-03  0.13629141143E-02  0.39965750581E+01  0.39967754585E+01  0.40000000000E-01 0. -1.
</event>
<event>
 5   0  0.7212170E+07  0.9118800E+02  0.7818608E-02  0.1180000E+00
       11   -1    0    0    0    0  0.00000000000E+00  0.00000000000E+00  0.39999999673E+01  0.40000000000E+01  0.51109989000E-03 0.  1.
     -623   -1    0    0    0    0  0.00000000000E+00  0.00000000000E+00  0.12525980253E-10  0.17130000000E+03  0.17130000000E+03 0.  1.
       11    1    1    2    0    0 -0.21476887049E-02 -0.18655645671E-02  0.27396951310E-01  0.27548993850E-01  0.51109989000E-03 0.  1.
     -623    1    1    2    0    0  0.25516409030E-02  0.44023328106E-02  0.35430850856E-03  0.17130000008E+03  0.17130000000E+03 0.  1.
      622    1    1    2    0    0 -0.40395219794E-03 -0.25367682432E-02  0.39722487073E+01  0.39724509300E+01  0.40000000000E-01 0.  1.
</event>
<event>
 5   0  0.7212170E+07  0.9118800E+02  0.7818608E-02  0.1180000E+00
       11   -1    0    0    0    0  0.00000000000E+00  0.00000000000E+00  0.39999999673E+01  0.40000000000E+01  0.51109989000E-03 0. -1.
     -623   -1    0    0    0    0  0.00000000000E+00  0.00000000000E+00  0.12525980253E-10  0.17130000000E+03  0.17130000000E+03 0. -1.
       11    1    1    2    0    0  0.43573452967E-02 -0.34915993042E-01  0.11622058459E+01  0.11627384928E+01  0.51109989000E-03 0. -1.
     -623    1    1    2    0    0 -0.65823536923E-03  0.92881771814E-03  0.10206002971E-02  0.17130000001E+03  0.17130000000E+03 0. -1.
      622    1    1    2    0    0 -0.36991099274E-02  0.33987175324E-01  0.28367735213E+01  0.28372615005E+01  0.40000000000E-01 0.  0.
</event>
<event>
 5   0  0.7212170E+07  0.9118800E+02  0.7818608E-02  0.1180000E+00
       11   -1    0    0    0    0  0.00000000000E+00  0.00000000000E+00  0.39999999673E+01  0.40000000000E+01  0.51109989000E-03 0. -1.
     -623   -1    0    0    0    0  0.00000000000E+00  0.00000000000E+00  0.12525980253E-10  0.17130000000E+03  0.17130000000E+03 0. -1.
       11    1    1    2    0    0 -0.43139506832E-02 -0.29649523849E-01  0.23395670549E+00  0.23586798363E+00  0.51109989000E-03 0. -1.
     -623    1    1    2    0    0  0.35717960237E-02  0.66974354028E-02  0.21940199722E-02  0.17130000018E+03  0.17130000000E+03 0. -1.
      622    1    1    2    0    0  0.74215465970E-03  0.22952088447E-01  0.37638492417E+01  0.37641318340E+01  0.40000000000E-01 0. -1.
</event>
<event>
 5   0  0.7212170E+07  0.9118800E+02  0.7818608E-02  0.1180000E+00
       11   -1    0    0    0    0  0.00000000000E+00  0.00000000000E+00  0.39999999673E+01  0.40000000000E+01  0.51109989000E-03 0. -1.
     -623   -1    0    0    0    0  0.00000000000E+00  0.00000000000E+00  0.12525980253E-10  0.17130000000E+03  0.17130000000E+03 0.  1.
       11    1    1    2    0    0  0.25448407451E-03 -0.14625232079E-03  0.43079593130E-04  0.59095755721E-03  0.51109989000E-03 0.  1.
     -623    1    1    2    0    0 -0.11705254429E-03 -0.16503445437E-03  0.74789610705E-03  0.17130000000E+03  0.17130000000E+03 0.  1.
      622    1    1    2    0    0 -0.13743153021E-03  0.31128677518E-03  0.39992089920E+01  0.39994090410E+01  0.40000000000E-01 0. -1.
</event>
<event>
 5   0  0.7212170E+07  0.9118800E+02  0.7818608E-02  0.1180000E+00
       11   -1    0    0    0    0  0.00000000000E+00  0.00000000000E+00  0.39999999673E+01  0.40000000000E+01  0.51109989000E-03 0. -1.
     -623   -1    0    0    0    0  0.00000000000E+00  0.00000000000E+00  0.12525980253E-10  0.17130000000E+03  0.17130000000E+03 0.  1.
       11    1    1    2    0    0  0.28955098665E-02  0.43711838154E-03  0.48802791244E-01  0.48893237837E-01  0.51109989000E-03 0. -1.
     -623    1    1    2    0    0  0.14858460555E-05  0.34232752336E-03  0.29403364397E-03  0.17130000000E+03  0.17130000000E+03 0.  1.
      622    1    1    2    0    0 -0.28969957125E-02 -0.77944590492E-03  0.39509031427E+01  0.39511067618E+01  0.40000000000E-01 0. -1.
</event>
<event>
 5   0  0.7212170E+07  0.9118800E+02  0.7818608E-02  0.1180000E+00
       11   -1    0    0    0    0  0.00000000000E+00  0.00000000000E+00  0.39999999673E+01  0.40000000000E+01  0.51109989000E-03 0. -1.
     -623   -1    0    0    0    0  0.00000000000E+00  0.00000000000E+00  0.12525980253E-10  0.17130000000E+03  0.17130000000E+03 0.  1.
       11    1    1    2    0    0 -0.22410944948E-02 -0.10627320189E-02  0.85508250294E+00  0.85508625293E+00  0.51109989000E-03 0. -1.
     -623    1    1    2    0    0 -0.14564987711E-02 -0.17458516820E-02  0.26155002026E-03  0.17130000002E+03  0.17130000000E+03 0.  1.
      622    1    1    2    0    0  0.36975932658E-02  0.28085837006E-02  0.31446559139E+01  0.31449137313E+01  0.40000000000E-01 0.  0.
</event>
<event>
 5   0  0.7212170E+07  0.9118800E+02  0.7818608E-02  0.1180000E+00
       11   -1    0    0    0    0  0.00000000000E+00  0.00000000000E+00  0.39999999673E+01  0.40000000000E+01  0.51109989000E-03 0.  1.
     -623   -1    0    0    0    0  0.00000000000E+00  0.00000000000E+00  0.12525980253E-10  0.17130000000E+03  0.17130000000E+03 0.  1.
       11    1    1    2    0    0  0.28731795133E-02  0.58382596217E-01  0.12454927554E+01  0.12468637647E+01  0.51109989000E-03 0.  1.
     -623    1    1    2    0    0  0.11225360843E-02 -0.56670122967E-02  0.21693657564E-02  0.17130000011E+03  0.17130000000E+03 0.  1.
      622    1    1    2    0    0 -0.39957155975E-02 -0.52715583920E-01  0.27523378462E+01  0.27531361242E+01  0.40000000000E-01 0.  1.
</event>
<event>
 5   0  0.7212170E+07  0.9118800E+02  0.7818608E-02  0.1180000E+00
       11   -1    0    0    0    0  0.00000000000E+00  0.00000000000E+00  0.39999999673E+01  0.40000000000E+01  0.51109989000E-03 0. -1.
     -623   -1    0    0    0    0  0.00000000000E+00  0.00000000000E+00  0.12525980253E-10  0.17130000000E+03  0.17130000000E+03 0.  1.
       11    1    1    2    0    0 -0.19344468621E-02  0.27044931998E-02  0.11278234288E-01  0.11769288843E-01  0.51109989000E-03 0. -1.
     -623    1    1    2    0    0  0.10100893834E-01 -0.12948173925E-01  0.71392328867E-03  0.17130000079E+03  0.17130000000E+03 0.  1.
      622    1    1    2    0    0 -0.81664469729E-02  0.10243680727E-01  0.39880078103E+01  0.39882299230E+01  0.40000000000E-01 0. -1.
</event>
<event>
 5   0  0.7212170E+07  0.9118800E+02  0.7818608E-02  0.1180000E+00
       11   -1    0    0    0    0  0.00000000000E+00  0.00000000000E+00  0.39999999673E+01  0.40000000000E+01  0.51109989000E-03 0. -1.
     -623   -1    0    0    0    0  0.00000000000E+00  0.00000000000E+00  0.12525980253E-10  0.17130000000E+03  0.17130000000E+03 0.  1.
       11    1    1    2    0    0  0.55465534687E-02 -0.36109364199E-02  0.52107723817E+00  0.52111951842E+00  0.51109989000E-03 0. -1.
     -623    1    1    2    0    0  0.26528902454E-03  0.13311683687E-02  0.27782186275E-03  0.17130000001E+03  0.17130000000E+03 0.  1.
      622    1    1    2    0    0 -0.58118424932E-02  0.22797680512E-02  0.34786449075E+01  0.34788804762E+01  0.40000000000E-01 0. -1.
</event>
<event>
 5   0  0.7212170E+07  0.9118800E+02  0.7818608E-02  0.1180000E+00
       11   -1    0    0    0    0  0.00000000000E+00  0.00000000000E+00  0.39999999673E+01  0.40000000000E+01  0.51109989000E-03 0.  1.
     -623   -1    0    0    0    0  0.00000000000E+00  0.00000000000E+00  0.12525980253E-10  0.17130000000E+03  0.17130000000E+03 0.  1.
       11    1    1    2    0    0 -0.39763174311E-03  0.24795228268E-02  0.61597558258E-02  0.66715784776E-02  0.51109989000E-03 0.  1.
     -623    1    1    2    0    0 -0.16900000394E-02 -0.74510323193E-02  0.71594158339E-03  0.17130000017E+03  0.17130000000E+03 0.  1.
      622    1    1    2    0    0  0.20876317828E-02  0.49715094937E-02  0.39931242705E+01  0.39933282502E+01  0.40000000000E-01 0.  1.
</event>
<event>
 5   0  0.7212170E+07  0.9118800E+02  0.7818608E-02  0.1180000E+00
       11   -1    0    0    0    0  0.00000000000E+00  0.00000000000E+00  0.39999999673E+01  0.40000000000E+01  0.51109989000E-03 0. -1.
     -623   -1    0    0    0    0  0.00000000000E+00  0.00000000000E+00  0.12525980253E-10  0.17130000000E+03  0.17130000000E+03 0.  1.
       11    1    1    2    0    0  0.12147145865E-02 -0.55989341146E-02  0.99233506047E-01  0.99400068110E-01  0.51109989000E-03 0. -1.
     -623    1    1    2    0    0 -0.63872839494E-02  0.96072288203E-03  0.37794131459E-03  0.17130000012E+03  0.17130000000E+03 0.  1.
      622    1    1    2    0    0  0.51725693619E-02  0.46382112327E-02  0.39003885194E+01  0.39005998091E+01  0.40000000000E-01 0. -1.
</event>
<event>
 5   0  0.7212170E+07  0.9118800E+02  0.7818608E-02  0.1180000E+00
       11   -1    0    0    0    0  0.00000000000E+00  0.00000000000E+00  0.39999999673E+01  0.40000000000E+01  0.51109989000E-03 0. -1.
     -623   -1    0    0    0    0  0.00000000000E+00  0.00000000000E+00  0.12525980253E-10  0.17130000000E+03  0.17130000000E+03 0. -1.
       11    1    1    2    0    0  0.13589145046E-02  0.26533973146E-02  0.39968284443E-01  0.40082566664E-01  0.51109989000E-03 0. -1.
     -623    1    1    2    0    0 -0.52225689095E-03 -0.27168575318E-02  0.31639068103E-03  0.17130000002E+03  0.17130000000E+03 0. -1.
      622    1    1    2    0    0 -0.83665761346E-03  0.63460218098E-04  0.39597152936E+01  0.39599174120E+01  0.40000000000E-01 0. -1.
</event>
<event>
 5   0  0.7212170E+07  0.9118800E+02  0.7818608E-02  0.1180000E+00
       11   -1    0    0    0    0  0.00000000000E+00  0.00000000000E+00  0.39999999673E+01  0.40000000000E+01  0.51109989000E-03 0. -1.
     -623   -1    0    0    0    0  0.00000000000E+00  0.00000000000E+00  0.12525980253E-10  0.17130000000E+03  0.17130000000E+03 0.  1.
       11    1    1    2    0    0  0.17021907277E-02 -0.25201566790E-02  0.86159348656E-01  0.86214518655E-01  0.51109989000E-03 0. -1.
     -623    1    1    2    0    0 -0.49615635307E-03  0.13745769359E-02  0.25990830835E-03  0.17130000001E+03  0.17130000000E+03 0.  1.
      622    1    1    2    0    0 -0.12060343745E-02  0.11455797427E-02  0.39135807115E+01  0.39137854761E+01  0.40000000000E-01 0. -1.
</event>
<event>
 5   0  0.7212170E+07  0.9118800E+02  0.7818608E-02  0.1180000E+00
       11   -1    0    0    0    0  0.00000000000E+00  0.00000000000E+00  0.39999999673E+01  0.40000000000E+01  0.51109989000E-03 0.  1.
     -623   -1    0    0    0    0  0.00000000000E+00  0.00000000000E+00  0.12525980253E-10  0.17130000000E+03  0.17130000000E+03 0. -1.
       11    1    1    2    0    0 -0.62663968865E-02 -0.28440175181E-02  0.32838643724E+00  0.32845893130E+00  0.51109989000E-03 0.  1.
     -623    1    1    2    0    0 -0.49274541021E-02 -0.14279344391E-01  0.34802432243E-03  0.17130000067E+03  0.17130000000E+03 0. -1.
      622    1    1    2    0    0  0.11193850989E-01  0.17123361910E-01  0.36712655061E+01  0.36715404026E+01  0.40000000000E-01 0.  1.
</event>
<event>
 5   0  0.7212170E+07  0.9118800E+02  0.7818608E-02  0.1180000E+00
       11   -1    0    0    0    0  0.00000000000E+00  0.00000000000E+00  0.39999999673E+01  0.40000000000E+01  0.51109989000E-03 0. -1.
     -623   -1    0    0    0    0  0.00000000000E+00  0.00000000000E+00  0.12525980253E-10  0.17130000000E+03  0.17130000000E+03 0.  1.
       11    1    1    2    0    0  0.23143196163E-01  0.59503389106E-02  0.38181976992E+00  0.38256713396E+00  0.51109989000E-03 0. -1.
     -623    1    1    2    0    0  0.39058706369E-02 -0.14344673760E-01  0.10800147953E-02  0.17130000065E+03  0.17130000000E+03 0.  1.
      622    1    1    2    0    0 -0.27049066800E-01  0.83943348499E-02  0.36171001827E+01  0.36174322175E+01  0.40000000000E-01 0. -1.
</event>
<event>
 5   0  0.7212170E+07  0.9118800E+02  0.7818608E-02  0.1180000E+00
       11   -1    0    0    0    0  0.00000000000E+00  0.00000000000E+00  0.39999999673E+01  0.40000000000E+01  0.51109989000E-03 0.  1.
     -623   -1    0    0    0    0  0.00000000000E+00  0.00000000000E+00  0.12525980253E-10  0.17130000000E+03  0.17130000000E+03 0.  1.
       11    1    1    2    0    0  0.13892661785E-02  0.19833720785E-03  0.64930004861E-02  0.66625578101E-02  0.51109989000E-03 0.  1.
     -623    1    1    2    0    0 -0.19631196386E-02 -0.89537194869E-03  0.36997945273E-03  0.17130000001E+03  0.17130000000E+03 0.  1.
      622    1    1    2    0    0  0.57385346007E-03  0.69703474084E-03  0.39931369874E+01  0.39933374282E+01  0.40000000000E-01 0.  1.
</event>
<event>
 5   0  0.7212170E+07  0.9118800E+02  0.7818608E-02  0.1180000E+00
       11   -1    0    0    0    0  0.00000000000E+00  0.00000000000E+00  0.39999999673E+01  0.40000000000E+01  0.51109989000E-03 0.  1.
     -623   -1    0    0    0    0  0.00000000000E+00  0.00000000000E+00  0.12525980253E-10  0.17130000000E+03  0.17130000000E+03 0.  1.
       11    1    1    2    0    0 -0.16367789646E-01 -0.13427503328E-01  0.39661937942E+00  0.39718433471E+00  0.51109989000E-03 0.  1.
     -623    1    1    2    0    0  0.44014099391E-02  0.10207858214E-01  0.80865320378E-03  0.17130000036E+03  0.17130000000E+03 0.  1.
      622    1    1    2    0    0  0.11966379707E-01  0.32196451144E-02  0.36025719344E+01  0.36028153023E+01  0.40000000000E-01 0.  0.
</event>
<event>
 5   0  0.7212170E+07  0.9118800E+02  0.7818608E-02  0.1180000E+00
       11   -1    0    0    0    0  0.00000000000E+00  0.00000000000E+00  0.39999999673E+01  0.40000000000E+01  0.51109989000E-03 0.  1.
     -623   -1    0    0    0    0  0.00000000000E+00  0.00000000000E+00  0.12525980253E-10  0.17130000000E+03  0.17130000000E+03 0. -1.
       11    1    1    2    0    0 -0.18714428969E-02 -0.17378984125E-02  0.64008100950E-01  0.64061070860E-01  0.51109989000E-03 0.  1.
     -623    1    1    2    0    0  0.45281753871E-03 -0.45454425537E-02  0.26153011415E-03  0.17130000006E+03  0.17130000000E+03 0. -1.
      622    1    1    2    0    0  0.14186253582E-02  0.62833409657E-02  0.39357303359E+01  0.39359388676E+01  0.40000000000E-01 0.  1.
</event>
<event>
 5   0  0.7212170E+07  0.9118800E+02  0.7818608E-02  0.1180000E+00
       11   -1    0    0    0    0  0.00000000000E+00  0.00000000000E+00  0.39999999673E+01  0.40000000000E+01  0.51109989000E-03 0.  1.
     -623   -1    0    0    0    0  0.00000000000E+00  0.00000000000E+00  0.12525980253E-10  0.17130000000E+03  0.17130000000E+03 0.  1.
       11    1    1    2    0    0 -0.51249048301E-02 -0.26433126085E-02  0.24917536554E+00  0.24924260424E+00  0.51109989000E-03 0.  1.
     -623    1    1    2    0    0 -0.18281176858E-02  0.14114901469E-02  0.28716548254E-03  0.17130000002E+03  0.17130000000E+03 0.  1.
      622    1    1    2    0    0  0.69530225160E-02  0.12318224616E-02  0.37505374367E+01  0.37507573803E+01  0.40000000000E-01 0.  1.
</event>
<event>
 5   0  0.7212170E+07  0.9118800E+02  0.7818608E-02  0.1180000E+00
       11   -1    0    0    0    0  0.00000000000E+00  0.00000000000E+00  0.39999999673E+01  0.40000000000E+01  0.51109989000E-03 0.  1.
     -623   -1    0    0    0    0  0.00000000000E+00  0.00000000000E+00  0.12525980253E-10  0.17130000000E+03  0.17130000000E+03 0.  1.
       11    1    1    2    0    0 -0.31313859542E-02 -0.21556380467E-01  0.58245266405E+00  0.58286006056E+00  0.51109989000E-03 0.  1.
     -623    1    1    2    0    0 -0.90080533661E-04 -0.10679843948E-02  0.71791149471E-03  0.17130000000E+03  0.17130000000E+03 0.  1.
      622    1    1    2    0    0  0.32214664879E-02  0.22624364862E-01  0.34168293921E+01  0.34171399349E+01  0.40000000000E-01 0.  0.
</event>
<event>
 5   0  0.7212170E+07  0.9118800E+02  0.7818608E-02  0.1180000E+00
       11   -1    0    0    0    0  0.00000000000E+00  0.00000000000E+00  0.39999999673E+01  0.40000000000E+01  0.51109989000E-03 0. -1.
     -623   -1    0    0    0    0  0.00000000000E+00  0.00000000000E+00  0.12525980253E-10  0.17130000000E+03  0.17130000000E+03 0. -1.
       11    1    1    2    0    0 -0.52530067368E-02 -0.94228780152E-03  0.13824925511E-01  0.14828073866E-01  0.51109989000E-03 0. -1.
     -623    1    1    2    0    0  0.21538843736E-02 -0.52524707398E-03  0.12053588418E-02  0.17130000002E+03  0.17130000000E+03 0. -1.
      622    1    1    2    0    0  0.30991223632E-02  0.14675348755E-02  0.39849696830E+01  0.39851719075E+01  0.40000000000E-01 0.  0.
</event>
<event>
 5   0  0.7212170E+07  0.9118800E+02  0.7818608E-02  0.1180000E+00
       11   -1    0    0    0    0  0.00000000000E+00  0.00000000000E+00  0.39999999673E+01  0.40000000000E+01  0.51109989000E-03 0.  1.
     -623   -1    0    0    0    0  0.00000000000E+00  0.00000000000E+00  0.12525980253E-10  0.17130000000E+03  0.17130000000E+03 0.  1.
       11    1    1    2    0    0 -0.19909974224E-02  0.47155852178E-02  0.16355106640E+01  0.16355187539E+01  0.51109989000E-03 0.  1.
     -623    1    1    2    0    0  0.11006226001E-02  0.35614804748E-02  0.36112000048E-03  0.17130000004E+03  0.17130000000E+03 0.  1.
      622    1    1    2    0    0  0.89037482206E-03 -0.82770656935E-02  0.23641281843E+01  0.23644812062E+01  0.40000000000E-01 0.  1.
</event>
<event>
 5   0  0.7212170E+07  0.9118800E+02  0.7818608E-02  0.1180000E+00
       11   -1    0    0    0    0  0.00000000000E+00  0.00000000000E+00  0.39999999673E+01  0.40000000000E+01  0.51109989000E-03 0.  1.
     -623   -1    0    0    0    0  0.00000000000E+00  0.00000000000E+00  0.12525980253E-10  0.17130000000E+03  0.17130000000E+03 0. -1.
       11    1    1    2    0    0 -0.60518806004E-03 -0.84934000629E-03  0.39507665112E-01  0.39524732216E-01  0.51109989000E-03 0.  1.
     -623    1    1    2    0    0 -0.25419660001E-03  0.70609893271E-03  0.21913319253E-03  0.17130000000E+03  0.17130000000E+03 0. -1.
      622    1    1    2    0    0  0.85938466014E-03  0.14324107336E-03  0.39602731703E+01  0.39604752673E+01  0.40000000000E-01 0.  1.
</event>
<event>
 5   0  0.7212170E+07  0.9118800E+02  0.7818608E-02  0.1180000E+00
       11   -1    0    0    0    0  0.00000000000E+00  0.00000000000E+00  0.39999999673E+01  0.40000000000E+01  0.51109989000E-03 0. -1.
     -623   -1    0    0    0    0  0.00000000000E+00  0.00000000000E+00  0.12525980253E-10  0.17130000000E+03  0.17130000000E+03 0.  1.
       11    1    1    2    0    0 -0.15599655972E-02 -0.55611567575E-03  0.38820489156E-01  0.38859160550E-01  0.51109989000E-03 0. -1.
     -623    1    1    2    0    0  0.15179658354E-02 -0.24103417040E-02  0.24174083168E-03  0.17130000002E+03  0.17130000000E+03 0.  1.
      622    1    1    2    0    0  0.41999762017E-04  0.29664573793E-02  0.39609377368E+01  0.39611408150E+01  0.40000000000E-01 0. -1.
</event>
<event>
 5   0  0.7212170E+07  0.9118800E+02  0.7818608E-02  0.1180000E+00
       11   -1    0    0    0    0  0.00000000000E+00  0.00000000000E+00  0.39999999673E+01  0.40000000000E+01  0.51109989000E-03 0. -1.
     -623   -1    0    0    0    0  0.00000000000E+00  0.00000000000E+00  0.12525980253E-10  0.17130000000E+03  0.17130000000E+03 0.  1.
       11    1    1    2    0    0  0.69560095127E-02 -0.23927186046E-01  0.68767702430E+00  0.68812851072E+00  0.51109989000E-03 0. -1.
     -623    1    1    2    0    0  0.29817059633E-02 -0.22895812000E-03  0.79605975894E-03  0.17130000003E+03  0.17130000000E+03 0.  1.
      622    1    1    2    0    0 -0.99377154762E-02  0.24156144166E-01  0.33115268836E+01  0.33118714617E+01  0.40000000000E-01 0. -1.
</event>
<event>
 5   0  0.7212170E+07  0.9118800E+02  0.7818608E-02  0.1180000E+00
       11   -1    0    0    0    0  0.00000000000E+00  0.00000000000E+00  0.39999999673E+01  0.40000000000E+01  0.51109989000E-03 0.  1.
     -623   -1    0    0    0    0  0.00000000000E+00  0.00000000000E+00  0.12525980253E-10  0.17130000000E+03  0.17130000000E+03 0.  1.
       11    1    1    2    0    0 -0.37109977062E-02 -0.99605040255E-02  0.28899107203E-01  0.30796148536E-01  0.51109989000E-03 0.  1.
     -623    1    1    2    0    0  0.23435800234E-02  0.36614303496E-02  0.21038677344E-02  0.17130000007E+03  0.17130000000E+03 0.  1.
      622    1    1    2    0    0  0.13674176828E-02  0.62990736758E-02  0.39689969924E+01  0.39692037834E+01  0.40000000000E-01 0.  1.
</event>
<event>
 5   0  0.7212170E+07  0.9118800E+02  0.7818608E-02  0.1180000E+00
       11   -1    0    0    0    0  0.00000000000E+00  0.00000000000E+00  0.39999999673E+01  0.40000000000E+01  0.51109989000E-03 0. -1.
     -623   -1    0    0    0    0  0.00000000000E+00  0.00000000000E+00  0.12525980253E-10  0.17130000000E+03  0.17130000000E+03 0.  1.
       11    1    1    2    0    0 -0.88623729197E-01  0.56779772951E-02  0.90754736885E+00  0.91188206076E+00  0.51109989000E-03 0. -1.
     -623    1    1    2    0    0 -0.14563742186E-01  0.20226411861E-02  0.63286811323E-02  0.17130000075E+03  0.17130000000E+03 0.  1.
      622    1    1    2    0    0  0.10318747138E+00 -0.77006184812E-02  0.30861239174E+01  0.30881171913E+01  0.40000000000E-01 0. -1.
</event>
<event>
 5   0  0.7212170E+07  0.9118800E+02  0.7818608E-02  0.1180000E+00
       11   -1    0    0    0    0  0.00000000000E+00  0.00000000000E+00  0.39999999673E+01  0.40000000000E+01  0.51109989000E-03 0. -1.
     -623   -1    0    0    0    0  0.00000000000E+00  0.00000000000E+00  0.12525980253E-10  0.17130000000E+03  0.17130000000E+03 0.  1.
       11    1    1    2    0    0  0.13665157186E-01  0.22924592140E-01  0.31137662807E+00  0.31251870213E+00  0.51109989000E-03 0. -1.
     -623    1    1    2    0    0 -0.20916029034E-01 -0.23167114360E-01  0.13689844993E-02  0.17130000285E+03  0.17130000000E+03 0.  1.
      622    1    1    2    0    0  0.72508718492E-02  0.24252222082E-03  0.36872543551E+01  0.36874784491E+01  0.40000000000E-01 0. -1.
</event>
<event>
 5   0  0.7212170E+07  0.9118800E+02  0.7818608E-02  0.1180000E+00
       11   -1    0    0    0    0  0.00000000000E+00  0.00000000000E+00  0.39999999673E+01  0.40000000000E+01  0.51109989000E-03 0. -1.
     -623   -1    0    0    0    0  0.00000000000E+00  0.00000000000E+00  0.12525980253E-10  0.17130000000E+03  0.17130000000E+03 0. -1.
       11    1    1    2    0    0 -0.10997223550E-02 -0.35756619191E-03  0.38605525132E-02  0.40623061978E-02  0.51109989000E-03 0. -1.
     -623    1    1    2    0    0 -0.21051273578E-03  0.11464054161E-02  0.40222650442E-03  0.17130000000E+03  0.17130000000E+03 0. -1.
      622    1    1    2    0    0  0.13102350908E-02 -0.78883922428E-03  0.39957371888E+01  0.39959376898E+01  0.40000000000E-01 0. -1.
</event>
<event>
 5   0  0.7212170E+07  0.9118800E+02  0.7818608E-02  0.1180000E+00
       11   -1    0    0    0    0  0.00000000000E+00  0.00000000000E+00  0.39999999673E+01  0.40000000000E+01  0.51109989000E-03 0. -1.
     -623   -1    0    0    0    0  0.00000000000E+00  0.00000000000E+00  0.12525980253E-10  0.17130000000E+03  0.17130000000E+03 0. -1.
       11    1    1    2    0    0  0.31529819667E-03  0.16103852294E-02  0.20650436411E-01  0.20721836323E-01  0.51109989000E-03 0. -1.
     -623    1    1    2    0    0  0.52426348687E-03 -0.17647724386E-02  0.27251551453E-03  0.17130000001E+03  0.17130000000E+03 0. -1.
      622    1    1    2    0    0 -0.83956168342E-03  0.15438720884E-03  0.39790770145E+01  0.39792781527E+01  0.40000000000E-01 0. -1.
</event>
<event>
 5   0  0.7212170E+07  0.9118800E+02  0.7818608E-02  0.1180000E+00
       11   -1    0    0    0    0  0.00000000000E+00  0.00000000000E+00  0.39999999673E+01  0.40000000000E+01  0.51109989000E-03 0.  1.
     -623   -1    0    0    0    0  0.00000000000E+00  0.00000000000E+00  0.12525980253E-10  0.17130000000E+03  0.17130000000E+03 0. -1.
       11    1    1    2    0    0 -0.16654687116E-02  0.11954520063E-01  0.52677879395E-01  0.54045393297E-01  0.51109989000E-03 0.  1.
     -623    1    1    2    0    0  0.11196881885E-02 -0.90613551006E-03  0.15857450543E-02  0.17130000001E+03  0.17130000000E+03 0. -1.
      622    1    1    2    0    0  0.54578052306E-03 -0.11048384553E-01  0.39457363429E+01  0.39459545933E+01  0.40000000000E-01 0.  1.
</event>
<event>
 5   0  0.7212170E+07  0.9118800E+02  0.7818608E-02  0.1180000E+00
       11   -1    0    0    0    0  0.00000000000E+00  0.00000000000E+00  0.39999999673E+01  0.40000000000E+01  0.51109989000E-03 0. -1.
     -623   -1    0    0    0    0  0.00000000000E+00  0.00000000000E+00  0.12525980253E-10  0.17130000000E+03  0.17130000000E+03 0. -1.
       11    1    1    2    0    0 -0.48275648152E-03  0.60345371655E-03  0.47116684866E-02  0.48019010021E-02  0.51109989000E-03 0. -1.
     -623    1    1    2    0    0  0.80978526159E-03 -0.13516550505E-03  0.29048832237E-03  0.17130000000E+03  0.17130000000E+03 0. -1.
      622    1    1    2    0    0 -0.32702878000E-03 -0.46828821152E-03  0.39949978102E+01  0.39951980965E+01  0.40000000000E-01 0. -1.
</event>
<event>
 5   0  0.7212170E+07  0.9118800E+02  0.7818608E-02  0.1180000E+00
       11   -1    0    0    0    0  0.00000000000E+00  0.00000000000E+00  0.39999999673E+01  0.40000000000E+01  0.51109989000E-03 0.  1.
     -623   -1    0    0    0    0  0.00000000000E+00  0.00000000000E+00  0.12525980253E-10  0.17130000000E+03  0.17130000000E+03 0.  1.
       11    1    1    2    0    0 -0.16503574771E-01 -0.11794038048E-01  0.11240838773E+01  0.11242670019E+01  0.51109989000E-03 0.  1.
     -623    1    1    2    0    0  0.28366528512E-03  0.89182646043E-03  0.52771405952E-03  0.17130000000E+03  0.17130000000E+03 0.  1.
      622    1    1    2    0    0  0.16219909486E-01  0.10902211588E-01  0.28753883761E+01  0.28757329947E+01  0.40000000000E-01 0.  1.
</event>
<event>
 5   0  0.7212170E+07  0.9118800E+02  0.7818608E-02  0.1180000E+00
       11   -1    0    0    0    0  0.00000000000E+00  0.00000000000E+00  0.39999999673E+01  0.40000000000E+01  0.51109989000E-03 0.  1.
     -623   -1    0    0    0    0  0.00000000000E+00  0.00000000000E+00  0.12525980253E-10  0.17130000000E+03  0.17130000000E+03 0.  1.
       11    1    1    2    0    0 -0.98687307333E-02  0.20582390378E-01  0.11104765316E+01  0.11107112204E+01  0.51109989000E-03 0.  1.
     -623    1    1    2    0    0  0.67047118954E-02 -0.72785983631E-03  0.58164580786E-03  0.17130000013E+03  0.17130000000E+03 0.  1.
      622    1    1    2    0    0  0.31640188366E-02 -0.19854530541E-01  0.28889417907E+01  0.28892886466E+01  0.40000000000E-01 0.  1.
</event>
<event>
 5   0  0.7212170E+07  0.9118800E+02  0.7818608E-02  0.1180000E+00
       11   -1    0    0    0    0  0.00000000000E+00  0.00000000000E+00  0.39999999673E+01  0.40000000000E+01  0.51109989000E-03 0.  1.
     -623   -1    0    0    0    0  0.00000000000E+00  0.00000000000E+00  0.12525980253E-10  0.17130000000E+03  0.17130000000E+03 0.  1.
       11    1    1    2    0    0 -0.62711423267E-04 -0.78513504911E-03 -0.14609370043E-04  0.93904541913E-03  0.51109989000E-03 0.  1.
     -623    1    1    2    0    0  0.29764016256E-02  0.84066377510E-03  0.11547678176E-02  0.17130000003E+03  0.17130000000E+03 0.  1.
      622    1    1    2    0    0 -0.29136902024E-02 -0.55528726005E-04  0.39988598090E+01  0.39990609228E+01  0.40000000000E-01 0.  1.
</event>
<event>
 5   0  0.7212170E+07  0.9118800E+02  0.7818608E-02  0.1180000E+00
       11   -1    0    0    0    0  0.00000000000E+00  0.00000000000E+00  0.39999999673E+01  0.40000000000E+01  0.51109989000E-03 0. -1.
     -623   -1    0    0    0    0  0.00000000000E+00  0.00000000000E+00  0.12525980253E-10  0.17130000000E+03  0.17130000000E+03 0.  1.
       11    1    1    2    0    0  0.30702110486E-01  0.85493482521E-02  0.27911740787E+01  0.27913560700E+01  0.51109989000E-03 0. -1.
     -623    1    1    2    0    0 -0.58054451920E-02 -0.58713634503E-02  0.11037996652E-02  0.17130000020E+03  0.17130000000E+03 0.  1.
      622    1    1    2    0    0 -0.24896665294E-01 -0.26779848018E-02  0.12077220891E+01  0.12086437275E+01  0.40000000000E-01 0.  0.
</event>
<event>
 5   0  0.7212170E+07  0.9118800E+02  0.7818608E-02  0.1180000E+00
       11   -1    0    0    0    0  0.00000000000E+00  0.00000000000E+00  0.39999999673E+01  0.40000000000E+01  0.51109989000E-03 0.  1.
     -623   -1    0    0    0    0  0.00000000000E+00  0.00000000000E+00  0.12525980253E-10  0.17130000000E+03  0.17130000000E+03 0.  1.
       11    1    1    2    0    0 -0.68620113533E-02 -0.28207820796E-02  0.10070862319E+00  0.10098283032E+00  0.51109989000E-03 0.  1.
     -623    1    1    2    0    0 -0.27897610736E-03  0.56960256333E-03  0.48655123529E-03  0.17130000000E+03  0.17130000000E+03 0.  1.
      622    1    1    2    0    0  0.71409874607E-02  0.22511795163E-02  0.38988047929E+01  0.38990171677E+01  0.40000000000E-01 0.  1.
</event>
<event>
 5   0  0.7212170E+07  0.9118800E+02  0.7818608E-02  0.1180000E+00
       11   -1    0    0    0    0  0.00000000000E+00  0.00000000000E+00  0.39999999673E+01  0.40000000000E+01  0.51109989000E-03 0. -1.
     -623   -1    0    0    0    0  0.00000000000E+00  0.00000000000E+00  0.12525980253E-10  0.17130000000E+03  0.17130000000E+03 0.  1.
       11    1    1    2    0    0 -0.13973066111E-01 -0.89511301205E-02  0.13845987042E+00  0.13945166276E+00  0.51109989000E-03 0. -1.
     -623    1    1    2    0    0 -0.20115905624E-02 -0.68894202208E-02  0.12647395406E-02  0.17130000016E+03  0.17130000000E+03 0.  1.
      622    1    1    2    0    0  0.15984656674E-01  0.15840550342E-01  0.38602753577E+01  0.38605481825E+01  0.40000000000E-01 0. -1.
</event>
<event>
 5   0  0.7212170E+07  0.9118800E+02  0.7818608E-02  0.1180000E+00
       11   -1    0    0    0    0  0.00000000000E+00  0.00000000000E+00  0.39999999673E+01  0.40000000000E+01  0.51109989000E-03 0. -1.
     -623   -1    0    0    0    0  0.00000000000E+00  0.00000000000E+00  0.12525980253E-10  0.17130000000E+03  0.17130000000E+03 0.  1.
       11    1    1    2    0    0  0.47323249241E-02  0.70960848676E-01  0.14158076288E+01  0.14175927976E+01  0.51109989000E-03 0. -1.
     -623    1    1    2    0    0 -0.39743946037E-02 -0.34047570586E-02  0.29790556007E-02  0.17130000011E+03  0.17130000000E+03 0.  1.
      622    1    1    2    0    0 -0.75793032034E-03 -0.67556091617E-01  0.25812132831E+01  0.25824070967E+01  0.40000000000E-01 0. -1.
</event>
<event>
 5   0  0.7212170E+07  0.9118800E+02  0.7818608E-02  0.1180000E+00
       11   -1    0    0    0    0  0.00000000000E+00  0.00000000000E+00  0.39999999673E+01  0.40000000000E+01  0.51109989000E-03 0. -1.
     -623   -1    0    0    0    0  0.00000000000E+00  0.00000000000E+00  0.12525980253E-10  0.17130000000E+03  0.17130000000E+03 0.  1.
       11    1    1    2    0    0  0.23838842143E-03  0.30222626081E-02  0.17688257591E+00  0.17690929253E+00  0.51109989000E-03 0. -1.
     -623    1    1    2    0    0  0.95403222077E-03  0.38461302842E-03  0.23765177868E-03  0.17130000000E+03  0.17130000000E+03 0.  1.
      622    1    1    2    0    0 -0.11924206422E-02 -0.34068756365E-02  0.38228797396E+01  0.38230907041E+01  0.40000000000E-01 0. -1.
</event>
<event>
 5   0  0.7212170E+07  0.9118800E+02  0.7818608E-02  0.1180000E+00
       11   -1    0    0    0    0  0.00000000000E+00  0.00000000000E+00  0.39999999673E+01  0.40000000000E+01  0.51109989000E-03 0. -1.
     -623   -1    0    0    0    0  0.00000000000E+00  0.00000000000E+00  0.12525980253E-10  0.17130000000E+03  0.17130000000E+03 0.  1.
       11    1    1    2    0    0  0.32714219590E-02  0.54473674922E-02  0.20071968883E+00  0.20082089214E+00  0.51109989000E-03 0. -1.
     -623    1    1    2    0    0  0.22896255069E-04 -0.28349021755E-03  0.31668678624E-03  0.17130000000E+03  0.17130000000E+03 0.  1.
      622    1    1    2    0    0 -0.32943182140E-02 -0.51638772746E-02  0.37989635921E+01  0.37991791077E+01  0.40000000000E-01 0. -1.
</event>
<event>
 5   0  0.7212170E+07  0.9118800E+02  0.7818608E-02  0.1180000E+00
       11   -1    0    0    0    0  0.00000000000E+00  0.00000000000E+00  0.39999999673E+01  0.40000000000E+01  0.51109989000E-03 0.  1.
     -623   -1    0    0    0    0  0.00000000000E+00  0.00000000000E+00  0.12525980253E-10  0.17130000000E+03  0.17130000000E+03 0. -1.
       11    1    1    2    0    0  0.51732571030E-02  0.71350586511E-02  0.23699437596E+01  0.23699602015E+01  0.51109989000E-03 0.  1.
     -623    1    1    2    0    0 -0.10319193253E-02  0.99247896032E-03  0.53280656411E-03  0.17130000001E+03  0.17130000000E+03 0. -1.
      622    1    1    2    0    0 -0.41413377778E-02 -0.81275376113E-02  0.16295234006E+01  0.16300397911E+01  0.40000000000E-01 0.  1.
</event>
<event>
 5   0  0.7212170E+07  0.9118800E+02  0.7818608E-02  0.1180000E+00
       11   -1    0    0    0    0  0.00000000000E+00  0.00000000000E+00  0.39999999673E+01  0.40000000000E+01  0.51109989000E-03 0. -1.
     -623   -1    0    0    0    0  0.00000000000E+00  0.00000000000E+00  0.12525980253E-10  0.17130000000E+03  0.17130000000E+03 0.  1.
       11    1    1    2    0    0  0.19650218611E-01  0.45641353181E-01  0.72750993921E+00  0.72920520917E+00  0.51109989000E-03 0. -1.
     -623    1    1    2    0    0 -0.26078660921E-02 -0.31090166751E-01  0.20194624681E-02  0.17130000285E+03  0.17130000000E+03 0.  1.
      622    1    1    2    0    0 -0.17042352519E-01 -0.14551186431E-01  0.32704705655E+01  0.32707919376E+01  0.40000000000E-01 0. -1.
</event>
<event>
 5   0  0.7212170E+07  0.9118800E+02  0.7818608E-02  0.1180000E+00
       11   -1    0    0    0    0  0.00000000000E+00  0.00000000000E+00  0.39999999673E+01  0.40000000000E+01  0.51109989000E-03 0. -1.
     -623   -1    0    0    0    0  0.00000000000E+00  0.00000000000E+00  0.12525980253E-10  0.17130000000E+03  0.17130000000E+03 0.  1.
       11    1    1    2    0    0  0.76969033518E-03 -0.17255661487E-03  0.16733463678E-02  0.19192472903E-02  0.51109989000E-03 0. -1.
     -623    1    1    2    0    0 -0.42927500567E-03  0.38999959998E-03  0.44599126721E-03  0.17130000000E+03  0.17130000000E+03 0.  1.
      622    1    1    2    0    0 -0.34041532954E-03 -0.21744298508E-03  0.39978806295E+01  0.39980807509E+01  0.40000000000E-01 0. -1.
</event>
<event>
 5   0  0.7212170E+07  0.9118800E+02  0.7818608E-02  0.1180000E+00
       11   -1    0    0    0    0  0.00000000000E+00  0.00000000000E+00  0.39999999673E+01  0.40000000000E+01  0.51109989000E-03 0.  1.
     -623   -1    0    0    0    0  0.00000000000E+00  0.00000000000E+00  0.12525980253E-10  0.17130000000E+03  0.17130000000E+03 0. -1.
       11    1    1    2    0    0  0.31374764676E-01  0.18593286883E-01  0.14023706685E+01  0.14028449092E+01  0.51109989000E-03 0.  1.
     -623    1    1    2    0    0  0.59612389301E-02  0.91668947581E-03  0.11240747854E-02  0.17130000011E+03  0.17130000000E+03 0. -1.
      622    1    1    2    0    0 -0.37336003606E-01 -0.19509976358E-01  0.25965052240E+01  0.25971549808E+01  0.40000000000E-01 0.  0.
</event>
<event>
 5   0  0.7212170E+07  0.9118800E+02  0.7818608E-02  0.1180000E+00
       11   -1    0    0    0    0  0.00000000000E+00  0.00000000000E+00  0.39999999673E+01  0.40000000000E+01  0.51109989000E-03 0.  1.
     -623   -1    0    0    0    0  0.00000000000E+00  0.00000000000E+00  0.12525980253E-10  0.17130000000E+03  0.17130000000E+03 0.  1.
       11    1    1    2    0    0  0.88177291313E-03 -0.36894646491E-03 -0.49058064152E-03  0.11897636016E-02  0.51109989000E-03 0.  1.
     -623    1    1    2    0    0  0.56697010633E-03  0.60264199167E-03  0.18806577134E-02  0.17130000001E+03  0.17130000000E+03 0.  1.
      622    1    1    2    0    0 -0.14487430195E-02 -0.23369552678E-03  0.39986098904E+01  0.39988102242E+01  0.40000000000E-01 0.  1.
</event>
<event>
 5   0  0.7212170E+07  0.9118800E+02  0.7818608E-02  0.1180000E+00
       11   -1    0    0    0    0  0.00000000000E+00  0.00000000000E+00  0.39999999673E+01  0.40000000000E+01  0.51109989000E-03 0.  1.
     -623   -1    0    0    0    0  0.00000000000E+00  0.00000000000E+00  0.12525980253E-10  0.17130000000E+03  0.17130000000E+03 0.  1.
       11    1    1    2    0    0 -0.53551903664E-03  0.83906553471E-03  0.29517529447E-03  0.11572221749E-02  0.51109989000E-03 0. -1.
     -623    1    1    2    0    0  0.21341611766E-02  0.17495346182E-03  0.10625419411E-02  0.17130000002E+03  0.17130000000E+03 0.  1.
      622    1    1    2    0    0 -0.15986421401E-02 -0.10140189965E-02  0.39986422503E+01  0.39988427613E+01  0.40000000000E-01 0.  1.
</event>
<event>
 5   0  0.7212170E+07  0.9118800E+02  0.7818608E-02  0.1180000E+00
       11   -1    0    0    0    0  0.00000000000E+00  0.00000000000E+00  0.39999999673E+01  0.40000000000E+01  0.51109989000E-03 0.  1.
     -623   -1    0    0    0    0  0.00000000000E+00  0.00000000000E+00  0.12525980253E-10  0.17130000000E+03  0.17130000000E+03 0.  1.
       11    1    1    2    0    0 -0.37625397776E-02 -0.10161936579E-01  0.23193418343E+01  0.23193672041E+01  0.51109989000E-03 0.  1.
     -623    1    1    2    0    0 -0.10168260591E-03 -0.14321336825E-02  0.54586984697E-03  0.17130000001E+03  0.17130000000E+03 0.  1.
      622    1    1    2    0    0  0.38642223835E-02  0.11594070261E-01  0.16801122628E+01  0.16806327887E+01  0.40000000000E-01 0.  1.
</event>
<event>
 5   0  0.7212170E+07  0.9118800E+02  0.7818608E-02  0.1180000E+00
       11   -1    0    0    0    0  0.00000000000E+00  0.00000000000E+00  0.39999999673E+01  0.40000000000E+01  0.51109989000E-03 0. -1.
     -623   -1    0    0    0    0  0.00000000000E+00  0.00000000000E+00  0.12525980253E-10  0.17130000000E+03  0.17130000000E+03 0. -1.
       11    1    1    2    0    0  0.14452846219E-03  0.11412651685E-03  0.94459591826E-02  0.94615686498E-02  0.51109989000E-03 0. -1.
     -623    1    1    2    0    0 -0.14578043675E-02  0.18290391889E-02  0.21676140725E-03  0.17130000002E+03  0.17130000000E+03 0. -1.
      622    1    1    2    0    0  0.13132759049E-02 -0.19431657052E-02  0.39903372456E+01  0.39905384141E+01  0.40000000000E-01 0.  0.
</event>
<event>
 5   0  0.7212170E+07  0.9118800E+02  0.7818608E-02  0.1180000E+00
       11   -1    0    0    0    0  0.00000000000E+00  0.00000000000E+00  0.39999999673E+01  0.40000000000E+01  0.51109989000E-03 0. -1.
     -623   -1    0    0    0    0  0.00000000000E+00  0.00000000000E+00  0.12525980253E-10  0.17130000000E+03  0.17130000000E+03 0. -1.
       11    1    1    2    0    0 -0.64578209337E-02 -0.69614314314E-03  0.57231741910E-01  0.57601402514E-01  0.51109989000E-03 0. -1.
     -623    1    1    2    0    0  0.70706571598E-03 -0.11535975746E-02  0.57719013332E-03  0.17130000001E+03  0.17130000000E+03 0. -1.
      622    1    1    2    0    0  0.57507552175E-02  0.18497407181E-02  0.39421910365E+01  0.39423985923E+01  0.40000000000E-01 0. -1.
</event>
<event>
 5   0  0.7212170E+07  0.9118800E+02  0.7818608E-02  0.1180000E+00
       11   -1    0    0    0    0  0.00000000000E+00  0.00000000000E+00  0.39999999673E+01  0.40000000000E+01  0.51109989000E-03 0.  1.
     -623   -1    0    0    0    0  0.00000000000E+00  0.00000000000E+00  0.12525980253E-10  0.17130000000E+03  0.17130000000E+03 0. -1.
       11    1    1    2    0    0 -0.70213708491E-03 -0.12919084828E-02  0.78988839085E-01  0.79004176770E-01  0.51109989000E-03 0.  1.
     -623    1    1    2    0    0 -0.63827038051E-03  0.82278960882E-03  0.21960064972E-03  0.17130000000E+03  0.17130000000E+03 0. -1.
      622    1    1    2    0    0  0.13404074654E-02  0.46911887401E-03  0.39207915273E+01  0.39209958196E+01  0.40000000000E-01 0.  1.
</event>
<event>
 5   0  0.7212170E+07  0.9118800E+02  0.7818608E-02  0.1180000E+00
       11   -1    0    0    0    0  0.00000000000E+00  0.00000000000E+00  0.39999999673E+01  0.40000000000E+01  0.51109989000E-03 0.  1.
     -623   -1    0    0    0    0  0.00000000000E+00  0.00000000000E+00  0.12525980253E-10  0.17130000000E+03  0.17130000000E+03 0. -1.
       11    1    1    2    0    0 -0.42840816261E-01 -0.32114417728E-02  0.82350702162E+00  0.82462702161E+00  0.51109989000E-03 0.  1.
     -623    1    1    2    0    0  0.32362522716E-02  0.47411674939E-02  0.16194000894E-02  0.17130000010E+03  0.17130000000E+03 0. -1.
      622    1    1    2    0    0  0.39604563990E-01 -0.15297257212E-02  0.31748735457E+01  0.31753728746E+01  0.40000000000E-01 0.  1.
</event>
<event>
 5   0  0.7212170E+07  0.9118800E+02  0.7818608E-02  0.1180000E+00
       11   -1    0    0    0    0  0.00000000000E+00  0.00000000000E+00  0.39999999673E+01  0.40000000000E+01  0.51109989000E-03 0.  1.
     -623   -1    0    0    0    0  0.00000000000E+00  0.00000000000E+00  0.12525980253E-10  0.17130000000E+03  0.17130000000E+03 0. -1.
       11    1    1    2    0    0 -0.96085877893E-03  0.99603669358E-03  0.16886406929E-02  0.22423356518E-02  0.51109989000E-03 0.  1.
     -623    1    1    2    0    0  0.18148030243E-02  0.12737695705E-02  0.75453112321E-03  0.17130000002E+03  0.17130000000E+03 0. -1.
      622    1    1    2    0    0 -0.85394424529E-03 -0.22698062640E-02  0.39975567953E+01  0.39977576481E+01  0.40000000000E-01 0.  1.
</event>
<event>
 5   0  0.7212170E+07  0.9118800E+02  0.7818608E-02  0.1180000E+00
       11   -1    0    0    0    0  0.00000000000E+00  0.00000000000E+00  0.39999999673E+01  0.40000000000E+01  0.51109989000E-03 0.  1.
     -623   -1    0    0    0    0  0.00000000000E+00  0.00000000000E+00  0.12525980253E-10  0.17130000000E+03  0.17130000000E+03 0.  1.
       11    1    1    2    0    0  0.17797404462E-01 -0.48378335438E-02  0.73627364424E+00  0.73650478115E+00  0.51109989000E-03 0.  1.
     -623    1    1    2    0    0  0.11440352872E-02 -0.14074801787E-01  0.58661235877E-03  0.17130000058E+03  0.17130000000E+03 0.  1.
      622    1    1    2    0    0 -0.18941439749E-01  0.18912635332E-01  0.32631397112E+01  0.32634946363E+01  0.40000000000E-01 0.  1.
</event>
<event>
 5   0  0.7212170E+07  0.9118800E+02  0.7818608E-02  0.1180000E+00
       11   -1    0    0    0    0  0.00000000000E+00  0.00000000000E+00  0.39999999673E+01  0.40000000000E+01  0.51109989000E-03 0.  1.
     -623   -1    0    0    0    0  0.00000000000E+00  0.00000000000E+00  0.12525980253E-10  0.17130000000E+03  0.17130000000E+03 0.  1.
       11    1    1    2    0    0  0.49927710642E-01  0.45123324913E-02  0.31756754839E+01  0.31760711859E+01  0.51109989000E-03 0.  1.
     -623    1    1    2    0    0  0.12986739054E-01 -0.49585936306E-02  0.37763340114E-02  0.17130000061E+03  0.17130000000E+03 0.  1.
      622    1    1    2    0    0 -0.62914449696E-01  0.44626113925E-03  0.82054814936E+00  0.82392820837E+00  0.40000000000E-01 0.  1.
</event>
<event>
 5   0  0.7212170E+07  0.9118800E+02  0.7818608E-02  0.1180000E+00
       11   -1    0    0    0    0  0.00000000000E+00  0.00000000000E+00  0.39999999673E+01  0.40000000000E+01  0.51109989000E-03 0.  1.
     -623   -1    0    0    0    0  0.00000000000E+00  0.00000000000E+00  0.12525980253E-10  0.17130000000E+03  0.17130000000E+03 0.  1.
       11    1    1    2    0    0  0.44181323619E-03 -0.25925903802E-03  0.69363085871E-03  0.10023776984E-02  0.51109989000E-03 0.  1.
     -623    1    1    2    0    0 -0.39637152014E-03 -0.73799999079E-03  0.50889675059E-03  0.17130000000E+03  0.17130000000E+03 0.  1.
      622    1    1    2    0    0 -0.45441716009E-04  0.99725902889E-03  0.39987974401E+01  0.39989976199E+01  0.40000000000E-01 0.  1.
</event>
<event>
 5   0  0.7212170E+07  0.9118800E+02  0.7818608E-02  0.1180000E+00
       11   -1    0    0    0    0  0.00000000000E+00  0.00000000000E+00  0.39999999673E+01  0.40000000000E+01  0.51109989000E-03 0.  1.
     -623   -1    0    0    0    0  0.00000000000E+00  0.00000000000E+00  0.12525980253E-10  0.17130000000E+03  0.17130000000E+03 0.  1.
       11    1    1    2    0    0 -0.10283928096E-02  0.33676233788E-02  0.80158952168E-02  0.87700785753E-02  0.51109989000E-03 0.  1.
     -623    1    1    2    0    0 -0.40383185311E-02 -0.18176402776E-02  0.95817228682E-03  0.17130000006E+03  0.17130000000E+03 0.  1.
      622    1    1    2    0    0  0.50667113403E-02 -0.15499831014E-02  0.39910258995E+01  0.39912298611E+01  0.40000000000E-01 0.  1.
</event>
<event>
 5   0  0.7212170E+07  0.9118800E+02  0.7818608E-02  0.1180000E+00
       11   -1    0    0    0    0  0.00000000000E+00  0.00000000000E+00  0.39999999673E+01  0.40000000000E+01  0.51109989000E-03 0. -1.
     -623   -1    0    0    0    0  0.00000000000E+00  0.00000000000E+00  0.12525980253E-10  0.17130000000E+03  0.17130000000E+03 0. -1.
       11    1    1    2    0    0  0.74139227393E-03  0.39798262235E-03  0.12752204386E-02  0.16110440516E-02  0.51109989000E-03 0. -1.
     -623    1    1    2    0    0  0.42690123334E-03 -0.43564414358E-03  0.53604935693E-03  0.17130000000E+03  0.17130000000E+03 0. -1.
      622    1    1    2    0    0 -0.11682935073E-02  0.37661521235E-04  0.39981886976E+01  0.39983889540E+01  0.40000000000E-01 0. -1.
</event>
<event>
 5   0  0.7212170E+07  0.9118800E+02  0.7818608E-02  0.1180000E+00
       11   -1    0    0    0    0  0.00000000000E+00  0.00000000000E+00  0.39999999673E+01  0.40000000000E+01  0.51109989000E-03 0.  1.
     -623   -1    0    0    0    0  0.00000000000E+00  0.00000000000E+00  0.12525980253E-10  0.17130000000E+03  0.17130000000E+03 0.  1.
       11    1    1    2    0    0  0.74060266552E-03  0.69674765268E-02  0.30605045054E+01  0.30605125687E+01  0.51109989000E-03 0.  1.
     -623    1    1    2    0    0 -0.29244876183E-02  0.17383432141E-02  0.90289592520E-03  0.17130000004E+03  0.17130000000E+03 0.  1.
      622    1    1    2    0    0  0.21838849527E-02 -0.87058197409E-02  0.93859256587E+00  0.93948739500E+00  0.40000000000E-01 0.  1.
</event>
<event>
 5   0  0.7212170E+07  0.9118800E+02  0.7818608E-02  0.1180000E+00
       11   -1    0    0    0    0  0.00000000000E+00  0.00000000000E+00  0.39999999673E+01  0.40000000000E+01  0.51109989000E-03 0.  1.
     -623   -1    0    0    0    0  0.00000000000E+00  0.00000000000E+00  0.12525980253E-10  0.17130000000E+03  0.17130000000E+03 0. -1.
       11    1    1    2    0    0  0.19910612694E-02  0.10239688418E-02  0.50072895263E-02  0.55088119105E-02  0.51109989000E-03 0.  1.
     -623    1    1    2    0    0 -0.30566743049E-02 -0.54521089321E-03  0.70197100077E-03  0.17130000003E+03  0.17130000000E+03 0. -1.
      622    1    1    2    0    0  0.10656130360E-02 -0.47875794848E-03  0.39942907076E+01  0.39944911593E+01  0.40000000000E-01 0.  1.
</event>
<event>
 5   0  0.7212170E+07  0.9118800E+02  0.7818608E-02  0.1180000E+00
       11   -1    0    0    0    0  0.00000000000E+00  0.00000000000E+00  0.39999999673E+01  0.40000000000E+01  0.51109989000E-03 0.  1.
     -623   -1    0    0    0    0  0.00000000000E+00  0.00000000000E+00  0.12525980253E-10  0.17130000000E+03  0.17130000000E+03 0. -1.
       11    1    1    2    0    0 -0.10449507334E-02 -0.34433420431E-03  0.19395781221E-01  0.19433683139E-01  0.51109989000E-03 0. -1.
     -623    1    1    2    0    0 -0.34892975891E-02 -0.46572468468E-02  0.24467481588E-03  0.17130000010E+03  0.17130000000E+03 0. -1.
      622    1    1    2    0    0  0.45342483240E-02  0.50015810532E-02  0.39803595131E+01  0.39805662196E+01  0.40000000000E-01 0.  1.
</event>
<event>
 5   0  0.7212170E+07  0.9118800E+02  0.7818608E-02  0.1180000E+00
       11   -1    0    0    0    0  0.00000000000E+00  0.00000000000E+00  0.39999999673E+01  0.40000000000E+01  0.51109989000E-03 0. -1.
     -623   -1    0    0    0    0  0.00000000000E+00  0.00000000000E+00  0.12525980253E-10  0.17130000000E+03  0.17130000000E+03 0.  1.
       11    1    1    2    0    0 -0.40576806145E-02 -0.12389459353E-01  0.43401501214E-01  0.45320139075E-01  0.51109989000E-03 0. -1.
     -623    1    1    2    0    0  0.66874183897E-02 -0.66243332181E-03  0.21434611760E-02  0.17130000015E+03  0.17130000000E+03 0.  1.
      622    1    1    2    0    0 -0.26297377753E-02  0.13051892675E-01  0.39544550051E+01  0.39546797158E+01  0.40000000000E-01 0. -1.
</event>
<event>
 5   0  0.7212170E+07  0.9118800E+02  0.7818608E-02  0.1180000E+00
       11   -1    0    0    0    0  0.00000000000E+00  0.00000000000E+00  0.39999999673E+01  0.40000000000E+01  0.51109989000E-03 0. -1.
     -623   -1    0    0    0    0  0.00000000000E+00  0.00000000000E+00  0.12525980253E-10  0.17130000000E+03  0.17130000000E+03 0. -1.
       11    1    1    2    0    0  0.13819289171E-02 -0.17736051333E-03  0.35356940787E-02  0.38345195265E-02  0.51109989000E-03 0. -1.
     -623    1    1    2    0    0  0.16982425222E-02  0.42426310365E-02  0.50230644885E-03  0.17130000006E+03  0.17130000000E+03 0. -1.
      622    1    1    2    0    0 -0.30801714393E-02 -0.40652705230E-02  0.39959619667E+01  0.39961654186E+01  0.40000000000E-01 0. -1.
</event>
<event>
 5   0  0.7212170E+07  0.9118800E+02  0.7818608E-02  0.1180000E+00
       11   -1    0    0    0    0  0.00000000000E+00  0.00000000000E+00  0.39999999673E+01  0.40000000000E+01  0.51109989000E-03 0.  1.
     -623   -1    0    0    0    0  0.00000000000E+00  0.00000000000E+00  0.12525980253E-10  0.17130000000E+03  0.17130000000E+03 0.  1.
       11    1    1    2    0    0 -0.86822200485E-03  0.14393986523E-03  0.56400277421E-02  0.57311136932E-02  0.51109989000E-03 0. -1.
     -623    1    1    2    0    0 -0.34959812658E-02  0.30601864292E-02  0.29507809520E-03  0.17130000006E+03  0.17130000000E+03 0.  1.
      622    1    1    2    0    0  0.43642032706E-02 -0.32041262943E-02  0.39940648614E+01  0.39942688229E+01  0.40000000000E-01 0.  1.
</event>
<event>
 5   0  0.7212170E+07  0.9118800E+02  0.7818608E-02  0.1180000E+00
       11   -1    0    0    0    0  0.00000000000E+00  0.00000000000E+00  0.39999999673E+01  0.40000000000E+01  0.51109989000E-03 0.  1.
     -623   -1    0    0    0    0  0.00000000000E+00  0.00000000000E+00  0.12525980253E-10  0.17130000000E+03  0.17130000000E+03 0. -1.
       11    1    1    2    0    0 -0.15273704128E-02 -0.78615207380E-03  0.18659499847E-03  0.18019257066E-02  0.51109989000E-03 0. -1.
     -623    1    1    2    0    0  0.86887612667E-03  0.11531128128E-02  0.18154799877E-02  0.17130000002E+03  0.17130000000E+03 0. -1.
      622    1    1    2    0    0  0.65849428613E-03 -0.36696073901E-03  0.39979978925E+01  0.39981980587E+01  0.40000000000E-01 0.  1.
</event>
<event>
 5   0  0.7212170E+07  0.9118800E+02  0.7818608E-02  0.1180000E+00
       11   -1    0    0    0    0  0.00000000000E+00  0.00000000000E+00  0.39999999673E+01  0.40000000000E+01  0.51109989000E-03 0. -1.
     -623   -1    0    0    0    0  0.00000000000E+00  0.00000000000E+00  0.12525980253E-10  0.17130000000E+03  0.17130000000E+03 0. -1.
       11    1    1    2    0    0  0.20864038811E-01  0.37935820509E-02  0.21608903595E+00  0.21712768608E+00  0.51109989000E-03 0. -1.
     -623    1    1    2    0    0 -0.55294321226E-02 -0.89887422594E-04  0.12830929614E-02  0.17130000009E+03  0.17130000000E+03 0. -1.
      622    1    1    2    0    0 -0.15334606688E-01 -0.37036946283E-02  0.37826278385E+01  0.37828722199E+01  0.40000000000E-01 0.  0.
</event>
<event>
 5   0  0.7212170E+07  0.9118800E+02  0.7818608E-02  0.1180000E+00
       11   -1    0    0    0    0  0.00000000000E+00  0.00000000000E+00  0.39999999673E+01  0.40000000000E+01  0.51109989000E-03 0.  1.
     -623   -1    0    0    0    0  0.00000000000E+00  0.00000000000E+00  0.12525980253E-10  0.17130000000E+03  0.17130000000E+03 0. -1.
       11    1    1    2    0    0  0.31207868462E-02 -0.84941470104E-02  0.23573023391E+00  0.23590441761E+00  0.51109989000E-03 0.  1.
     -623    1    1    2    0    0  0.63958398230E-03  0.14218882765E-02  0.39522181775E-03  0.17130000001E+03  0.17130000000E+03 0. -1.
      622    1    1    2    0    0 -0.37603708285E-02  0.70722587339E-02  0.37638745117E+01  0.37640955749E+01  0.40000000000E-01 0.  1.
</event>
<event>
 5   0  0.7212170E+07  0.9118800E+02  0.7818608E-02  0.1180000E+00
       11   -1    0    0    0    0  0.00000000000E+00  0.00000000000E+00  0.39999999673E+01  0.40000000000E+01  0.51109989000E-03 0.  1.
     -623   -1    0    0    0    0  0.00000000000E+00  0.00000000000E+00  0.12525980253E-10  0.17130000000E+03  0.17130000000E+03 0.  1.
       11    1    1    2    0    0 -0.58071205882E-02 -0.38461537711E-02  0.93013163389E-01  0.93274998446E-01  0.51109989000E-03 0.  1.
     -623    1    1    2    0    0  0.97958679614E-03 -0.66428239489E-03  0.47217432757E-03  0.17130000000E+03  0.17130000000E+03 0.  1.
      622    1    1    2    0    0  0.48275337921E-02  0.45104361659E-02  0.39065146293E+01  0.39067249965E+01  0.40000000000E-01 0.  1.
</event>
<event>
 5   0  0.7212170E+07  0.9118800E+02  0.7818608E-02  0.1180000E+00
       11   -1    0    0    0    0  0.00000000000E+00  0.00000000000E+00  0.39999999673E+01  0.40000000000E+01  0.51109989000E-03 0. -1.
     -623   -1    0    0    0    0  0.00000000000E+00  0.00000000000E+00  0.12525980253E-10  0.17130000000E+03  0.17130000000E+03 0. -1.
       11    1    1    2    0    0  0.13014277493E-01 -0.28299376132E-02  0.68999195258E+00  0.69012066757E+00  0.51109989000E-03 0. -1.
     -623    1    1    2    0    0 -0.37770482241E-02 -0.75594847154E-02  0.39979842005E-03  0.17130000021E+03  0.17130000000E+03 0. -1.
      622    1    1    2    0    0 -0.92372292693E-02  0.10389422328E-01  0.33096082158E+01  0.33098791230E+01  0.40000000000E-01 0. -1.
</event>
<event>
 5   0  0.7212170E+07  0.9118800E+02  0.7818608E-02  0.1180000E+00
       11   -1    0    0    0    0  0.00000000000E+00  0.00000000000E+00  0.39999999673E+01  0.40000000000E+01  0.51109989000E-03 0. -1.
     -623   -1    0    0    0    0  0.00000000000E+00  0.00000000000E+00  0.12525980253E-10  0.17130000000E+03  0.17130000000E+03 0.  1.
       11    1    1    2    0    0  0.93078575399E-03 -0.18429631505E-02  0.78977385561E-02  0.81791425402E-02  0.51109989000E-03 0. -1.
     -623    1    1    2    0    0 -0.11668321459E-02  0.28662423813E-02  0.48195294470E-03  0.17130000003E+03  0.17130000000E+03 0.  1.
      622    1    1    2    0    0  0.23604639167E-03 -0.10232792303E-02  0.39916202751E+01  0.39918208281E+01  0.40000000000E-01 0. -1.
</event>
<event>
 5   0  0.7212170E+07  0.9118800E+02  0.7818608E-02  0.1180000E+00
       11   -1    0    0    0    0  0.00000000000E+00  0.00000000000E+00  0.39999999673E+01  0.40000000000E+01  0.51109989000E-03 0.  1.
     -623   -1    0    0    0    0  0.00000000000E+00  0.00000000000E+00  0.12525980253E-10  0.17130000000E+03  0.17130000000E+03 0.  1.
       11    1    1    2    0    0 -0.44343085576E-03  0.64671832665E-04  0.19276573636E-02  0.20439910417E-02  0.51109989000E-03 0.  1.
     -623    1    1    2    0    0  0.41769458428E-03  0.49748618090E-03  0.31644942947E-03  0.17130000000E+03  0.17130000000E+03 0.  1.
      622    1    1    2    0    0  0.25736271447E-04 -0.56215801360E-03  0.39977558608E+01  0.39979560077E+01  0.40000000000E-01 0.  1.
</event>
<event>
 5   0  0.7212170E+07  0.9118800E+02  0.7818608E-02  0.1180000E+00
       11   -1    0    0    0    0  0.00000000000E+00  0.00000000000E+00  0.39999999673E+01  0.40000000000E+01  0.51109989000E-03 0.  1.
     -623   -1    0    0    0    0  0.00000000000E+00  0.00000000000E+00  0.12525980253E-10  0.17130000000E+03  0.17130000000E+03 0. -1.
       11    1    1    2    0    0  0.36969259063E-02 -0.43012390784E-02  0.45004347850E+00  0.45007950596E+00  0.51109989000E-03 0.  1.
     -623    1    1    2    0    0 -0.79472303780E-03  0.70007131491E-02  0.26371709717E-03  0.17130000015E+03  0.17130000000E+03 0. -1.
      622    1    1    2    0    0 -0.29022028681E-02 -0.26994740739E-02  0.35496927736E+01  0.35499203507E+01  0.40000000000E-01 0.  1.
</event>
<event>
 5   0  0.7212170E+07  0.9118800E+02  0.7818608E-02  0.1180000E+00
       11   -1    0    0    0    0  0.00000000000E+00  0.00000000000E+00  0.39999999673E+01  0.40000000000E+01  0.51109989000E-03 0. -1.
     -623   -1    0    0    0    0  0.00000000000E+00  0.00000000000E+00  0.12525980253E-10  0.17130000000E+03  0.17130000000E+03 0.  1.
       11    1    1    2    0    0  0.46172329331E-03 -0.52849070291E-03  0.29153856208E-02  0.30419051988E-02  0.51109989000E-03 0. -1.
     -623    1    1    2    0    0 -0.53857496928E-03 -0.27410264753E-03  0.32672686177E-03  0.17130000000E+03  0.17130000000E+03 0.  1.
      622    1    1    2    0    0  0.76851676037E-04  0.80259335047E-03  0.39967578554E+01  0.39969580939E+01  0.40000000000E-01 0. -1.
</event>
<event>
 5   0  0.7212170E+07  0.9118800E+02  0.7818608E-02  0.1180000E+00
       11   -1    0    0    0    0  0.00000000000E+00  0.00000000000E+00  0.39999999673E+01  0.40000000000E+01  0.51109989000E-03 0.  1.
     -623   -1    0    0    0    0  0.00000000000E+00  0.00000000000E+00  0.12525980253E-10  0.17130000000E+03  0.17130000000E+03 0.  1.
       11    1    1    2    0    0  0.53475062719E-03 -0.14374264160E-02  0.50911654438E-01  0.50937313765E-01  0.51109989000E-03 0.  1.
     -623    1    1    2    0    0 -0.82665168133E-03  0.25447440729E-03  0.22840191231E-03  0.17130000000E+03  0.17130000000E+03 0.  1.
      622    1    1    2    0    0  0.29190105411E-03  0.11829520087E-02  0.39488599109E+01  0.39490626838E+01  0.40000000000E-01 0.  1.
</event>
<event>
 5   0  0.7212170E+07  0.9118800E+02  0.7818608E-02  0.1180000E+00
       11   -1    0    0    0    0  0.00000000000E+00  0.00000000000E+00  0.39999999673E+01  0.40000000000E+01  0.51109989000E-03 0.  1.
     -623   -1    0    0    0    0  0.00000000000E+00  0.00000000000E+00  0.12525980253E-10  0.17130000000E+03  0.17130000000E+03 0.  1.
       11    1    1    2    0    0  0.89633001769E-03  0.43247632601E-03  0.12275888068E-01  0.12326763332E-01  0.51109989000E-03 0. -1.
     -623    1    1    2    0    0  0.22287379501E-02 -0.53165819639E-03  0.25270724962E-03  0.17130000002E+03  0.17130000000E+03 0.  1.
      622    1    1    2    0    0 -0.31250679677E-02  0.99181870347E-04  0.39874713718E+01  0.39876732209E+01  0.40000000000E-01 0.  1.
</event>
<event>
 5   0  0.7212170E+07  0.9118800E+02  0.7818608E-02  0.1180000E+00
       11   -1    0    0    0    0  0.00000000000E+00  0.00000000000E+00  0.39999999673E+01  0.40000000000E+01  0.51109989000E-03 0. -1.
     -623   -1    0    0    0    0  0.00000000000E+00  0.00000000000E+00  0.12525980253E-10  0.17130000000E+03  0.17130000000E+03 0. -1.
       11    1    1    2    0    0 -0.12933449884E-02 -0.12630517173E-01  0.91232666669E+00  0.91241515259E+00  0.51109989000E-03 0. -1.
     -623    1    1    2    0    0 -0.15463906847E-02 -0.23462013771E-02  0.38522231665E-03  0.17130000002E+03  0.17130000000E+03 0. -1.
      622    1    1    2    0    0  0.28397356730E-02  0.14976718550E-01  0.30872880783E+01  0.30875848239E+01  0.40000000000E-01 0.  0.
</event>
<event>
 5   0  0.7212170E+07  0.9118800E+02  0.7818608E-02  0.1180000E+00
       11   -1    0    0    0    0  0.00000000000E+00  0.00000000000E+00  0.39999999673E+01  0.40000000000E+01  0.51109989000E-03 0.  1.
     -623   -1    0    0    0    0  0.00000000000E+00  0.00000000000E+00  0.12525980253E-10  0.17130000000E+03  0.17130000000E+03 0.  1.
       11    1    1    2    0    0  0.47665479992E-03 -0.21749166532E-03  0.10339282310E-01  0.10365157221E-01  0.51109989000E-03 0. -1.
     -623    1    1    2    0    0 -0.11535143205E-02  0.36949127270E-02  0.22798378074E-03  0.17130000004E+03  0.17130000000E+03 0.  1.
      622    1    1    2    0    0  0.67685952079E-03 -0.34774210625E-02  0.39894327022E+01  0.39896347998E+01  0.40000000000E-01 0.  1.
</event>
<event>
 5   0  0.7212170E+07  0.9118800E+02  0.7818608E-02  0.1180000E+00
       11   -1    0    0    0    0  0.00000000000E+00  0.00000000000E+00  0.39999999673E+01  0.40000000000E+01  0.51109989000E-03 0. -1.
     -623   -1    0    0    0    0  0.00000000000E+00  0.00000000000E+00  0.12525980253E-10  0.17130000000E+03  0.17130000000E+03 0. -1.
       11    1    1    2    0    0 -0.64526414929E-04 -0.99185138142E-02  0.40164554616E+00  0.40176832510E+00  0.51109989000E-03 0. -1.
     -623    1    1    2    0    0  0.31133302462E-03  0.24543991668E-03  0.35809671703E-03  0.17130000000E+03  0.17130000000E+03 0. -1.
      622    1    1    2    0    0 -0.24680660980E-03  0.96730738974E-02  0.35979963258E+01  0.35982316754E+01  0.40000000000E-01 0. -1.
</event>
<event>
 5   0  0.7212170E+07  0.9118800E+02  0.7818608E-02  0.1180000E+00
       11   -1    0    0    0    0  0.00000000000E+00  0.00000000000E+00  0.39999999673E+01  0.40000000000E+01  0.51109989000E-03 0. -1.
     -623   -1    0    0    0    0  0.00000000000E+00  0.00000000000E+00  0.12525980253E-10  0.17130000000E+03  0.17130000000E+03 0.  1.
       11    1    1    2    0    0 -0.51590952759E-02 -0.15666968950E-01  0.24386813798E+01  0.24387372149E+01  0.51109989000E-03 0. -1.
     -623    1    1    2    0    0  0.28041460007E-02 -0.28436445859E-02  0.67988952600E-03  0.17130000005E+03  0.17130000000E+03 0.  1.
      622    1    1    2    0    0  0.23549492746E-02  0.18510613537E-01  0.15606386990E+01  0.15612627381E+01  0.40000000000E-01 0.  0.
</event>
<event>
 5   0  0.7212170E+07  0.9118800E+02  0.7818608E-02  0.1180000E+00
       11   -1    0    0    0    0  0.00000000000E+00  0.00000000000E+00  0.39999999673E+01  0.40000000000E+01  0.51109989000E-03 0.  1.
     -623   -1    0    0    0    0  0.00000000000E+00  0.00000000000E+00  0.12525980253E-10  0.17130000000E+03  0.17130000000E+03 0.  1.
       11    1    1    2    0    0  0.23552271870E-02  0.13120274884E-01  0.20674997757E+00  0.20717988116E+00  0.51109989000E-03 0.  1.
     -623    1    1    2    0    0  0.10684943465E-01  0.17126047509E-02  0.69256898165E-03  0.17130000034E+03  0.17130000000E+03 0.  1.
      622    1    1    2    0    0 -0.13040170652E-01 -0.14832879635E-01  0.37925574206E+01  0.37928197755E+01  0.40000000000E-01 0.  1.
</event>
<event>
 5   0  0.7212170E+07  0.9118800E+02  0.7818608E-02  0.1180000E+00
       11   -1    0    0    0    0  0.00000000000E+00  0.00000000000E+00  0.39999999673E+01  0.40000000000E+01  0.51109989000E-03 0. -1.
     -623   -1    0    0    0    0  0.00000000000E+00  0.00000000000E+00  0.12525980253E-10  0.17130000000E+03  0.17130000000E+03 0. -1.
       11    1    1    2    0    0 -0.34804262557E-02  0.27277860075E-02  0.77011266184E-01  0.77139811549E-01  0.51109989000E-03 0. -1.
     -623    1    1    2    0    0  0.28292836146E-02  0.22808274155E-02  0.33574139072E-03  0.17130000004E+03  0.17130000000E+03 0. -1.
      622    1    1    2    0    0  0.65114264100E-03 -0.50086134231E-02  0.39226529600E+01  0.39228601498E+01  0.40000000000E-01 0. -1.
</event>
<event>
 5   0  0.7212170E+07  0.9118800E+02  0.7818608E-02  0.1180000E+00
       11   -1    0    0    0    0  0.00000000000E+00  0.00000000000E+00  0.39999999673E+01  0.40000000000E+01  0.51109989000E-03 0. -1.
     -623   -1    0    0    0    0  0.00000000000E+00  0.00000000000E+00  0.12525980253E-10  0.17130000000E+03  0.17130000000E+03 0.  1.
       11    1    1    2    0    0 -0.43763061231E-02 -0.10283388068E-01  0.92687422075E+00  0.92694173627E+00  0.51109989000E-03 0. -1.
     -623    1    1    2    0    0  0.43381333256E-02  0.14525637787E-01  0.33142069107E-03  0.17130000067E+03  0.17130000000E+03 0.  1.
      622    1    1    2    0    0  0.38172797693E-04 -0.42422497191E-02  0.30727943257E+01  0.30730575924E+01  0.40000000000E-01 0. -1.
</event>
<event>
 5   0  0.7212170E+07  0.9118800E+02  0.7818608E-02  0.1180000E+00
       11   -1    0    0    0    0  0.00000000000E+00  0.00000000000E+00  0.39999999673E+01  0.40000000000E+01  0.51109989000E-03 0.  1.
     -623   -1    0    0    0    0  0.00000000000E+00  0.00000000000E+00  0.12525980253E-10  0.17130000000E+03  0.17130000000E+03 0. -1.
       11    1    1    2    0    0 -0.77247509789E-03 -0.84259847755E-03  0.39797143204E-01  0.39816837145E-01  0.51109989000E-03 0.  1.
     -623    1    1    2    0    0  0.52066201864E-03 -0.25598899845E-04  0.22178142826E-03  0.17130000000E+03  0.17130000000E+03 0. -1.
      622    1    1    2    0    0  0.25181307901E-03  0.86819737741E-03  0.39599810445E+01  0.39601831637E+01  0.40000000000E-01 0.  1.
</event>
<event>
 5   0  0.7212170E+07  0.9118800E+02  0.7818608E-02  0.1180000E+00
       11   -1    0    0    0    0  0.00000000000E+00  0.00000000000E+00  0.39999999673E+01  0.40000000000E+01  0.51109989000E-03 0. -1.
     -623   -1    0    0    0    0  0.00000000000E+00  0.00000000000E+00  0.12525980253E-10  0.17130000000E+03  0.17130000000E+03 0.  1.
       11    1    1    2    0    0 -0.25583225573E-02 -0.58886420981E-02  0.23781692291E-01  0.24638409677E-01  0.51109989000E-03 0. -1.
     -623    1    1    2    0    0  0.20851133091E-02 -0.11748358832E-02  0.10642531526E-02  0.17130000002E+03  0.17130000000E+03 0.  1.
      622    1    1    2    0    0  0.47320924821E-03  0.70634779813E-02  0.39751540218E+01  0.39753615702E+01  0.40000000000E-01 0. -1.
</event>
<event>
 5   0  0.7212170E+07  0.9118800E+02  0.7818608E-02  0.1180000E+00
       11   -1    0    0    0    0  0.00000000000E+00  0.00000000000E+00  0.39999999673E+01  0.40000000000E+01  0.51109989000E-03 0. -1.
     -623   -1    0    0    0    0  0.00000000000E+00  0.00000000000E+00  0.12525980253E-10  0.17130000000E+03  0.17130000000E+03 0. -1.
       11    1    1    2    0    0  0.28339137408E-02  0.72381017823E-02  0.15930625477E+00  0.15949659938E+00  0.51109989000E-03 0. -1.
     -623    1    1    2    0    0 -0.17254793211E-01 -0.22174519334E-01  0.45705215970E-03  0.17130000230E+03  0.17130000000E+03 0. -1.
      622    1    1    2    0    0  0.14420879469E-01  0.14936417550E-01  0.38402366603E+01  0.38405010956E+01  0.40000000000E-01 0. -1.
</event>
<event>
 5   0  0.7212170E+07  0.9118800E+02  0.7818608E-02  0.1180000E+00
       11   -1    0    0    0    0  0.00000000000E+00  0.00000000000E+00  0.39999999673E+01  0.40000000000E+01  0.51109989000E-03 0. -1.
     -623   -1    0    0    0    0  0.00000000000E+00  0.00000000000E+00  0.12525980253E-10  0.17130000000E+03  0.17130000000E+03 0.  1.
       11    1    1    2    0    0  0.95582441494E-02  0.46170477601E-02  0.22728046148E+00  0.22752878181E+00  0.51109989000E-03 0. -1.
     -623    1    1    2    0    0  0.12241389164E-01 -0.27257595461E-01  0.59389775737E-03  0.17130000261E+03  0.17130000000E+03 0.  1.
      622    1    1    2    0    0 -0.21799633313E-01  0.22640547701E-01  0.37721256081E+01  0.37724686111E+01  0.40000000000E-01 0. -1.
</event>
<event>
 5   0  0.7212170E+07  0.9118800E+02  0.7818608E-02  0.1180000E+00
       11   -1    0    0    0    0  0.00000000000E+00  0.00000000000E+00  0.39999999673E+01  0.40000000000E+01  0.51109989000E-03 0. -1.
     -623   -1    0    0    0    0  0.00000000000E+00  0.00000000000E+00  0.12525980253E-10  0.17130000000E+03  0.17130000000E+03 0.  1.
       11    1    1    2    0    0 -0.74062189084E-02 -0.26359912619E-01  0.14789171566E+01  0.14791706846E+01  0.51109989000E-03 0. -1.
     -623    1    1    2    0    0 -0.50065605520E-03 -0.39542997505E-02  0.76562348454E-03  0.17130000005E+03  0.17130000000E+03 0.  1.
      622    1    1    2    0    0  0.79068749636E-02  0.30314212369E-01  0.25203171874E+01  0.25208292673E+01  0.40000000000E-01 0. -1.
</event>
<event>
 5   0  0.7212170E+07  0.9118800E+02  0.7818608E-02  0.1180000E+00
       11   -1    0    0    0    0  0.00000000000E+00  0.00000000000E+00  0.39999999673E+01  0.40000000000E+01  0.51109989000E-03 0. -1.
     -623   -1    0    0    0    0  0.00000000000E+00  0.00000000000E+00  0.12525980253E-10  0.17130000000E+03  0.17130000000E+03 0. -1.
       11    1    1    2    0    0 -0.12867339051E-01 -0.12009191848E-01  0.57374449508E+00  0.57401463044E+00  0.51109989000E-03 0. -1.
     -623    1    1    2    0    0  0.17079322128E-01  0.82098225195E-02  0.50936534549E-03  0.17130000105E+03  0.17130000000E+03 0. -1.
      622    1    1    2    0    0 -0.42119830814E-02  0.37993693264E-02  0.34257461080E+01  0.34259843217E+01  0.40000000000E-01 0. -1.
</event>
<event>
 5   0  0.7212170E+07  0.9118800E+02  0.7818608E-02  0.1180000E+00
       11   -1    0    0    0    0  0.00000000000E+00  0.00000000000E+00  0.39999999673E+01  0.40000000000E+01  0.51109989000E-03 0. -1.
     -623   -1    0    0    0    0  0.00000000000E+00  0.00000000000E+00  0.12525980253E-10  0.17130000000E+03  0.17130000000E+03 0.  1.
       11    1    1    2    0    0 -0.19152221080E-02 -0.19695875137E-02  0.31086042675E+00  0.31087298611E+00  0.51109989000E-03 0. -1.
     -623    1    1    2    0    0  0.14063369924E-02  0.24783461274E-02  0.22948060472E-03  0.17130000002E+03  0.17130000000E+03 0.  1.
      622    1    1    2    0    0  0.50888511527E-03 -0.50875861420E-03  0.36889100608E+01  0.36891269909E+01  0.40000000000E-01 0. -1.
</event>
<event>
 5   0  0.7212170E+07  0.9118800E+02  0.7818608E-02  0.1180000E+00
       11   -1    0    0    0    0  0.00000000000E+00  0.00000000000E+00  0.39999999673E+01  0.40000000000E+01  0.51109989000E-03 0.  1.
     -623   -1    0    0    0    0  0.00000000000E+00  0.00000000000E+00  0.12525980253E-10  0.17130000000E+03  0.17130000000E+03 0.  1.
       11    1    1    2    0    0 -0.29954484439E-02  0.17297870828E-02  0.10614103914E+00  0.10619861716E+00  0.51109989000E-03 0.  1.
     -623    1    1    2    0    0  0.89632519957E-02 -0.62496358597E-02  0.27055121051E-03  0.17130000035E+03  0.17130000000E+03 0.  1.
      622    1    1    2    0    0 -0.59678035567E-02  0.45198487804E-02  0.38935883792E+01  0.38938010363E+01  0.40000000000E-01 0.  1.
</event>
<event>
 5   0  0.7212170E+07  0.9118800E+02  0.7818608E-02  0.1180000E+00
       11   -1    0    0    0    0  0.00000000000E+00  0.00000000000E+00  0.39999999673E+01  0.40000000000E+01  0.51109989000E-03 0.  1.
     -623   -1    0    0    0    0  0.00000000000E+00  0.00000000000E+00  0.12525980253E-10  0.17130000000E+03  0.17130000000E+03 0. -1.
       11    1    1    2    0    0 -0.28658622941E-01 -0.47966211024E-01  0.30886595625E+01  0.30891649726E+01  0.51109989000E-03 0.  1.
     -623    1    1    2    0    0  0.48581340719E-01  0.31680842656E-01  0.17578540716E-02  0.17130000983E+03  0.17130000000E+03 0. -1.
      622    1    1    2    0    0 -0.19922717782E-01  0.16285368365E-01  0.90958255113E+00  0.91082520015E+00  0.40000000000E-01 0.  1.
</event>
<event>
 5   0  0.7212170E+07  0.9118800E+02  0.7818608E-02  0.1180000E+00
       11   -1    0    0    0    0  0.00000000000E+00  0.00000000000E+00  0.39999999673E+01  0.40000000000E+01  0.51109989000E-03 0. -1.
     -623   -1    0    0    0    0  0.00000000000E+00  0.00000000000E+00  0.12525980253E-10  0.17130000000E+03  0.17130000000E+03 0. -1.
       11    1    1    2    0    0 -0.50926592437E-03 -0.10227418012E-02  0.12381740191E-01  0.12444840932E-01  0.51109989000E-03 0. -1.
     -623    1    1    2    0    0  0.31929677174E-03 -0.99514725545E-04  0.26386031920E-03  0.17130000000E+03  0.17130000000E+03 0. -1.
      622    1    1    2    0    0  0.18996915265E-03  0.11222565267E-02  0.39873543665E+01  0.39875551582E+01  0.40000000000E-01 0. -1.
</event>
<event>
 5   0  0.7212170E+07  0.9118800E+02  0.7818608E-02  0.1180000E+00
       11   -1    0    0    0    0  0.00000000000E+00  0.00000000000E+00  0.39999999673E+01  0.40000000000E+01  0.51109989000E-03 0.  1.
     -623   -1    0    0    0    0  0.00000000000E+00  0.00000000000E+00  0.12525980253E-10  0.17130000000E+03  0.17130000000E+03 0. -1.
       11    1    1    2    0    0  0.40464965606E-03 -0.10574815215E-02  0.14013833214E-02  0.18727271087E-02  0.51109989000E-03 0.  1.
     -623    1    1    2    0    0 -0.16111576378E-02 -0.15328146870E-03  0.67178418822E-03  0.17130000001E+03  0.17130000000E+03 0. -1.
      622    1    1    2    0    0  0.12065079818E-02  0.12107629902E-02  0.39979267999E+01  0.39981272640E+01  0.40000000000E-01 0.  1.
</event>
<event>
 5   0  0.7212170E+07  0.9118800E+02  0.7818608E-02  0.1180000E+00
       11   -1    0    0    0    0  0.00000000000E+00  0.00000000000E+00  0.39999999673E+01  0.40000000000E+01  0.51109989000E-03 0.  1.
     -623   -1    0    0    0    0  0.00000000000E+00  0.00000000000E+00  0.12525980253E-10  0.17130000000E+03  0.17130000000E+03 0.  1.
       11    1    1    2    0    0  0.85125804709E-03  0.76263194658E-03  0.16067593144E-01  0.16116296730E-01  0.51109989000E-03 0.  1.
     -623    1    1    2    0    0 -0.19723080545E-02 -0.58862738338E-03  0.24965916770E-03  0.17130000001E+03  0.17130000000E+03 0.  1.
      622    1    1    2    0    0  0.11210500074E-02 -0.17400456320E-03  0.39836827151E+01  0.39838836907E+01  0.40000000000E-01 0.  1.
</event>
<event>
 5   0  0.7212170E+07  0.9118800E+02  0.7818608E-02  0.1180000E+00
       11   -1    0    0    0    0  0.00000000000E+00  0.00000000000E+00  0.39999999673E+01  0.40000000000E+01  0.51109989000E-03 0. -1.
     -623   -1    0    0    0    0  0.00000000000E+00  0.00000000000E+00  0.12525980253E-10  0.17130000000E+03  0.17130000000E+03 0. -1.
       11    1    1    2    0    0 -0.64334504535E-03  0.28975639728E-03  0.44408763486E-02  0.45255339418E-02  0.51109989000E-03 0. -1.
     -623    1    1    2    0    0  0.19942582363E-02 -0.29757175397E-03  0.28509700656E-03  0.17130000001E+03  0.17130000000E+03 0. -1.
      622    1    1    2    0    0 -0.13509131903E-02  0.78153565864E-05  0.39952739927E+01  0.39954744527E+01  0.40000000000E-01 0. -1.
</event>
<event>
 5   0  0.7212170E+07  0.9118800E+02  0.7818608E-02  0.1180000E+00
       11   -1    0    0    0    0  0.00000000000E+00  0.00000000000E+00  0.39999999673E+01  0.40000000000E+01  0.51109989000E-03 0. -1.
     -623   -1    0    0    0    0  0.00000000000E+00  0.00000000000E+00  0.12525980253E-10  0.17130000000E+03  0.17130000000E+03 0. -1.
       11    1    1    2    0    0 -0.11696694954E-02  0.11689066901E-01  0.43471092460E+00  0.43486992492E+00  0.51109989000E-03 0. -1.
     -623    1    1    2    0    0 -0.19081276865E-02 -0.51499177882E-04  0.40370558732E-03  0.17130000001E+03  0.17130000000E+03 0. -1.
      622    1    1    2    0    0  0.30777971825E-02 -0.11637567723E-01  0.35648853385E+01  0.35651300653E+01  0.40000000000E-01 0. -1.
</event>
<event>
 5   0  0.7212170E+07  0.9118800E+02  0.7818608E-02  0.1180000E+00
       11   -1    0    0    0    0  0.00000000000E+00  0.00000000000E+00  0.39999999673E+01  0.40000000000E+01  0.51109989000E-03 0.  1.
     -623   -1    0    0    0    0  0.00000000000E+00  0.00000000000E+00  0.12525980253E-10  0.17130000000E+03  0.17130000000E+03 0.  1.
       11    1    1    2    0    0 -0.16526335019E-02  0.32859083946E-02  0.96739827162E-01  0.96811072579E-01  0.51109989000E-03 0.  1.
     -623    1    1    2    0    0  0.32148579850E-03 -0.16384491636E-02  0.27676183239E-03  0.17130000001E+03  0.17130000000E+03 0.  1.
      622    1    1    2    0    0  0.13311477033E-02 -0.16474592307E-02  0.39029833790E+01  0.39031889197E+01  0.40000000000E-01 0.  1.
</event>
<event>
 5   0  0.7212170E+07  0.9118800E+02  0.7818608E-02  0.1180000E+00
       11   -1    0    0    0    0  0.00000000000E+00  0.00000000000E+00  0.39999999673E+01  0.40000000000E+01  0.51109989000E-03 0.  1.
     -623   -1    0    0    0    0  0.00000000000E+00  0.00000000000E+00  0.12525980253E-10  0.17130000000E+03  0.17130000000E+03 0. -1.
       11    1    1    2    0    0  0.14856701700E-01  0.13824519953E-01  0.10365529359E+01  0.10367517007E+01  0.51109989000E-03 0.  1.
     -623    1    1    2    0    0  0.20800270371E-02 -0.37831014998E-02  0.53419565542E-03  0.17130000006E+03  0.17130000000E+03 0. -1.
      622    1    1    2    0    0 -0.16936728738E-01 -0.10041418452E-01  0.29629128365E+01  0.29632482447E+01  0.40000000000E-01 0.  1.
</event>
<event>
 5   0  0.7212170E+07  0.9118800E+02  0.7818608E-02  0.1180000E+00
       11   -1    0    0    0    0  0.00000000000E+00  0.00000000000E+00  0.39999999673E+01  0.40000000000E+01  0.51109989000E-03 0.  1.
     -623   -1    0    0    0    0  0.00000000000E+00  0.00000000000E+00  0.12525980253E-10  0.17130000000E+03  0.17130000000E+03 0. -1.
       11    1    1    2    0    0 -0.25954282646E-02 -0.12765981606E-02  0.11507847404E+00  0.11511595181E+00  0.51109989000E-03 0.  1.
     -623    1    1    2    0    0  0.15377070780E-02  0.18730600427E-02  0.24358404565E-03  0.17130000002E+03  0.17130000000E+03 0. -1.
      622    1    1    2    0    0  0.10577211857E-02 -0.59646188321E-03  0.38846779117E+01  0.38848840333E+01  0.40000000000E-01 0.  1.
</event>
<event>
 5   0  0.7212170E+07  0.9118800E+02  0.7818608E-02  0.1180000E+00
       11   -1    0    0    0    0  0.00000000000E+00  0.00000000000E+00  0.39999999673E+01  0.40000000000E+01  0.51109989000E-03 0.  1.
     -623   -1    0    0    0    0  0.00000000000E+00  0.00000000000E+00  0.12525980253E-10  0.17130000000E+03  0.17130000000E+03 0.  1.
       11    1    1    2    0    0 -0.11464805060E-02 -0.13281437279E-02  0.14762682340E-02  0.23492497331E-02  0.51109989000E-03 0.  1.
     -623    1    1    2    0    0  0.25412788575E-02  0.12587258456E-02  0.10733421792E-02  0.17130000003E+03  0.17130000000E+03 0.  1.
      622    1    1    2    0    0 -0.13947983515E-02  0.69417882320E-04  0.39974503569E+01  0.39976507234E+01  0.40000000000E-01 0.  1.
</event>
<event>
 5   0  0.7212170E+07  0.9118800E+02  0.7818608E-02  0.1180000E+00
       11   -1    0    0    0    0  0.00000000000E+00  0.00000000000E+00  0.39999999673E+01  0.40000000000E+01  0.51109989000E-03 0. -1.
     -623   -1    0    0    0    0  0.00000000000E+00  0.00000000000E+00  0.12525980253E-10  0.17130000000E+03  0.17130000000E+03 0.  1.
       11    1    1    2    0    0  0.53955030717E-02  0.34282470542E-02  0.54081623704E-02  0.83889078302E-02  0.51109989000E-03 0. -1.
     -623    1    1    2    0    0 -0.15017717849E-01 -0.20695343902E-01  0.32320250859E-02  0.17130000194E+03  0.17130000000E+03 0.  1.
      622    1    1    2    0    0  0.96222147775E-02  0.17267096849E-01  0.39913597800E+01  0.39916091534E+01  0.40000000000E-01 0. -1.
</event>
<event>
 5   0  0.7212170E+07  0.9118800E+02  0.7818608E-02  0.1180000E+00
       11   -1    0    0    0    0  0.00000000000E+00  0.00000000000E+00  0.39999999673E+01  0.40000000000E+01  0.51109989000E-03 0. -1.
     -623   -1    0    0    0    0  0.00000000000E+00  0.00000000000E+00  0.12525980253E-10  0.17130000000E+03  0.17130000000E+03 0. -1.
       11    1    1    2    0    0 -0.28515705613E-02  0.25204923398E-02  0.21638268868E+00  0.21641675887E+00  0.51109989000E-03 0. -1.
     -623    1    1    2    0    0  0.76591998440E-05  0.20968222110E-03  0.24753749014E-03  0.17130000000E+03  0.17130000000E+03 0. -1.
      622    1    1    2    0    0  0.28439113615E-02 -0.27301745609E-02  0.37833697422E+01  0.37835832419E+01  0.40000000000E-01 0. -1.
</event>
<event>
 5   0  0.7212170E+07  0.9118800E+02  0.7818608E-02  0.1180000E+00
       11   -1    0    0    0    0  0.00000000000E+00  0.00000000000E+00  0.39999999673E+01  0.40000000000E+01  0.51109989000E-03 0. -1.
     -623   -1    0    0    0    0  0.00000000000E+00  0.00000000000E+00  0.12525980253E-10  0.17130000000E+03  0.17130000000E+03 0. -1.
       11    1    1    2    0    0 -0.19116308355E-01  0.11064029246E-01  0.60946383023E+00  0.60986413862E+00  0.51109989000E-03 0. -1.
     -623    1    1    2    0    0 -0.15801676641E-02 -0.63177998878E-02  0.70289068555E-03  0.17130000013E+03  0.17130000000E+03 0. -1.
      622    1    1    2    0    0  0.20696476019E-01 -0.47462293584E-02  0.33898332463E+01  0.33901357360E+01  0.40000000000E-01 0. -1.
</event>
<event>
 5   0  0.7212170E+07  0.9118800E+02  0.7818608E-02  0.1180000E+00
       11   -1    0    0    0    0  0.00000000000E+00  0.00000000000E+00  0.39999999673E+01  0.40000000000E+01  0.51109989000E-03 0. -1.
     -623   -1    0    0    0    0  0.00000000000E+00  0.00000000000E+00  0.12525980253E-10  0.17130000000E+03  0.17130000000E+03 0. -1.
       11    1    1    2    0    0 -0.64675596925E-02 -0.20983578643E-02  0.45626709501E+00  0.45631804220E+00  0.51109989000E-03 0. -1.
     -623    1    1    2    0    0 -0.49228307647E-03  0.35457900231E-03  0.28394108074E-03  0.17130000000E+03  0.17130000000E+03 0. -1.
      622    1    1    2    0    0  0.69598427692E-02  0.17437788618E-02  0.35434489332E+01  0.35436819584E+01  0.40000000000E-01 0. -1.
</event>
<event>
 5   0  0.7212170E+07  0.9118800E+02  0.7818608E-02  0.1180000E+00
       11   -1    0    0    0    0  0.00000000000E+00  0.00000000000E+00  0.39999999673E+01  0.40000000000E+01  0.51109989000E-03 0. -1.
     -623   -1    0    0    0    0  0.00000000000E+00  0.00000000000E+00  0.12525980253E-10  0.17130000000E+03  0.17130000000E+03 0. -1.
       11    1    1    2    0    0  0.11614015984E-01 -0.52985623693E-03  0.80750368479E-01  0.81584614650E-01  0.51109989000E-03 0. -1.
     -623    1    1    2    0    0 -0.37126232568E-03  0.40449976263E-02  0.10561409872E-02  0.17130000005E+03  0.17130000000E+03 0. -1.
      622    1    1    2    0    0 -0.11242753658E-01 -0.35151413892E-02  0.39181934578E+01  0.39184153338E+01  0.40000000000E-01 0. -1.
</event>
<event>
 5   0  0.7212170E+07  0.9118800E+02  0.7818608E-02  0.1180000E+00
       11   -1    0    0    0    0  0.00000000000E+00  0.00000000000E+00  0.39999999673E+01  0.40000000000E+01  0.51109989000E-03 0.  1.
     -623   -1    0    0    0    0  0.00000000000E+00  0.00000000000E+00  0.12525980253E-10  0.17130000000E+03  0.17130000000E+03 0. -1.
       11    1    1    2    0    0  0.22330464831E-02  0.92685061009E-03  0.18144863547E-01  0.18312368632E-01  0.51109989000E-03 0.  1.
     -623    1    1    2    0    0 -0.32662584554E-03  0.21055233325E-03  0.36901706161E-03  0.17130000000E+03  0.17130000000E+03 0. -1.
      622    1    1    2    0    0 -0.19064206376E-02 -0.11374029433E-02  0.39814860862E+01  0.39816876299E+01  0.40000000000E-01 0.  1.
</event>
<event>
 5   0  0.7212170E+07  0.9118800E+02  0.7818608E-02  0.1180000E+00
       11   -1    0    0    0    0  0.00000000000E+00  0.00000000000E+00  0.39999999673E+01  0.40000000000E+01  0.51109989000E-03 0.  1.
     -623   -1    0    0    0    0  0.00000000000E+00  0.00000000000E+00  0.12525980253E-10  0.17130000000E+03  0.17130000000E+03 0. -1.
       11    1    1    2    0    0 -0.66757774976E-02  0.98873521950E-02  0.11578006072E+00  0.11639419841E+00  0.51109989000E-03 0.  1.
     -623    1    1    2    0    0  0.12266718457E-01 -0.49055113391E-02  0.82783625659E-03  0.17130000051E+03  0.17130000000E+03 0. -1.
      622    1    1    2    0    0 -0.55909409591E-02 -0.49818408561E-02  0.38833920701E+01  0.38836052899E+01  0.40000000000E-01 0.  1.
</event>
<event>
 5   0  0.7212170E+07  0.9118800E+02  0.7818608E-02  0.1180000E+00
       11   -1    0    0    0    0  0.00000000000E+00  0.00000000000E+00  0.39999999673E+01  0.40000000000E+01  0.51109989000E-03 0. -1.
     -623   -1    0    0    0    0  0.00000000000E+00  0.00000000000E+00  0.12525980253E-10  0.17130000000E+03  0.17130000000E+03 0. -1.
       11    1    1    2    0    0 -0.35103654452E-03  0.11505199065E-02  0.25406871552E-01  0.25440465166E-01  0.51109989000E-03 0. -1.
     -623    1    1    2    0    0 -0.13301793037E-03 -0.13124738490E-03  0.23500667911E-03  0.17130000000E+03  0.17130000000E+03 0. -1.
      622    1    1    2    0    0  0.48405447493E-03 -0.10192725215E-02  0.39743580906E+01  0.39745595361E+01  0.40000000000E-01 0. -1.
</event>
<event>
 5   0  0.7212170E+07  0.9118800E+02  0.7818608E-02  0.1180000E+00
       11   -1    0    0    0    0  0.00000000000E+00  0.00000000000E+00  0.39999999673E+01  0.40000000000E+01  0.51109989000E-03 0.  1.
     -623   -1    0    0    0    0  0.00000000000E+00  0.00000000000E+00  0.12525980253E-10  0.17130000000E+03  0.17130000000E+03 0.  1.
       11    1    1    2    0    0  0.81695180614E-02 -0.41809438599E-02  0.37749037019E+00  0.37760225386E+00  0.51109989000E-03 0.  1.
     -623    1    1    2    0    0  0.62790061084E-03 -0.49605746041E-02  0.35499833121E-03  0.17130000007E+03  0.17130000000E+03 0.  1.
      622    1    1    2    0    0 -0.87974186725E-02  0.91415184661E-02  0.36221546006E+01  0.36223976745E+01  0.40000000000E-01 0.  1.
</event>
<event>
 5   0  0.7212170E+07  0.9118800E+02  0.7818608E-02  0.1180000E+00
       11   -1    0    0    0    0  0.00000000000E+00  0.00000000000E+00  0.39999999673E+01  0.40000000000E+01  0.51109989000E-03 0. -1.
     -623   -1    0    0    0    0  0.00000000000E+00  0.00000000000E+00  0.12525980253E-10  0.17130000000E+03  0.17130000000E+03 0.  1.
       11    1    1    2    0    0 -0.34414301944E-04  0.25852927316E-02  0.48489417631E-01  0.48560990189E-01  0.51109989000E-03 0. -1.
     -623    1    1    2    0    0 -0.35103692146E-03 -0.18119261050E-03  0.27475384878E-03  0.17130000000E+03  0.17130000000E+03 0.  1.
      622    1    1    2    0    0  0.38545122341E-03 -0.24041001211E-02  0.39512357959E+01  0.39514390091E+01  0.40000000000E-01 0. -1.
</event>
<event>
 5   0  0.7212170E+07  0.9118800E+02  0.7818608E-02  0.1180000E+00
       11   -1    0    0    0    0  0.00000000000E+00  0.00000000000E+00  0.39999999673E+01  0.40000000000E+01  0.51109989000E-03 0. -1.
     -623   -1    0    0    0    0  0.00000000000E+00  0.00000000000E+00  0.12525980253E-10  0.17130000000E+03  0.17130000000E+03 0. -1.
       11    1    1    2    0    0  0.20017318378E-01  0.32368195376E-02  0.10260884312E+01  0.10262888969E+01  0.51109989000E-03 0. -1.
     -623    1    1    2    0    0  0.36352932031E-03  0.12097531111E-02  0.54264869848E-03  0.17130000001E+03  0.17130000000E+03 0. -1.
      622    1    1    2    0    0 -0.20380847698E-01 -0.44465726486E-02  0.29733688872E+01  0.29737110973E+01  0.40000000000E-01 0. -1.
</event>
<event>
 5   0  0.7212170E+07  0.9118800E+02  0.7818608E-02  0.1180000E+00
       11   -1    0    0    0    0  0.00000000000E+00  0.00000000000E+00  0.39999999673E+01  0.40000000000E+01  0.51109989000E-03 0.  1.
     -623   -1    0    0    0    0  0.00000000000E+00  0.00000000000E+00  0.12525980253E-10  0.17130000000E+03  0.17130000000E+03 0. -1.
       11    1    1    2    0    0 -0.43589313238E-02  0.58349000382E-03  0.23618566575E-01  0.24029953246E-01  0.51109989000E-03 0.  1.
     -623    1    1    2    0    0 -0.44233453678E-03 -0.58288172732E-02  0.61902797475E-03  0.17130000010E+03  0.17130000000E+03 0. -1.
      622    1    1    2    0    0  0.48012658606E-02  0.52453272697E-02  0.39757623731E+01  0.39759699461E+01  0.40000000000E-01 0.  1.
</event>
<event>
 5   0  0.7212170E+07  0.9118800E+02  0.7818608E-02  0.1180000E+00
       11   -1    0    0    0    0  0.00000000000E+00  0.00000000000E+00  0.39999999673E+01  0.40000000000E+01  0.51109989000E-03 0. -1.
     -623   -1    0    0    0    0  0.00000000000E+00  0.00000000000E+00  0.12525980253E-10  0.17130000000E+03  0.17130000000E+03 0. -1.
       11    1    1    2    0    0  0.36102431423E-01  0.19261711022E-01  0.16304475753E+01  0.16309610529E+01  0.51109989000E-03 0. -1.
     -623    1    1    2    0    0 -0.50249858070E-02  0.16623243758E-01  0.13277827690E-02  0.17130000089E+03  0.17130000000E+03 0. -1.
      622    1    1    2    0    0 -0.31077445615E-01 -0.35884954780E-01  0.23682246093E+01  0.23690380617E+01  0.40000000000E-01 0. -1.
</event>
<event>
 5   0  0.7212170E+07  0.9118800E+02  0.7818608E-02  0.1180000E+00
       11   -1    0    0    0    0  0.00000000000E+00  0.00000000000E+00  0.39999999673E+01  0.40000000000E+01  0.51109989000E-03 0. -1.
     -623   -1    0    0    0    0  0.00000000000E+00  0.00000000000E+00  0.12525980253E-10  0.17130000000E+03  0.17130000000E+03 0.  1.
       11    1    1    2    0    0 -0.20933195823E-03 -0.99377912393E-03  0.22790651584E-02  0.25469153715E-02  0.51109989000E-03 0. -1.
     -623    1    1    2    0    0  0.71369267283E-03  0.53785036747E-03  0.46801080130E-03  0.17130000000E+03  0.17130000000E+03 0.  1.
      622    1    1    2    0    0 -0.50436071467E-03  0.45592875640E-03  0.39972528918E+01  0.39974530821E+01  0.40000000000E-01 0. -1.
</event>
<event>
 5   0  0.7212170E+07  0.9118800E+02  0.7818608E-02  0.1180000E+00
       11   -1    0    0    0    0  0.00000000000E+00  0.00000000000E+00  0.39999999673E+01  0.40000000000E+01  0.51109989000E-03 0.  1.
     -623   -1    0    0    0    0  0.00000000000E+00  0.00000000000E+00  0.12525980253E-10  0.17130000000E+03  0.17130000000E+03 0. -1.
       11    1    1    2    0    0 -0.98129025324E-02  0.56967120763E-02  0.19496932614E+01  0.19497263450E+01  0.51109989000E-03 0.  1.
     -623    1    1    2    0    0 -0.11607010195E-02  0.51958887962E-03  0.46208352258E-03  0.17130000001E+03  0.17130000000E+03 0. -1.
      622    1    1    2    0    0  0.10973603552E-01 -0.62163009559E-02  0.20498446224E+01  0.20502736496E+01  0.40000000000E-01 0.  0.
</event>
<event>
 5   0  0.7212170E+07  0.9118800E+02  0.7818608E-02  0.1180000E+00
       11   -1    0    0    0    0  0.00000000000E+00  0.00000000000E+00  0.39999999673E+01  0.40000000000E+01  0.51109989000E-03 0. -1.
     -623   -1    0    0    0    0  0.00000000000E+00  0.00000000000E+00  0.12525980253E-10  0.17130000000E+03  0.17130000000E+03 0. -1.
       11    1    1    2    0    0  0.10902662731E-02 -0.10682913269E-02  0.73318592512E-02  0.75064845356E-02  0.51109989000E-03 0. -1.
     -623    1    1    2    0    0 -0.35531364780E-03  0.58349313834E-03  0.37507256068E-03  0.17130000000E+03  0.17130000000E+03 0. -1.
      622    1    1    2    0    0 -0.73495262522E-03  0.48479818850E-03  0.39922930359E+01  0.39924935141E+01  0.40000000000E-01 0. -1.
</event>
<event>
 5   0  0.7212170E+07  0.9118800E+02  0.7818608E-02  0.1180000E+00
       11   -1    0    0    0    0  0.00000000000E+00  0.00000000000E+00  0.39999999673E+01  0.40000000000E+01  0.51109989000E-03 0. -1.
     -623   -1    0    0    0    0  0.00000000000E+00  0.00000000000E+00  0.12525980253E-10  0.17130000000E+03  0.17130000000E+03 0. -1.
       11    1    1    2    0    0  0.84023983681E-02  0.16181688289E-01  0.71542076763E+00  0.71565325634E+00  0.51109989000E-03 0. -1.
     -623    1    1    2    0    0 -0.13607417740E-01  0.21883806416E-03  0.52166265356E-03  0.17130000054E+03  0.17130000000E+03 0. -1.
      622    1    1    2    0    0  0.52050193751E-02 -0.16400526353E-01  0.32840575380E+01  0.32843462032E+01  0.40000000000E-01 0. -1.
</event>
<event>
 5   0  0.7212170E+07  0.9118800E+02  0.7818608E-02  0.1180000E+00
       11   -1    0    0    0    0  0.00000000000E+00  0.00000000000E+00  0.39999999673E+01  0.40000000000E+01  0.51109989000E-03 0.  1.
     -623   -1    0    0    0    0  0.00000000000E+00  0.00000000000E+00  0.12525980253E-10  0.17130000000E+03  0.17130000000E+03 0.  1.
       11    1    1    2    0    0 -0.62009825011E-02 -0.97362676708E-02  0.31499431068E-01  0.33551787923E-01  0.51109989000E-03 0.  1.
     -623    1    1    2    0    0 -0.84280440350E-02 -0.34324660066E-01  0.25294103688E-02  0.17130000366E+03  0.17130000000E+03 0.  1.
      622    1    1    2    0    0  0.14629026536E-01  0.44060927737E-01  0.39659711259E+01  0.39664445471E+01  0.40000000000E-01 0.  1.
</event>
<event>
 5   0  0.7212170E+07  0.9118800E+02  0.7818608E-02  0.1180000E+00
       11   -1    0    0    0    0  0.00000000000E+00  0.00000000000E+00  0.39999999673E+01  0.40000000000E+01  0.51109989000E-03 0.  1.
     -623   -1    0    0    0    0  0.00000000000E+00  0.00000000000E+00  0.12525980253E-10  0.17130000000E+03  0.17130000000E+03 0. -1.
       11    1    1    2    0    0 -0.72206866998E-02  0.35432531018E-02  0.49995040697E+00  0.50001536338E+00  0.51109989000E-03 0.  1.
     -623    1    1    2    0    0 -0.71182982139E-03  0.58249503530E-03  0.30492816234E-03  0.17130000000E+03  0.17130000000E+03 0. -1.
      622    1    1    2    0    0  0.79325165210E-02 -0.41257481370E-02  0.34997446314E+01  0.34999846330E+01  0.40000000000E-01 0.  0.
</event>
<event>
 5   0  0.7212170E+07  0.9118800E+02  0.7818608E-02  0.1180000E+00
       11   -1    0    0    0    0  0.00000000000E+00  0.00000000000E+00  0.39999999673E+01  0.40000000000E+01  0.51109989000E-03 0.  1.
     -623   -1    0    0    0    0  0.00000000000E+00  0.00000000000E+00  0.12525980253E-10  0.17130000000E+03  0.17130000000E+03 0. -1.
       11    1    1    2    0    0 -0.16537128368E-02  0.49183579433E-03  0.16392673612E-02  0.24341506063E-02  0.51109989000E-03 0.  1.
     -623    1    1    2    0    0 -0.12822835437E-04  0.78736943410E-03  0.99553417608E-03  0.17130000000E+03  0.17130000000E+03 0. -1.
      622    1    1    2    0    0  0.16665356722E-02 -0.12792052285E-02  0.39973651661E+01  0.39975658450E+01  0.40000000000E-01 0.  1.
</event>
<event>
 5   0  0.7212170E+07  0.9118800E+02  0.7818608E-02  0.1180000E+00
       11   -1    0    0    0    0  0.00000000000E+00  0.00000000000E+00  0.39999999673E+01  0.40000000000E+01  0.51109989000E-03 0. -1.
     -623   -1    0    0    0    0  0.00000000000E+00  0.00000000000E+00  0.12525980253E-10  0.17130000000E+03  0.17130000000E+03 0.  1.
       11    1    1    2    0    0 -0.34516627587E-02  0.35353135856E-03  0.41809131746E-01  0.41955973123E-01  0.51109989000E-03 0. -1.
     -623    1    1    2    0    0  0.21745776530E-02 -0.48142718643E-03  0.34915687510E-03  0.17130000001E+03  0.17130000000E+03 0.  1.
      622    1    1    2    0    0  0.12770851048E-02  0.12789582806E-03  0.39578416803E+01  0.39580440136E+01  0.40000000000E-01 0. -1.
</event>
<event>
 5   0  0.7212170E+07  0.9118800E+02  0.7818608E-02  0.1180000E+00
       11   -1    0    0    0    0  0.00000000000E+00  0.00000000000E+00  0.39999999673E+01  0.40000000000E+01  0.51109989000E-03 0. -1.
     -623   -1    0    0    0    0  0.00000000000E+00  0.00000000000E+00  0.12525980253E-10  0.17130000000E+03  0.17130000000E+03 0.  1.
       11    1    1    2    0    0 -0.57525816738E-02  0.34443996897E-02  0.17911622130E+01  0.17911748352E+01  0.51109989000E-03 0. -1.
     -623    1    1    2    0    0  0.70466365814E-03 -0.78029753834E-03  0.38218242984E-03  0.17130000000E+03  0.17130000000E+03 0.  1.
      622    1    1    2    0    0  0.50479180156E-02 -0.26641021514E-02  0.22084555721E+01  0.22088251612E+01  0.40000000000E-01 0.  0.
</event>
<event>
 5   0  0.7212170E+07  0.9118800E+02  0.7818608E-02  0.1180000E+00
       11   -1    0    0    0    0  0.00000000000E+00  0.00000000000E+00  0.39999999673E+01  0.40000000000E+01  0.51109989000E-03 0. -1.
     -623   -1    0    0    0    0  0.00000000000E+00  0.00000000000E+00  0.12525980253E-10  0.17130000000E+03  0.17130000000E+03 0. -1.
       11    1    1    2    0    0  0.50782229435E-02 -0.18167488409E-02  0.24002624588E+00  0.24008737755E+00  0.51109989000E-03 0. -1.
     -623    1    1    2    0    0  0.62054891034E-04 -0.16074912162E-02  0.27895699829E-03  0.17130000001E+03  0.17130000000E+03 0. -1.
      622    1    1    2    0    0 -0.51402778345E-02  0.34242400570E-02  0.37596947642E+01  0.37599126144E+01  0.40000000000E-01 0. -1.
</event>
<event>
 5   0  0.7212170E+07  0.9118800E+02  0.7818608E-02  0.1180000E+00
       11   -1    0    0    0    0  0.00000000000E+00  0.00000000000E+00  0.39999999673E+01  0.40000000000E+01  0.51109989000E-03 0.  1.
     -623   -1    0    0    0    0  0.00000000000E+00  0.00000000000E+00  0.12525980253E-10  0.17130000000E+03  0.17130000000E+03 0. -1.
       11    1    1    2    0    0 -0.57231205303E-02 -0.13074618448E-01  0.81595517051E-01  0.82835918430E-01  0.51109989000E-03 0.  1.
     -623    1    1    2    0    0 -0.95280644553E-02 -0.20511351998E-01  0.16197907576E-02  0.17130000150E+03  0.17130000000E+03 0. -1.
      622    1    1    2    0    0  0.15251184986E-01  0.33585970447E-01  0.39167846598E+01  0.39171625812E+01  0.40000000000E-01 0.  1.
</event>
<event>
 5   0  0.7212170E+07  0.9118800E+02  0.7818608E-02  0.1180000E+00
       11   -1    0    0    0    0  0.00000000000E+00  0.00000000000E+00  0.39999999673E+01  0.40000000000E+01  0.51109989000E-03 0.  1.
     -623   -1    0    0    0    0  0.00000000000E+00  0.00000000000E+00  0.12525980253E-10  0.17130000000E+03  0.17130000000E+03 0.  1.
       11    1    1    2    0    0  0.37785418769E-01  0.12366104372E-01  0.53152846051E-01  0.66378796881E-01  0.51109989000E-03 0.  1.
     -623    1    1    2    0    0 -0.26535325370E-02 -0.36550482515E-01  0.13665011518E-01  0.17130000447E+03  0.17130000000E+03 0.  1.
      622    1    1    2    0    0 -0.35131886232E-01  0.24184378143E-01  0.39331821098E+01  0.39336167381E+01  0.40000000000E-01 0.  1.
</event>
<event>
 5   0  0.7212170E+07  0.9118800E+02  0.7818608E-02  0.1180000E+00
       11   -1    0    0    0    0  0.00000000000E+00  0.00000000000E+00  0.39999999673E+01  0.40000000000E+01  0.51109989000E-03 0. -1.
     -623   -1    0    0    0    0  0.00000000000E+00  0.00000000000E+00  0.12525980253E-10  0.17130000000E+03  0.17130000000E+03 0. -1.
       11    1    1    2    0    0 -0.94679168966E-02  0.36155204030E-02  0.40824305110E+00  0.40836915093E+00  0.51109989000E-03 0. -1.
     -623    1    1    2    0    0  0.26815675941E-02  0.29751504628E-03  0.35737926972E-03  0.17130000002E+03  0.17130000000E+03 0. -1.
      622    1    1    2    0    0  0.67863493024E-02 -0.39130354493E-02  0.35913995371E+01  0.35916308275E+01  0.40000000000E-01 0. -1.
</event>
<event>
 5   0  0.7212170E+07  0.9118800E+02  0.7818608E-02  0.1180000E+00
       11   -1    0    0    0    0  0.00000000000E+00  0.00000000000E+00  0.39999999673E+01  0.40000000000E+01  0.51109989000E-03 0.  1.
     -623   -1    0    0    0    0  0.00000000000E+00  0.00000000000E+00  0.12525980253E-10  0.17130000000E+03  0.17130000000E+03 0. -1.
       11    1    1    2    0    0  0.25278226373E-02 -0.39781163418E-02  0.82976787540E-01  0.83112115786E-01  0.51109989000E-03 0.  1.
     -623    1    1    2    0    0 -0.61148257197E-04  0.13376506807E-02  0.34121707416E-03  0.17130000001E+03  0.17130000000E+03 0. -1.
      622    1    1    2    0    0 -0.24666743801E-02  0.26404656611E-02  0.39166819630E+01  0.39168878789E+01  0.40000000000E-01 0.  1.
</event>
<event>
 5   0  0.7212170E+07  0.9118800E+02  0.7818608E-02  0.1180000E+00
       11   -1    0    0    0    0  0.00000000000E+00  0.00000000000E+00  0.39999999673E+01  0.40000000000E+01  0.51109989000E-03 0. -1.
     -623   -1    0    0    0    0  0.00000000000E+00  0.00000000000E+00  0.12525980253E-10  0.17130000000E+03  0.17130000000E+03 0. -1.
       11    1    1    2    0    0  0.78368352536E-02 -0.49925135148E-02  0.23903642265E+01  0.23903823413E+01  0.51109989000E-03 0. -1.
     -623    1    1    2    0    0  0.54717100392E-03  0.93574427294E-03  0.54213128661E-03  0.17130000000E+03  0.17130000000E+03 0. -1.
      622    1    1    2    0    0 -0.83840062576E-02  0.40567692418E-02  0.16090936100E+01  0.16096176548E+01  0.40000000000E-01 0. -1.
</event>
<event>
 5   0  0.7212170E+07  0.9118800E+02  0.7818608E-02  0.1180000E+00
       11   -1    0    0    0    0  0.00000000000E+00  0.00000000000E+00  0.39999999673E+01  0.40000000000E+01  0.51109989000E-03 0.  1.
     -623   -1    0    0    0    0  0.00000000000E+00  0.00000000000E+00  0.12525980253E-10  0.17130000000E+03  0.17130000000E+03 0.  1.
       11    1    1    2    0    0 -0.93747727253E-04 -0.33650815140E-03  0.15088795623E-02  0.16309405273E-02  0.51109989000E-03 0.  1.
     -623    1    1    2    0    0  0.29877984047E-03 -0.14719989024E-03  0.32215005540E-03  0.17130000000E+03  0.17130000000E+03 0.  1.
      622    1    1    2    0    0 -0.20503211328E-03  0.48370804167E-03  0.39981689386E+01  0.39983690597E+01  0.40000000000E-01 0.  1.
</event>
<event>
 5   0  0.7212170E+07  0.9118800E+02  0.7818608E-02  0.1180000E+00
       11   -1    0    0    0    0  0.00000000000E+00  0.00000000000E+00  0.39999999673E+01  0.40000000000E+01  0.51109989000E-03 0.  1.
     -623   -1    0    0    0    0  0.00000000000E+00  0.00000000000E+00  0.12525980253E-10  0.17130000000E+03  0.17130000000E+03 0.  1.
       11    1    1    2    0    0 -0.13412712419E-02  0.11875165648E-02  0.11506296067E-01  0.11656126133E-01  0.51109989000E-03 0.  1.
     -623    1    1    2    0    0  0.17067425945E-02 -0.17719103096E-02  0.35046456739E-03  0.17130000002E+03  0.17130000000E+03 0.  1.
      622    1    1    2    0    0 -0.36547135309E-03  0.58439374525E-03  0.39881432078E+01  0.39883438569E+01  0.40000000000E-01 0.  1.
</event>
<event>
 5   0  0.7212170E+07  0.9118800E+02  0.7818608E-02  0.1180000E+00
       11   -1    0    0    0    0  0.00000000000E+00  0.00000000000E+00  0.39999999673E+01  0.40000000000E+01  0.51109989000E-03 0.  1.
     -623   -1    0    0    0    0  0.00000000000E+00  0.00000000000E+00  0.12525980253E-10  0.17130000000E+03  0.17130000000E+03 0. -1.
       11    1    1    2    0    0 -0.12551950189E-01 -0.15499354291E-02  0.30544770390E+00  0.30570985394E+00  0.51109989000E-03 0.  1.
     -623    1    1    2    0    0  0.13681800341E-01 -0.38448625338E-02  0.48337644277E-03  0.17130000059E+03  0.17130000000E+03 0. -1.
      622    1    1    2    0    0 -0.11298501548E-02  0.53947979637E-02  0.36940688878E+01  0.36942895567E+01  0.40000000000E-01 0.  1.
</event>
<event>
 5   0  0.7212170E+07  0.9118800E+02  0.7818608E-02  0.1180000E+00
       11   -1    0    0    0    0  0.00000000000E+00  0.00000000000E+00  0.39999999673E+01  0.40000000000E+01  0.51109989000E-03 0.  1.
     -623   -1    0    0    0    0  0.00000000000E+00  0.00000000000E+00  0.12525980253E-10  0.17130000000E+03  0.17130000000E+03 0. -1.
       11    1    1    2    0    0  0.20955501659E-02  0.12992886589E-01  0.90167260790E+00  0.90176879492E+00  0.51109989000E-03 0.  1.
     -623    1    1    2    0    0  0.48294167210E-02  0.12437943750E-02  0.39490228174E-03  0.17130000007E+03  0.17130000000E+03 0. -1.
      622    1    1    2    0    0 -0.69249668878E-02 -0.14236680964E-01  0.30979324579E+01  0.30982311328E+01  0.40000000000E-01 0.  1.
</event>
<event>
 5   0  0.7212170E+07  0.9118800E+02  0.7818608E-02  0.1180000E+00
       11   -1    0    0    0    0  0.00000000000E+00  0.00000000000E+00  0.39999999673E+01  0.40000000000E+01  0.51109989000E-03 0.  1.
     -623   -1    0    0    0    0  0.00000000000E+00  0.00000000000E+00  0.12525980253E-10  0.17130000000E+03  0.17130000000E+03 0. -1.
       11    1    1    2    0    0 -0.26320993105E-01 -0.58364595797E-02  0.11619498576E+01  0.11622627034E+01  0.51109989000E-03 0.  1.
     -623    1    1    2    0    0  0.15366157412E-01 -0.15462973424E-01  0.69722200463E-03  0.17130000139E+03  0.17130000000E+03 0. -1.
      622    1    1    2    0    0  0.10954835693E-01  0.21299433005E-01  0.28373528880E+01  0.28377359083E+01  0.40000000000E-01 0.  1.
</event>
<event>
 5   0  0.7212170E+07  0.9118800E+02  0.7818608E-02  0.1180000E+00
       11   -1    0    0    0    0  0.00000000000E+00  0.00000000000E+00  0.39999999673E+01  0.40000000000E+01  0.51109989000E-03 0. -1.
     -623   -1    0    0    0    0  0.00000000000E+00  0.00000000000E+00  0.12525980253E-10  0.17130000000E+03  0.17130000000E+03 0.  1.
       11    1    1    2    0    0 -0.69316977365E-03 -0.26363112413E-03  0.80627076288E-03  0.12088347056E-02  0.51109989000E-03 0. -1.
     -623    1    1    2    0    0  0.82424088335E-03  0.43341595274E-03  0.60260611164E-03  0.17130000000E+03  0.17130000000E+03 0.  1.
      622    1    1    2    0    0 -0.13107110966E-03 -0.16978482859E-03  0.39985910903E+01  0.39987911615E+01  0.40000000000E-01 0. -1.
</event>
<event>
 5   0  0.7212170E+07  0.9118800E+02  0.7818608E-02  0.1180000E+00
       11   -1    0    0    0    0  0.00000000000E+00  0.00000000000E+00  0.39999999673E+01  0.40000000000E+01  0.51109989000E-03 0. -1.
     -623   -1    0    0    0    0  0.00000000000E+00  0.00000000000E+00  0.12525980253E-10  0.17130000000E+03  0.17130000000E+03 0.  1.
       11    1    1    2    0    0 -0.52770172213E-02 -0.38365280398E-02  0.57906073357E-01  0.58274697879E-01  0.51109989000E-03 0. -1.
     -623    1    1    2    0    0  0.11966332907E-02  0.28218075085E-02  0.57382498885E-03  0.17130000003E+03  0.17130000000E+03 0.  1.
      622    1    1    2    0    0  0.40803839305E-02  0.10147205310E-02  0.39415200694E+01  0.39417252741E+01  0.40000000000E-01 0.  0.
</event>
<event>
 5   0  0.7212170E+07  0.9118800E+02  0.7818608E-02  0.1180000E+00
       11   -1    0    0    0    0  0.00000000000E+00  0.00000000000E+00  0.39999999673E+01  0.40000000000E+01  0.51109989000E-03 0. -1.
     -623   -1    0    0    0    0  0.00000000000E+00  0.00000000000E+00  0.12525980253E-10  0.17130000000E+03  0.17130000000E+03 0.  1.
       11    1    1    2    0    0 -0.33741375861E-01  0.37503693837E-01  0.11704624904E+01  0.11715492777E+01  0.51109989000E-03 0. -1.
     -623    1    1    2    0    0  0.46768715795E-02 -0.23541851908E-01  0.15551117939E-02  0.17130000169E+03  0.17130000000E+03 0.  1.
      622    1    1    2    0    0  0.29064504281E-01 -0.13961841928E-01  0.28279823654E+01  0.28284490339E+01  0.40000000000E-01 0.  0.
</event>
<event>
 5   0  0.7212170E+07  0.9118800E+02  0.7818608E-02  0.1180000E+00
       11   -1    0    0    0    0  0.00000000000E+00  0.00000000000E+00  0.39999999673E+01  0.40000000000E+01  0.51109989000E-03 0.  1.
     -623   -1    0    0    0    0  0.00000000000E+00  0.00000000000E+00  0.12525980253E-10  0.17130000000E+03  0.17130000000E+03 0. -1.
       11    1    1    2    0    0 -0.31646400157E-03 -0.74651790174E-03  0.37310565867E-02  0.38521999938E-02  0.51109989000E-03 0.  1.
     -623    1    1    2    0    0  0.15122543495E-02 -0.12657812060E-03  0.32158990587E-03  0.17130000001E+03  0.17130000000E+03 0. -1.
      622    1    1    2    0    0 -0.11957903480E-02  0.87309602234E-03  0.39959473211E+01  0.39961477932E+01  0.40000000000E-01 0.  1.
</event>
<event>
 5   0  0.7212170E+07  0.9118800E+02  0.7818608E-02  0.1180000E+00
       11   -1    0    0    0    0  0.00000000000E+00  0.00000000000E+00  0.39999999673E+01  0.40000000000E+01  0.51109989000E-03 0. -1.
     -623   -1    0    0    0    0  0.00000000000E+00  0.00000000000E+00  0.12525980253E-10  0.17130000000E+03  0.17130000000E+03 0.  1.
       11    1    1    2    0    0  0.86010078046E-03 -0.28492441033E-02  0.12375520805E+00  0.12379204623E+00  0.51109989000E-03 0. -1.
     -623    1    1    2    0    0 -0.18323312943E-02  0.13533300862E-02  0.24362422484E-03  0.17130000002E+03  0.17130000000E+03 0.  1.
      622    1    1    2    0    0  0.97223051463E-03  0.14959140165E-02  0.38760011368E+01  0.38762079401E+01  0.40000000000E-01 0. -1.
</event>
<event>
 5   0  0.7212170E+07  0.9118800E+02  0.7818608E-02  0.1180000E+00
       11   -1    0    0    0    0  0.00000000000E+00  0.00000000000E+00  0.39999999673E+01  0.40000000000E+01  0.51109989000E-03 0.  1.
     -623   -1    0    0    0    0  0.00000000000E+00  0.00000000000E+00  0.12525980253E-10  0.17130000000E+03  0.17130000000E+03 0. -1.
       11    1    1    2    0    0  0.33967355210E-01 -0.35359348918E-01  0.32184881000E+01  0.32188615963E+01  0.51109989000E-03 0.  1.
     -623    1    1    2    0    0 -0.22306909051E-01  0.29187177466E-01  0.15138033154E-02  0.17130000395E+03  0.17130000000E+03 0. -1.
      622    1    1    2    0    0 -0.11660446159E-01  0.61721714512E-02  0.77999806408E+00  0.78113445812E+00  0.40000000000E-01 0.  0.
</event>
<event>
 5   0  0.7212170E+07  0.9118800E+02  0.7818608E-02  0.1180000E+00
       11   -1    0    0    0    0  0.00000000000E+00  0.00000000000E+00  0.39999999673E+01  0.40000000000E+01  0.51109989000E-03 0.  1.
     -623   -1    0    0    0    0  0.00000000000E+00  0.00000000000E+00  0.12525980253E-10  0.17130000000E+03  0.17130000000E+03 0. -1.
       11    1    1    2    0    0 -0.19065478466E-02  0.33945570326E-01  0.26664329034E+01  0.26666497007E+01  0.51109989000E-03 0.  1.
     -623    1    1    2    0    0  0.11736558569E-01 -0.24295323734E-01  0.89021209386E-03  0.17130000213E+03  0.17130000000E+03 0. -1.
      622    1    1    2    0    0 -0.98300107224E-02 -0.96502465911E-02  0.13326768521E+01  0.13333481722E+01  0.40000000000E-01 0.  1.
</event>
<event>
 5   0  0.7212170E+07  0.9118800E+02  0.7818608E-02  0.1180000E+00
       11   -1    0    0    0    0  0.00000000000E+00  0.00000000000E+00  0.39999999673E+01  0.40000000000E+01  0.51109989000E-03 0.  1.
     -623   -1    0    0    0    0  0.00000000000E+00  0.00000000000E+00  0.12525980253E-10  0.17130000000E+03  0.17130000000E+03 0.  1.
       11    1    1    2    0    0 -0.20967694339E-02  0.15597621483E-03  0.36191150661E-01  0.36255777193E-01  0.51109989000E-03 0.  1.
     -623    1    1    2    0    0  0.15709182258E-02 -0.41493621796E-02  0.26853268301E-03  0.17130000006E+03  0.17130000000E+03 0.  1.
      622    1    1    2    0    0  0.52585120860E-03  0.39933859635E-02  0.39635402829E+01  0.39637441640E+01  0.40000000000E-01 0.  1.
</event>
<event>
 5   0  0.7212170E+07  0.9118800E+02  0.7818608E-02  0.1180000E+00
       11   -1    0    0    0    0  0.00000000000E+00  0.00000000000E+00  0.39999999673E+01  0.40000000000E+01  0.51109989000E-03 0.  1.
     -623   -1    0    0    0    0  0.00000000000E+00  0.00000000000E+00  0.12525980253E-10  0.17130000000E+03  0.17130000000E+03 0.  1.
       11    1    1    2    0    0 -0.42723609844E-03  0.50070552770E-03  0.49419327791E-02  0.50117022457E-02  0.51109989000E-03 0.  1.
     -623    1    1    2    0    0  0.41081244900E-03 -0.37277591721E-03  0.26999593823E-03  0.17130000000E+03  0.17130000000E+03 0.  1.
      622    1    1    2    0    0  0.16423649361E-04 -0.12792961042E-03  0.39947880394E+01  0.39949882974E+01  0.40000000000E-01 0.  1.
</event>
<event>
 5   0  0.7212170E+07  0.9118800E+02  0.7818608E-02  0.1180000E+00
       11   -1    0    0    0    0  0.00000000000E+00  0.00000000000E+00  0.39999999673E+01  0.40000000000E+01  0.51109989000E-03 0.  1.
     -623   -1    0    0    0    0  0.00000000000E+00  0.00000000000E+00  0.12525980253E-10  0.17130000000E+03  0.17130000000E+03 0.  1.
       11    1    1    2    0    0 -0.18580554723E-01  0.24128966155E-01  0.10126390237E+00  0.10574536949E+00  0.51109989000E-03 0.  1.
     -623    1    1    2    0    0  0.12340300284E-01  0.98515627203E-02  0.48409316932E-02  0.17130000080E+03  0.17130000000E+03 0.  1.
      622    1    1    2    0    0  0.62402544396E-02 -0.33980528875E-01  0.38938951333E+01  0.38942538343E+01  0.40000000000E-01 0.  1.
</event>
<event>
 5   0  0.7212170E+07  0.9118800E+02  0.7818608E-02  0.1180000E+00
       11   -1    0    0    0    0  0.00000000000E+00  0.00000000000E+00  0.39999999673E+01  0.40000000000E+01  0.51109989000E-03 0. -1.
     -623   -1    0    0    0    0  0.00000000000E+00  0.00000000000E+00  0.12525980253E-10  0.17130000000E+03  0.17130000000E+03 0. -1.
       11    1    1    2    0    0 -0.72482170328E-02 -0.25020775735E-02  0.21152313494E+00  0.21166269128E+00  0.51109989000E-03 0. -1.
     -623    1    1    2    0    0 -0.57251937843E-03  0.23983349722E-03  0.35945414497E-03  0.17130000000E+03  0.17130000000E+03 0. -1.
      622    1    1    2    0    0  0.78207364113E-02  0.22622440763E-02  0.37881173784E+01  0.37883373073E+01  0.40000000000E-01 0. -1.
</event>
<event>
 5   0  0.7212170E+07  0.9118800E+02  0.7818608E-02  0.1180000E+00
       11   -1    0    0    0    0  0.00000000000E+00  0.00000000000E+00  0.39999999673E+01  0.40000000000E+01  0.51109989000E-03 0. -1.
     -623   -1    0    0    0    0  0.00000000000E+00  0.00000000000E+00  0.12525980253E-10  0.17130000000E+03  0.17130000000E+03 0.  1.
       11    1    1    2    0    0 -0.59295669689E-02 -0.34538035542E-01  0.18729748875E+00  0.19054827781E+00  0.51109989000E-03 0. -1.
     -623    1    1    2    0    0 -0.13202080415E-01 -0.44280009217E-02  0.37087225438E-02  0.17130000061E+03  0.17130000000E+03 0.  1.
      622    1    1    2    0    0  0.19131647384E-01  0.38966036463E-01  0.38089937561E+01  0.38094511161E+01  0.40000000000E-01 0. -1.
</event>
<event>
 5   0  0.7212170E+07  0.9118800E+02  0.7818608E-02  0.1180000E+00
       11   -1    0    0    0    0  0.00000000000E+00  0.00000000000E+00  0.39999999673E+01  0.40000000000E+01  0.51109989000E-03 0. -1.
     -623   -1    0    0    0    0  0.00000000000E+00  0.00000000000E+00  0.12525980253E-10  0.17130000000E+03  0.17130000000E+03 0. -1.
       11    1    1    2    0    0  0.69958943006E-01 -0.51424847294E-01  0.14628247131E+01  0.14653993214E+01  0.51109989000E-03 0. -1.
     -623    1    1    2    0    0  0.14254176060E-01  0.16709088916E-01  0.45291822874E-02  0.17130000147E+03  0.17130000000E+03 0. -1.
      622    1    1    2    0    0 -0.84213119066E-01  0.34715758379E-01  0.25326460719E+01  0.25345992107E+01  0.40000000000E-01 0. -1.
</event>
<event>
 5   0  0.7212170E+07  0.9118800E+02  0.7818608E-02  0.1180000E+00
       11   -1    0    0    0    0  0.00000000000E+00  0.00000000000E+00  0.39999999673E+01  0.40000000000E+01  0.51109989000E-03 0.  1.
     -623   -1    0    0    0    0  0.00000000000E+00  0.00000000000E+00  0.12525980253E-10  0.17130000000E+03  0.17130000000E+03 0.  1.
       11    1    1    2    0    0  0.10369124996E-02  0.56020901053E-02  0.45574489161E+00  0.45578078728E+00  0.51109989000E-03 0.  1.
     -623    1    1    2    0    0 -0.30314293050E-02 -0.43742136729E-02  0.26244672205E-03  0.17130000008E+03  0.17130000000E+03 0.  1.
      622    1    1    2    0    0  0.19945168052E-02 -0.12278764326E-02  0.35439926288E+01  0.35442191296E+01  0.40000000000E-01 0.  1.
</event>
<event>
 5   0  0.7212170E+07  0.9118800E+02  0.7818608E-02  0.1180000E+00
       11   -1    0    0    0    0  0.00000000000E+00  0.00000000000E+00  0.39999999673E+01  0.40000000000E+01  0.51109989000E-03 0. -1.
     -623   -1    0    0    0    0  0.00000000000E+00  0.00000000000E+00  0.12525980253E-10  0.17130000000E+03  0.17130000000E+03 0.  1.
       11    1    1    2    0    0 -0.50600230170E-02  0.12903917901E-01  0.28982994084E+01  0.28983325960E+01  0.51109989000E-03 0. -1.
     -623    1    1    2    0    0 -0.56054727867E-02 -0.24358730669E-02  0.86111048181E-03  0.17130000011E+03  0.17130000000E+03 0.  1.
      622    1    1    2    0    0  0.10665495804E-01 -0.10468044834E-01  0.11008394490E+01  0.11016672933E+01  0.40000000000E-01 0.  1.
</event>
<event>
 5   0  0.7212170E+07  0.9118800E+02  0.7818608E-02  0.1180000E+00
       11   -1    0    0    0    0  0.00000000000E+00  0.00000000000E+00  0.39999999673E+01  0.40000000000E+01  0.51109989000E-03 0.  1.
     -623   -1    0    0    0    0  0.00000000000E+00  0.00000000000E+00  0.12525980253E-10  0.17130000000E+03  0.17130000000E+03 0. -1.
       11    1    1    2    0    0  0.81380315216E-02 -0.25097847513E-02  0.14013087472E+00  0.14039034813E+00  0.51109989000E-03 0.  1.
     -623    1    1    2    0    0  0.20665982041E-02  0.81117382315E-03  0.48060108230E-03  0.17130000002E+03  0.17130000000E+03 0. -1.
      622    1    1    2    0    0 -0.10204629726E-01  0.16986109280E-02  0.38593884922E+01  0.38596096374E+01  0.40000000000E-01 0.  1.
</event>
<event>
 5   0  0.7212170E+07  0.9118800E+02  0.7818608E-02  0.1180000E+00
       11   -1    0    0    0    0  0.00000000000E+00  0.00000000000E+00  0.39999999673E+01  0.40000000000E+01  0.51109989000E-03 0.  1.
     -623   -1    0    0    0    0  0.00000000000E+00  0.00000000000E+00  0.12525980253E-10  0.17130000000E+03  0.17130000000E+03 0.  1.
       11    1    1    2    0    0 -0.59917290200E-04  0.22963490139E-03  0.47533182748E-02  0.47866042232E-02  0.51109989000E-03 0.  1.
     -623    1    1    2    0    0  0.58368663743E-04 -0.28491382533E-03  0.23349873196E-03  0.17130000000E+03  0.17130000000E+03 0.  1.
      622    1    1    2    0    0  0.15486264277E-05  0.55278924086E-04  0.39950131524E+01  0.39952133974E+01  0.40000000000E-01 0.  1.
</event>
<event>
 5   0  0.7212170E+07  0.9118800E+02  0.7818608E-02  0.1180000E+00
       11   -1    0    0    0    0  0.00000000000E+00  0.00000000000E+00  0.39999999673E+01  0.40000000000E+01  0.51109989000E-03 0. -1.
     -623   -1    0    0    0    0  0.00000000000E+00  0.00000000000E+00  0.12525980253E-10  0.17130000000E+03  0.17130000000E+03 0.  1.
       11    1    1    2    0    0  0.25963898391E-01 -0.48968755819E-03  0.42311710235E+00  0.42391356116E+00  0.51109989000E-03 0. -1.
     -623    1    1    2    0    0 -0.13485712694E-01  0.64293456044E-02  0.10475009454E-02  0.17130000065E+03  0.17130000000E+03 0.  1.
      622    1    1    2    0    0 -0.12478185697E-01 -0.59396580458E-02  0.35758353638E+01  0.35760857839E+01  0.40000000000E-01 0. -1.
</event>
<event>
 5   0  0.7212170E+07  0.9118800E+02  0.7818608E-02  0.1180000E+00
       11   -1    0    0    0    0  0.00000000000E+00  0.00000000000E+00  0.39999999673E+01  0.40000000000E+01  0.51109989000E-03 0.  1.
     -623   -1    0    0    0    0  0.00000000000E+00  0.00000000000E+00  0.12525980253E-10  0.17130000000E+03  0.17130000000E+03 0.  1.
       11    1    1    2    0    0  0.17778306336E-02  0.45318143570E-06  0.25609296684E-01  0.25676019585E-01  0.51109989000E-03 0.  1.
     -623    1    1    2    0    0 -0.23842833851E-02  0.28853088671E-02  0.26912256273E-03  0.17130000004E+03  0.17130000000E+03 0.  1.
      622    1    1    2    0    0  0.60645275288E-03 -0.28857620503E-02  0.39741215505E+01  0.39743239417E+01  0.40000000000E-01 0.  1.
</event>
<event>
 5   0  0.7212170E+07  0.9118800E+02  0.7818608E-02  0.1180000E+00
       11   -1    0    0    0    0  0.00000000000E+00  0.00000000000E+00  0.39999999673E+01  0.40000000000E+01  0.51109989000E-03 0.  1.
     -623   -1    0    0    0    0  0.00000000000E+00  0.00000000000E+00  0.12525980253E-10  0.17130000000E+03  0.17130000000E+03 0.  1.
       11    1    1    2    0    0 -0.86315562340E-02  0.35066714319E-02  0.92533557838E+00  0.92538262052E+00  0.51109989000E-03 0.  1.
     -623    1    1    2    0    0  0.11267692626E-01 -0.23494836550E-02  0.30895045778E-03  0.17130000039E+03  0.17130000000E+03 0.  1.
      622    1    1    2    0    0 -0.26361363936E-02 -0.11571877766E-02  0.30743554389E+01  0.30746169929E+01  0.40000000000E-01 0.  1.
</event>
<event>
 5   0  0.7212170E+07  0.9118800E+02  0.7818608E-02  0.1180000E+00
       11   -1    0    0    0    0  0.00000000000E+00  0.00000000000E+00  0.39999999673E+01  0.40000000000E+01  0.51109989000E-03 0.  1.
     -623   -1    0    0    0    0  0.00000000000E+00  0.00000000000E+00  0.12525980253E-10  0.17130000000E+03  0.17130000000E+03 0.  1.
       11    1    1    2    0    0  0.15789371818E-02  0.23783802508E-02  0.13021647122E-01  0.13340699086E-01  0.51109989000E-03 0.  1.
     -623    1    1    2    0    0  0.37021654190E-04 -0.46249410572E-03  0.52048297108E-03  0.17130000000E+03  0.17130000000E+03 0.  1.
      622    1    1    2    0    0 -0.16159588360E-02 -0.19158861450E-02  0.39864578379E+01  0.39866593001E+01  0.40000000000E-01 0.  1.
</event>
<event>
 5   0  0.7212170E+07  0.9118800E+02  0.7818608E-02  0.1180000E+00
       11   -1    0    0    0    0  0.00000000000E+00  0.00000000000E+00  0.39999999673E+01  0.40000000000E+01  0.51109989000E-03 0.  1.
     -623   -1    0    0    0    0  0.00000000000E+00  0.00000000000E+00  0.12525980253E-10  0.17130000000E+03  0.17130000000E+03 0. -1.
       11    1    1    2    0    0  0.73789811959E-02  0.35871846371E-02  0.63686724424E-01  0.64215086608E-01  0.51109989000E-03 0.  1.
     -623    1    1    2    0    0 -0.82832281262E-03  0.62482107454E-03  0.73930828852E-03  0.17130000000E+03  0.17130000000E+03 0. -1.
      622    1    1    2    0    0 -0.65506583831E-02 -0.42120057118E-02  0.39355739351E+01  0.39357849091E+01  0.40000000000E-01 0.  1.
</event>
<event>
 5   0  0.7212170E+07  0.9118800E+02  0.7818608E-02  0.1180000E+00
       11   -1    0    0    0    0  0.00000000000E+00  0.00000000000E+00  0.39999999673E+01  0.40000000000E+01  0.51109989000E-03 0. -1.
     -623   -1    0    0    0    0  0.00000000000E+00  0.00000000000E+00  0.12525980253E-10  0.17130000000E+03  0.17130000000E+03 0.  1.
       11    1    1    2    0    0  0.50489271398E-03 -0.23795909292E-02  0.31334841429E-01  0.31433276636E-01  0.51109989000E-03 0. -1.
     -623    1    1    2    0    0 -0.99158544805E-03  0.73936004499E-03  0.30036534934E-03  0.17130000000E+03  0.17130000000E+03 0.  1.
      622    1    1    2    0    0  0.48669273409E-03  0.16402308842E-02  0.39683647607E+01  0.39685667187E+01  0.40000000000E-01 0. -1.
</event>
<event>
 5   0  0.7212170E+07  0.9118800E+02  0.7818608E-02  0.1180000E+00
       11   -1    0    0    0    0  0.00000000000E+00  0.00000000000E+00  0.39999999673E+01  0.40000000000E+01  0.51109989000E-03 0. -1.
     -623   -1    0    0    0    0  0.00000000000E+00  0.00000000000E+00  0.12525980253E-10  0.17130000000E+03  0.17130000000E+03 0. -1.
       11    1    1    2    0    0  0.12298167390E-02 -0.34089039161E-02  0.44952723445E-01  0.45101459437E-01  0.51109989000E-03 0. -1.
     -623    1    1    2    0    0 -0.25759609912E-02  0.12328502083E-01  0.36174068323E-03  0.17130000046E+03  0.17130000000E+03 0. -1.
      622    1    1    2    0    0  0.13461442533E-02 -0.89195981718E-02  0.39546855049E+01  0.39548980788E+01  0.40000000000E-01 0. -1.
</event>
<event>
 5   0  0.7212170E+07  0.9118800E+02  0.7818608E-02  0.1180000E+00
       11   -1    0    0    0    0  0.00000000000E+00  0.00000000000E+00  0.39999999673E+01  0.40000000000E+01  0.51109989000E-03 0.  1.
     -623   -1    0    0    0    0  0.00000000000E+00  0.00000000000E+00  0.12525980253E-10  0.17130000000E+03  0.17130000000E+03 0.  1.
       11    1    1    2    0    0  0.43563443196E-02 -0.51585624276E-02  0.10216607614E+00  0.10239021848E+00  0.51109989000E-03 0.  1.
     -623    1    1    2    0    0  0.89423147765E-02  0.36689968009E-02  0.45261586276E-03  0.17130000027E+03  0.17130000000E+03 0.  1.
      622    1    1    2    0    0 -0.13298659097E-01  0.14895656262E-02  0.38973812759E+01  0.38976095088E+01  0.40000000000E-01 0.  1.
</event>
<event>
 5   0  0.7212170E+07  0.9118800E+02  0.7818608E-02  0.1180000E+00
       11   -1    0    0    0    0  0.00000000000E+00  0.00000000000E+00  0.39999999673E+01  0.40000000000E+01  0.51109989000E-03 0.  1.
     -623   -1    0    0    0    0  0.00000000000E+00  0.00000000000E+00  0.12525980253E-10  0.17130000000E+03  0.17130000000E+03 0.  1.
       11    1    1    2    0    0 -0.68359825855E-02 -0.26805005692E-01  0.54090525807E+00  0.54161240608E+00  0.51109989000E-03 0.  1.
     -623    1    1    2    0    0 -0.20924665102E-02  0.18730793660E-02  0.10398730311E-02  0.17130000003E+03  0.17130000000E+03 0.  1.
      622    1    1    2    0    0  0.89284490959E-02  0.24931926326E-01  0.34580548366E+01  0.34583875681E+01  0.40000000000E-01 0.  1.
</event>
<event>
 5   0  0.7212170E+07  0.9118800E+02  0.7818608E-02  0.1180000E+00
       11   -1    0    0    0    0  0.00000000000E+00  0.00000000000E+00  0.39999999673E+01  0.40000000000E+01  0.51109989000E-03 0.  1.
     -623   -1    0    0    0    0  0.00000000000E+00  0.00000000000E+00  0.12525980253E-10  0.17130000000E+03  0.17130000000E+03 0.  1.
       11    1    1    2    0    0  0.17052549761E-01 -0.25906951583E-02  0.44301656977E+00  0.44335250475E+00  0.51109989000E-03 0.  1.
     -623    1    1    2    0    0 -0.17656144674E-02  0.81343299619E-05  0.59464305457E-03  0.17130000001E+03  0.17130000000E+03 0.  1.
      622    1    1    2    0    0 -0.15286935293E-01  0.25825608283E-02  0.35563887552E+01  0.35566474857E+01  0.40000000000E-01 0.  0.
</event>
<event>
 5   0  0.7212170E+07  0.9118800E+02  0.7818608E-02  0.1180000E+00
       11   -1    0    0    0    0  0.00000000000E+00  0.00000000000E+00  0.39999999673E+01  0.40000000000E+01  0.51109989000E-03 0. -1.
     -623   -1    0    0    0    0  0.00000000000E+00  0.00000000000E+00  0.12525980253E-10  0.17130000000E+03  0.17130000000E+03 0.  1.
       11    1    1    2    0    0 -0.37433941409E-02  0.10575321676E-02  0.25000272721E-01  0.25306248896E-01  0.51109989000E-03 0. -1.
     -623    1    1    2    0    0  0.54696473358E-02  0.23194746518E-02  0.50913534420E-03  0.17130000010E+03  0.17130000000E+03 0.  1.
      622    1    1    2    0    0 -0.17262531951E-02 -0.33770068195E-02  0.39744905594E+01  0.39746936475E+01  0.40000000000E-01 0. -1.
</event>
<event>
 5   0  0.7212170E+07  0.9118800E+02  0.7818608E-02  0.1180000E+00
       11   -1    0    0    0    0  0.00000000000E+00  0.00000000000E+00  0.39999999673E+01  0.40000000000E+01  0.51109989000E-03 0.  1.
     -623   -1    0    0    0    0  0.00000000000E+00  0.00000000000E+00  0.12525980253E-10  0.17130000000E+03  0.17130000000E+03 0.  1.
       11    1    1    2    0    0  0.86318484298E-03 -0.14151000591E-02  0.21531044447E-02  0.27649011009E-02  0.51109989000E-03 0.  1.
     -623    1    1    2    0    0 -0.12616514247E-03  0.14878826274E-02  0.81198441329E-03  0.17130000001E+03  0.17130000000E+03 0.  1.
      622    1    1    2    0    0 -0.73701970052E-03 -0.72782568251E-04  0.39970348783E+01  0.39972350903E+01  0.40000000000E-01 0.  1.
</event>
<event>
 5   0  0.7212170E+07  0.9118800E+02  0.7818608E-02  0.1180000E+00
       11   -1    0    0    0    0  0.00000000000E+00  0.00000000000E+00  0.39999999673E+01  0.40000000000E+01  0.51109989000E-03 0. -1.
     -623   -1    0    0    0    0  0.00000000000E+00  0.00000000000E+00  0.12525980253E-10  0.17130000000E+03  0.17130000000E+03 0.  1.
       11    1    1    2    0    0  0.64738569325E-02  0.70791038729E-02  0.36957149920E+00  0.36969633320E+00  0.51109989000E-03 0. -1.
     -623    1    1    2    0    0  0.36508844521E-02  0.37434100481E-03  0.36698649397E-03  0.17130000004E+03  0.17130000000E+03 0.  1.
      622    1    1    2    0    0 -0.10124741384E-01 -0.74534448776E-02  0.36300614812E+01  0.36303036267E+01  0.40000000000E-01 0. -1.
</event>
<event>
 5   0  0.7212170E+07  0.9118800E+02  0.7818608E-02  0.1180000E+00
       11   -1    0    0    0    0  0.00000000000E+00  0.00000000000E+00  0.39999999673E+01  0.40000000000E+01  0.51109989000E-03 0.  1.
     -623   -1    0    0    0    0  0.00000000000E+00  0.00000000000E+00  0.12525980253E-10  0.17130000000E+03  0.17130000000E+03 0. -1.
       11    1    1    2    0    0 -0.25338983958E-02 -0.98179367314E-02  0.30867257543E+00  0.30883949322E+00  0.51109989000E-03 0.  1.
     -623    1    1    2    0    0 -0.17336029977E-02  0.22219395954E-02  0.39393254135E-03  0.17130000002E+03  0.17130000000E+03 0. -1.
      622    1    1    2    0    0  0.42675013939E-02  0.75959971355E-02  0.36909334601E+01  0.36911604839E+01  0.40000000000E-01 0.  1.
</event>
<event>
 5   0  0.7212170E+07  0.9118800E+02  0.7818608E-02  0.1180000E+00
       11   -1    0    0    0    0  0.00000000000E+00  0.00000000000E+00  0.39999999673E+01  0.40000000000E+01  0.51109989000E-03 0. -1.
     -623   -1    0    0    0    0  0.00000000000E+00  0.00000000000E+00  0.12525980253E-10  0.17130000000E+03  0.17130000000E+03 0.  1.
       11    1    1    2    0    0 -0.27928106524E-01 -0.92828104813E-02  0.47342219451E+00  0.47433636291E+00  0.51109989000E-03 0. -1.
     -623    1    1    2    0    0 -0.23344096542E-03 -0.89494459882E-02  0.13009171212E-02  0.17130000024E+03  0.17130000000E+03 0.  1.
      622    1    1    2    0    0  0.28161547489E-01  0.18232256470E-01  0.35252768559E+01  0.35256633984E+01  0.40000000000E-01 0. -1.
</event>
<event>
 5   0  0.7212170E+07  0.9118800E+02  0.7818608E-02  0.1180000E+00
       11   -1    0    0    0    0  0.00000000000E+00  0.00000000000E+00  0.39999999673E+01  0.40000000000E+01  0.51109989000E-03 0.  1.
     -623   -1    0    0    0    0  0.00000000000E+00  0.00000000000E+00  0.12525980253E-10  0.17130000000E+03  0.17130000000E+03 0.  1.
       11    1    1    2    0    0  0.30034936044E-01  0.11096223002E-01  0.64293147238E+00  0.64372848543E+00  0.51109989000E-03 0.  1.
     -623    1    1    2    0    0 -0.24672419941E-01  0.13524095709E-01  0.11322578908E-02  0.17130000231E+03  0.17130000000E+03 0.  1.
      622    1    1    2    0    0 -0.53625161036E-02 -0.24620318710E-01  0.33559362370E+01  0.33562692001E+01  0.40000000000E-01 0.  1.
</event>
<event>
 5   0  0.7212170E+07  0.9118800E+02  0.7818608E-02  0.1180000E+00
       11   -1    0    0    0    0  0.00000000000E+00  0.00000000000E+00  0.39999999673E+01  0.40000000000E+01  0.51109989000E-03 0.  1.
     -623   -1    0    0    0    0  0.00000000000E+00  0.00000000000E+00  0.12525980253E-10  0.17130000000E+03  0.17130000000E+03 0. -1.
       11    1    1    2    0    0 -0.74694366216E-02 -0.19978652945E-02  0.39654952941E+00  0.39662523173E+00  0.51109989000E-03 0.  1.
     -623    1    1    2    0    0  0.13545181709E-01  0.62604609187E-02  0.30598478907E-03  0.17130000065E+03  0.17130000000E+03 0. -1.
      622    1    1    2    0    0 -0.60757450874E-02 -0.42625956242E-02  0.36031444532E+01  0.36033741181E+01  0.40000000000E-01 0.  1.
</event>
<event>
 5   0  0.7212170E+07  0.9118800E+02  0.7818608E-02  0.1180000E+00
       11   -1    0    0    0    0  0.00000000000E+00  0.00000000000E+00  0.39999999673E+01  0.40000000000E+01  0.51109989000E-03 0. -1.
     -623   -1    0    0    0    0  0.00000000000E+00  0.00000000000E+00  0.12525980253E-10  0.17130000000E+03  0.17130000000E+03 0. -1.
       11    1    1    2    0    0 -0.53906096355E-01 -0.30386779864E-01  0.20857576826E+01  0.20866754887E+01  0.51109989000E-03 0. -1.
     -623    1    1    2    0    0  0.56108779617E-02  0.26884933965E-01  0.19511126634E-02  0.17130000221E+03  0.17130000000E+03 0. -1.
      622    1    1    2    0    0  0.48295218393E-01  0.35018458984E-02  0.19122911722E+01  0.19133222986E+01  0.40000000000E-01 0. -1.
</event>
<event>
 5   0  0.7212170E+07  0.9118800E+02  0.7818608E-02  0.1180000E+00
       11   -1    0    0    0    0  0.00000000000E+00  0.00000000000E+00  0.39999999673E+01  0.40000000000E+01  0.51109989000E-03 0.  1.
     -623   -1    0    0    0    0  0.00000000000E+00  0.00000000000E+00  0.12525980253E-10  0.17130000000E+03  0.17130000000E+03 0.  1.
       11    1    1    2    0    0  0.91663501882E-03  0.32818265981E-02  0.12928100522E-01  0.13379372623E-01  0.51109989000E-03 0.  1.
     -623    1    1    2    0    0 -0.32065522349E-02 -0.59144193089E-03  0.65351355782E-03  0.17130000003E+03  0.17130000000E+03 0.  1.
      622    1    1    2    0    0  0.22899172161E-02 -0.26903846672E-02  0.39864183533E+01  0.39866205951E+01  0.40000000000E-01 0.  1.
</event>
<event>
 5   0  0.7212170E+07  0.9118800E+02  0.7818608E-02  0.1180000E+00
       11   -1    0    0    0    0  0.00000000000E+00  0.00000000000E+00  0.39999999673E+01  0.40000000000E+01  0.51109989000E-03 0. -1.
     -623   -1    0    0    0    0  0.00000000000E+00  0.00000000000E+00  0.12525980253E-10  0.17130000000E+03  0.17130000000E+03 0. -1.
       11    1    1    2    0    0  0.87414013100E-03 -0.51934897322E-03  0.10248501426E-01  0.10311491110E-01  0.51109989000E-03 0. -1.
     -623    1    1    2    0    0 -0.51578728542E-03 -0.68529172668E-04  0.26353939066E-03  0.17130000000E+03  0.17130000000E+03 0. -1.
      622    1    1    2    0    0 -0.35835284533E-03  0.58787814592E-03  0.39894879284E+01  0.39896885098E+01  0.40000000000E-01 0. -1.
</event>
<event>
 5   0  0.7212170E+07  0.9118800E+02  0.7818608E-02  0.1180000E+00
       11   -1    0    0    0    0  0.00000000000E+00  0.00000000000E+00  0.39999999673E+01  0.40000000000E+01  0.51109989000E-03 0.  1.
     -623   -1    0    0    0    0  0.00000000000E+00  0.00000000000E+00  0.12525980253E-10  0.17130000000E+03  0.17130000000E+03 0. -1.
       11    1    1    2    0    0 -0.30087892847E-02 -0.52299377180E-02  0.45092260230E-01  0.45497013279E-01  0.51109989000E-03 0.  1.
     -623    1    1    2    0    0 -0.20818562275E-02  0.74974540522E-04  0.61367724341E-03  0.17130000001E+03  0.17130000000E+03 0. -1.
      622    1    1    2    0    0  0.50906455121E-02  0.51549631775E-02  0.39542940297E+01  0.39545029728E+01  0.40000000000E-01 0.  1.
</event>
<event>
 5   0  0.7212170E+07  0.9118800E+02  0.7818608E-02  0.1180000E+00
       11   -1    0    0    0    0  0.00000000000E+00  0.00000000000E+00  0.39999999673E+01  0.40000000000E+01  0.51109989000E-03 0. -1.
     -623   -1    0    0    0    0  0.00000000000E+00  0.00000000000E+00  0.12525980253E-10  0.17130000000E+03  0.17130000000E+03 0.  1.
       11    1    1    2    0    0  0.53585142204E-04  0.46709434162E-02  0.56379523529E-01  0.56575016396E-01  0.51109989000E-03 0. -1.
     -623    1    1    2    0    0  0.47654754997E-03 -0.42995313268E-02  0.39844299404E-03  0.17130000006E+03  0.17130000000E+03 0.  1.
      622    1    1    2    0    0 -0.53013269219E-03 -0.37141208928E-03  0.39432220010E+01  0.39434249287E+01  0.40000000000E-01 0. -1.
</event>
<event>
 5   0  0.7212170E+07  0.9118800E+02  0.7818608E-02  0.1180000E+00
       11   -1    0    0    0    0  0.00000000000E+00  0.00000000000E+00  0.39999999673E+01  0.40000000000E+01  0.51109989000E-03 0. -1.
     -623   -1    0    0    0    0  0.00000000000E+00  0.00000000000E+00  0.12525980253E-10  0.17130000000E+03  0.17130000000E+03 0.  1.
       11    1    1    2    0    0 -0.54051082667E-02 -0.46063467988E-02  0.53281070119E+00  0.53285827210E+00  0.51109989000E-03 0. -1.
     -623    1    1    2    0    0  0.16307441002E-01 -0.12180283287E-02  0.30109913677E-03  0.17130000078E+03  0.17130000000E+03 0.  1.
      622    1    1    2    0    0 -0.10902332739E-01  0.58243751278E-02  0.34668881680E+01  0.34671409480E+01  0.40000000000E-01 0. -1.
</event>
<event>
 5   0  0.7212170E+07  0.9118800E+02  0.7818608E-02  0.1180000E+00
       11   -1    0    0    0    0  0.00000000000E+00  0.00000000000E+00  0.39999999673E+01  0.40000000000E+01  0.51109989000E-03 0. -1.
     -623   -1    0    0    0    0  0.00000000000E+00  0.00000000000E+00  0.12525980253E-10  0.17130000000E+03  0.17130000000E+03 0. -1.
       11    1    1    2    0    0 -0.24881838814E-02 -0.54291625859E-02  0.23434877639E-01  0.24189286439E-01  0.51109989000E-03 0. -1.
     -623    1    1    2    0    0  0.11958550486E-02 -0.10591336049E-02  0.96111280209E-03  0.17130000001E+03  0.17130000000E+03 0. -1.
      622    1    1    2    0    0  0.12923288327E-02  0.64882961908E-02  0.39756039770E+01  0.39758107035E+01  0.40000000000E-01 0. -1.
</event>
<event>
 5   0  0.7212170E+07  0.9118800E+02  0.7818608E-02  0.1180000E+00
       11   -1    0    0    0    0  0.00000000000E+00  0.00000000000E+00  0.39999999673E+01  0.40000000000E+01  0.51109989000E-03 0. -1.
     -623   -1    0    0    0    0  0.00000000000E+00  0.00000000000E+00  0.12525980253E-10  0.17130000000E+03  0.17130000000E+03 0. -1.
       11    1    1    2    0    0 -0.41873065903E-03  0.25698319926E-03  0.13842629211E-02  0.15552436020E-02  0.51109989000E-03 0. -1.
     -623    1    1    2    0    0  0.53457858096E-03 -0.27609668328E-03  0.37103402202E-03  0.17130000000E+03  0.17130000000E+03 0. -1.
      622    1    1    2    0    0 -0.11584792185E-03  0.19113483970E-04  0.39982446698E+01  0.39984447543E+01  0.40000000000E-01 0. -1.
</event>
<event>
 5   0  0.7212170E+07  0.9118800E+02  0.7818608E-02  0.1180000E+00
       11   -1    0    0    0    0  0.00000000000E+00  0.00000000000E+00  0.39999999673E+01  0.40000000000E+01  0.51109989000E-03 0. -1.
     -623   -1    0    0    0    0  0.00000000000E+00  0.00000000000E+00  0.12525980253E-10  0.17130000000E+03  0.17130000000E+03 0. -1.
       11    1    1    2    0    0  0.72982928773E-02  0.11500245083E-02  0.83239234640E-01  0.83568050365E-01  0.51109989000E-03 0. -1.
     -623    1    1    2    0    0 -0.65803504974E-02 -0.20082190701E-02  0.53335481119E-03  0.17130000014E+03  0.17130000000E+03 0. -1.
      622    1    1    2    0    0 -0.71794237911E-03  0.85819456201E-03  0.39162273784E+01  0.39164318111E+01  0.40000000000E-01 0. -1.
</event>
<event>
 5   0  0.7212170E+07  0.9118800E+02  0.7818608E-02  0.1180000E+00
       11   -1    0    0    0    0  0.00000000000E+00  0.00000000000E+00  0.39999999673E+01  0.40000000000E+01  0.51109989000E-03 0.  1.
     -623   -1    0    0    0    0  0.00000000000E+00  0.00000000000E+00  0.12525980253E-10  0.17130000000E+03  0.17130000000E+03 0. -1.
       11    1    1    2    0    0 -0.34159777950E-02  0.13887320002E-02  0.12132517414E+00  0.12138227458E+00  0.51109989000E-03 0.  1.
     -623    1    1    2    0    0  0.23714662365E-03  0.13850239708E-02  0.26563289551E-03  0.17130000001E+03  0.17130000000E+03 0. -1.
      622    1    1    2    0    0  0.31788311713E-02 -0.27737559711E-02  0.38784091604E+01  0.38786177195E+01  0.40000000000E-01 0.  1.
</event>
<event>
 5   0  0.7212170E+07  0.9118800E+02  0.7818608E-02  0.1180000E+00
       11   -1    0    0    0    0  0.00000000000E+00  0.00000000000E+00  0.39999999673E+01  0.40000000000E+01  0.51109989000E-03 0. -1.
     -623   -1    0    0    0    0  0.00000000000E+00  0.00000000000E+00  0.12525980253E-10  0.17130000000E+03  0.17130000000E+03 0.  1.
       11    1    1    2    0    0 -0.31051756532E-02 -0.34419449915E-02  0.27518373985E-01  0.27910772670E-01  0.51109989000E-03 0. -1.
     -623    1    1    2    0    0  0.12717402099E-02 -0.12569561533E-03  0.59580772769E-03  0.17130000001E+03  0.17130000000E+03 0.  1.
      622    1    1    2    0    0  0.18334354432E-02  0.35676406068E-02  0.39718857859E+01  0.39720892218E+01  0.40000000000E-01 0. -1.
</event>
<event>
 5   0  0.7212170E+07  0.9118800E+02  0.7818608E-02  0.1180000E+00
       11   -1    0    0    0    0  0.00000000000E+00  0.00000000000E+00  0.39999999673E+01  0.40000000000E+01  0.51109989000E-03 0. -1.
     -623   -1    0    0    0    0  0.00000000000E+00  0.00000000000E+00  0.12525980253E-10  0.17130000000E+03  0.17130000000E+03 0. -1.
       11    1    1    2    0    0  0.22625768063E-02 -0.30065159792E-03  0.17053466760E-01  0.17213122809E-01  0.51109989000E-03 0. -1.
     -623    1    1    2    0    0 -0.18300568326E-02 -0.28286418801E-03  0.36056947246E-03  0.17130000001E+03  0.17130000000E+03 0. -1.
      622    1    1    2    0    0 -0.43251997356E-03  0.58351578595E-03  0.39825859315E+01  0.39827868672E+01  0.40000000000E-01 0. -1.
</event>
<event>
 5   0  0.7212170E+07  0.9118800E+02  0.7818608E-02  0.1180000E+00
       11   -1    0    0    0    0  0.00000000000E+00  0.00000000000E+00  0.39999999673E+01  0.40000000000E+01  0.51109989000E-03 0.  1.
     -623   -1    0    0    0    0  0.00000000000E+00  0.00000000000E+00  0.12525980253E-10  0.17130000000E+03  0.17130000000E+03 0. -1.
       11    1    1    2    0    0 -0.49389290307E-03 -0.15237013959E-02  0.14553442716E-01  0.14650239388E-01  0.51109989000E-03 0.  1.
     -623    1    1    2    0    0 -0.11262986690E-04  0.19462951086E-02  0.29757003151E-03  0.17130000001E+03  0.17130000000E+03 0. -1.
      622    1    1    2    0    0  0.50515588976E-03 -0.42259371282E-03  0.39851489550E+01  0.39853497497E+01  0.40000000000E-01 0.  1.
</event>
<event>
 5   0  0.7212170E+07  0.9118800E+02  0.7818608E-02  0.1180000E+00
       11   -1    0    0    0    0  0.00000000000E+00  0.00000000000E+00  0.39999999673E+01  0.40000000000E+01  0.51109989000E-03 0.  1.
     -623   -1    0    0    0    0  0.00000000000E+00  0.00000000000E+00  0.12525980253E-10  0.17130000000E+03  0.17130000000E+03 0. -1.
       11    1    1    2    0    0 -0.12485548364E-02 -0.21642570008E-02  0.16008910086E-02  0.30111414222E-02  0.51109989000E-03 0.  1.
     -623    1    1    2    0    0 -0.52811150734E-03  0.23023275447E-02  0.16107945859E-02  0.17130000002E+03  0.17130000000E+03 0. -1.
      622    1    1    2    0    0  0.17766663437E-02 -0.13807054395E-03  0.39967882819E+01  0.39969888348E+01  0.40000000000E-01 0.  1.
</event>
<event>
 5   0  0.7212170E+07  0.9118800E+02  0.7818608E-02  0.1180000E+00
       11   -1    0    0    0    0  0.00000000000E+00  0.00000000000E+00  0.39999999673E+01  0.40000000000E+01  0.51109989000E-03 0.  1.
     -623   -1    0    0    0    0  0.00000000000E+00  0.00000000000E+00  0.12525980253E-10  0.17130000000E+03  0.17130000000E+03 0. -1.
       11    1    1    2    0    0  0.82279605746E-02 -0.15297367124E-02  0.13514249661E+01  0.13514509757E+01  0.51109989000E-03 0.  1.
     -623    1    1    2    0    0  0.11278795108E-02  0.10667699113E-03  0.34495918859E-03  0.17130000000E+03  0.17130000000E+03 0. -1.
      622    1    1    2    0    0 -0.93558400852E-02  0.14230597213E-02  0.26482300418E+01  0.26485490199E+01  0.40000000000E-01 0.  0.
</event>
<event>
 5   0  0.7212170E+07  0.9118800E+02  0.7818608E-02  0.1180000E+00
       11   -1    0    0    0    0  0.00000000000E+00  0.00000000000E+00  0.39999999673E+01  0.40000000000E+01  0.51109989000E-03 0.  1.
     -623   -1    0    0    0    0  0.00000000000E+00  0.00000000000E+00  0.12525980253E-10  0.17130000000E+03  0.17130000000E+03 0. -1.
       11    1    1    2    0    0  0.91542966225E-03 -0.22136450626E-03  0.10846414296E-02  0.15246913916E-02  0.51109989000E-03 0.  1.
     -623    1    1    2    0    0 -0.17685997489E-02 -0.12525221831E-02  0.64047618527E-03  0.17130000001E+03  0.17130000000E+03 0. -1.
      622    1    1    2    0    0  0.85317008665E-03  0.14738866893E-02  0.39982748497E+01  0.39984752937E+01  0.40000000000E-01 0.  1.
</event>
<event>
 5   0  0.7212170E+07  0.9118800E+02  0.7818608E-02  0.1180000E+00
       11   -1    0    0    0    0  0.00000000000E+00  0.00000000000E+00  0.39999999673E+01  0.40000000000E+01  0.51109989000E-03 0. -1.
     -623   -1    0    0    0    0  0.00000000000E+00  0.00000000000E+00  0.12525980253E-10  0.17130000000E+03  0.17130000000E+03 0.  1.
       11    1    1    2    0    0 -0.41016274089E-02 -0.17002133057E-02  0.58257114796E-01  0.58428304101E-01  0.51109989000E-03 0. -1.
     -623    1    1    2    0    0  0.17503857836E-02 -0.75291704896E-03  0.37560236544E-03  0.17130000001E+03  0.17130000000E+03 0.  1.
      622    1    1    2    0    0  0.23512416253E-02  0.24531303547E-02  0.39413672504E+01  0.39415716851E+01  0.40000000000E-01 0. -1.
</event>
<event>
 5   0  0.7212170E+07  0.9118800E+02  0.7818608E-02  0.1180000E+00
       11   -1    0    0    0    0  0.00000000000E+00  0.00000000000E+00  0.39999999673E+01  0.40000000000E+01  0.51109989000E-03 0. -1.
     -623   -1    0    0    0    0  0.00000000000E+00  0.00000000000E+00  0.12525980253E-10  0.17130000000E+03  0.17130000000E+03 0. -1.
       11    1    1    2    0    0  0.62314750874E-01 -0.31443379382E-01  0.16668115751E+01  0.16682724305E+01  0.51109989000E-03 0. -1.
     -623    1    1    2    0    0  0.78286224271E-02  0.25760037994E-02  0.30383992536E-02  0.17130000023E+03  0.17130000000E+03 0. -1.
      622    1    1    2    0    0 -0.70143373302E-01  0.28867375583E-01  0.23301499930E+01  0.23317273443E+01  0.40000000000E-01 0. -1.
</event>
<event>
 5   0  0.7212170E+07  0.9118800E+02  0.7818608E-02  0.1180000E+00
       11   -1    0    0    0    0  0.00000000000E+00  0.00000000000E+00  0.39999999673E+01  0.40000000000E+01  0.51109989000E-03 0.  1.
     -623   -1    0    0    0    0  0.00000000000E+00  0.00000000000E+00  0.12525980253E-10  0.17130000000E+03  0.17130000000E+03 0. -1.
       11    1    1    2    0    0 -0.30418377430E-02 -0.11158391126E-02  0.76985323153E-01  0.77055169053E-01  0.51109989000E-03 0.  1.
     -623    1    1    2    0    0  0.18252167124E-02 -0.12085423990E-02  0.27463851363E-03  0.17130000001E+03  0.17130000000E+03 0. -1.
      622    1    1    2    0    0  0.12166210302E-02  0.23243815118E-02  0.39227400064E+01  0.39229448175E+01  0.40000000000E-01 0.  1.
</event>
<event>
 5   0  0.7212170E+07  0.9118800E+02  0.7818608E-02  0.1180000E+00
       11   -1    0    0    0    0  0.00000000000E+00  0.00000000000E+00  0.39999999673E+01  0.40000000000E+01  0.51109989000E-03 0.  1.
     -623   -1    0    0    0    0  0.00000000000E+00  0.00000000000E+00  0.12525980253E-10  0.17130000000E+03  0.17130000000E+03 0.  1.
       11    1    1    2    0    0  0.60558495551E-02  0.48821138195E-02  0.31463003315E+00  0.31472659139E+00  0.51109989000E-03 0.  1.
     -623    1    1    2    0    0  0.34759489707E-04 -0.32270742779E-03  0.32146669106E-03  0.17130000000E+03  0.17130000000E+03 0.  1.
      622    1    1    2    0    0 -0.60906090448E-02 -0.45594063917E-02  0.36850484674E+01  0.36852734078E+01  0.40000000000E-01 0.  1.
</event>
<event>
 5   0  0.7212170E+07  0.9118800E+02  0.7818608E-02  0.1180000E+00
       11   -1    0    0    0    0  0.00000000000E+00  0.00000000000E+00  0.39999999673E+01  0.40000000000E+01  0.51109989000E-03 0.  1.
     -623   -1    0    0    0    0  0.00000000000E+00  0.00000000000E+00  0.12525980253E-10  0.17130000000E+03  0.17130000000E+03 0. -1.
       11    1    1    2    0    0 -0.13987783526E-02 -0.11459037540E-02  0.99379874948E-01  0.99397638021E-01  0.51109989000E-03 0.  1.
     -623    1    1    2    0    0 -0.61914526520E-03 -0.68366554455E-03  0.22378608246E-03  0.17130000000E+03  0.17130000000E+03 0. -1.
      622    1    1    2    0    0  0.20179236179E-02  0.18295692986E-02  0.39003963069E+01  0.39006023600E+01  0.40000000000E-01 0.  1.
</event>
<event>
 5   0  0.7212170E+07  0.9118800E+02  0.7818608E-02  0.1180000E+00
       11   -1    0    0    0    0  0.00000000000E+00  0.00000000000E+00  0.39999999673E+01  0.40000000000E+01  0.51109989000E-03 0.  1.
     -623   -1    0    0    0    0  0.00000000000E+00  0.00000000000E+00  0.12525980253E-10  0.17130000000E+03  0.17130000000E+03 0. -1.
       11    1    1    2    0    0 -0.31979341204E-02 -0.12612956790E-02  0.10164685310E+00  0.10170625162E+00  0.51109989000E-03 0.  1.
     -623    1    1    2    0    0  0.38800410084E-02  0.20619941280E-02  0.26478774008E-03  0.17130000006E+03  0.17130000000E+03 0. -1.
      622    1    1    2    0    0 -0.68210688813E-03 -0.80069844902E-03  0.38980883266E+01  0.38982936919E+01  0.40000000000E-01 0.  1.
</event>
<event>
 5   0  0.7212170E+07  0.9118800E+02  0.7818608E-02  0.1180000E+00
       11   -1    0    0    0    0  0.00000000000E+00  0.00000000000E+00  0.39999999673E+01  0.40000000000E+01  0.51109989000E-03 0.  1.
     -623   -1    0    0    0    0  0.00000000000E+00  0.00000000000E+00  0.12525980253E-10  0.17130000000E+03  0.17130000000E+03 0. -1.
       11    1    1    2    0    0 -0.19002560295E-01 -0.49420697471E-02  0.16645462506E+01  0.16646621287E+01  0.51109989000E-03 0.  1.
     -623    1    1    2    0    0  0.26216711067E-01 -0.38318343300E-03  0.47765795237E-03  0.17130000201E+03  0.17130000000E+03 0. -1.
      622    1    1    2    0    0 -0.72141507823E-02  0.53252531802E-02  0.23349760604E+01  0.23353358655E+01  0.40000000000E-01 0.  1.
</event>
<event>
 5   0  0.7212170E+07  0.9118800E+02  0.7818608E-02  0.1180000E+00
       11   -1    0    0    0    0  0.00000000000E+00  0.00000000000E+00  0.39999999673E+01  0.40000000000E+01  0.51109989000E-03 0.  1.
     -623   -1    0    0    0    0  0.00000000000E+00  0.00000000000E+00  0.12525980253E-10  0.17130000000E+03  0.17130000000E+03 0.  1.
       11    1    1    2    0    0 -0.16621146809E-01  0.15666543164E-01  0.17147623306E+00  0.17299151084E+00  0.51109989000E-03 0.  1.
     -623    1    1    2    0    0  0.20938674457E-01 -0.47990975518E-02  0.17435137615E-02  0.17130000136E+03  0.17130000000E+03 0.  1.
      622    1    1    2    0    0 -0.43175276485E-02 -0.10867445612E-01  0.38267802207E+01  0.38270071335E+01  0.40000000000E-01 0.  1.
</event>
<event>
 5   0  0.7212170E+07  0.9118800E+02  0.7818608E-02  0.1180000E+00
       11   -1    0    0    0    0  0.00000000000E+00  0.00000000000E+00  0.39999999673E+01  0.40000000000E+01  0.51109989000E-03 0. -1.
     -623   -1    0    0    0    0  0.00000000000E+00  0.00000000000E+00  0.12525980253E-10  0.17130000000E+03  0.17130000000E+03 0.  1.
       11    1    1    2    0    0 -0.71740259899E-02 -0.72755588412E-02  0.88340569575E-01  0.88930972452E-01  0.51109989000E-03 0. -1.
     -623    1    1    2    0    0  0.14099918235E-01 -0.56218927869E-02  0.82299749772E-03  0.17130000067E+03  0.17130000000E+03 0.  1.
      622    1    1    2    0    0 -0.69258922460E-02  0.12897451628E-01  0.39108364005E+01  0.39110683532E+01  0.40000000000E-01 0. -1.
</event>
<event>
 5   0  0.7212170E+07  0.9118800E+02  0.7818608E-02  0.1180000E+00
       11   -1    0    0    0    0  0.00000000000E+00  0.00000000000E+00  0.39999999673E+01  0.40000000000E+01  0.51109989000E-03 0. -1.
     -623   -1    0    0    0    0  0.00000000000E+00  0.00000000000E+00  0.12525980253E-10  0.17130000000E+03  0.17130000000E+03 0. -1.
       11    1    1    2    0    0 -0.18834881950E-01  0.15663478851E-01  0.10915504185E+01  0.10918253866E+01  0.51109989000E-03 0. -1.
     -623    1    1    2    0    0  0.30606187224E-03  0.33447172693E-02  0.67122950646E-03  0.17130000003E+03  0.17130000000E+03 0. -1.
      622    1    1    2    0    0  0.18528820078E-01 -0.19008196120E-01  0.29077783192E+01  0.29081745791E+01  0.40000000000E-01 0. -1.
</event>
<event>
 5   0  0.7212170E+07  0.9118800E+02  0.7818608E-02  0.1180000E+00
       11   -1    0    0    0    0  0.00000000000E+00  0.00000000000E+00  0.39999999673E+01  0.40000000000E+01  0.51109989000E-03 0. -1.
     -623   -1    0    0    0    0  0.00000000000E+00  0.00000000000E+00  0.12525980253E-10  0.17130000000E+03  0.17130000000E+03 0.  1.
       11    1    1    2    0    0 -0.33771513853E-02 -0.74251772082E-02  0.46376510834E+00  0.46383712157E+00  0.51109989000E-03 0. -1.
     -623    1    1    2    0    0  0.54812053528E-02  0.27844766953E-02  0.30200367242E-03  0.17130000011E+03  0.17130000000E+03 0.  1.
      622    1    1    2    0    0 -0.21040539675E-02  0.46407005130E-02  0.35359328554E+01  0.35361627679E+01  0.40000000000E-01 0. -1.
</event>
<event>
 5   0  0.7212170E+07  0.9118800E+02  0.7818608E-02  0.1180000E+00
       11   -1    0    0    0    0  0.00000000000E+00  0.00000000000E+00  0.39999999673E+01  0.40000000000E+01  0.51109989000E-03 0. -1.
     -623   -1    0    0    0    0  0.00000000000E+00  0.00000000000E+00  0.12525980253E-10  0.17130000000E+03  0.17130000000E+03 0. -1.
       11    1    1    2    0    0  0.35831132858E-02 -0.26507241875E-02  0.62466527697E-01  0.62627416881E-01  0.51109989000E-03 0. -1.
     -623    1    1    2    0    0 -0.16276342441E-03  0.62266439694E-03  0.36605258379E-03  0.17130000000E+03  0.17130000000E+03 0. -1.
      622    1    1    2    0    0 -0.34203498614E-02  0.20280597905E-02  0.39371673872E+01  0.39373725816E+01  0.40000000000E-01 0. -1.
</event>
<event>
 5   0  0.7212170E+07  0.9118800E+02  0.7818608E-02  0.1180000E+00
       11   -1    0    0    0    0  0.00000000000E+00  0.00000000000E+00  0.39999999673E+01  0.40000000000E+01  0.51109989000E-03 0.  1.
     -623   -1    0    0    0    0  0.00000000000E+00  0.00000000000E+00  0.12525980253E-10  0.17130000000E+03  0.17130000000E+03 0.  1.
       11    1    1    2    0    0  0.97255490503E-03  0.22870970263E-02  0.25594696257E-01  0.25720155043E-01  0.51109989000E-03 0.  1.
     -623    1    1    2    0    0  0.84682848447E-03 -0.29193878552E-03  0.32764552581E-03  0.17130000000E+03  0.17130000000E+03 0.  1.
      622    1    1    2    0    0 -0.18193833893E-02 -0.19951582408E-02  0.39740776246E+01  0.39742798413E+01  0.40000000000E-01 0.  1.
</event>
<event>
 5   0  0.7212170E+07  0.9118800E+02  0.7818608E-02  0.1180000E+00
       11   -1    0    0    0    0  0.00000000000E+00  0.00000000000E+00  0.39999999673E+01  0.40000000000E+01  0.51109989000E-03 0.  1.
     -623   -1    0    0    0    0  0.00000000000E+00  0.00000000000E+00  0.12525980253E-10  0.17130000000E+03  0.17130000000E+03 0. -1.
       11    1    1    2    0    0 -0.11997705435E-01 -0.21517262757E-01  0.17513540585E+01  0.17515274012E+01  0.51109989000E-03 0.  1.
     -623    1    1    2    0    0  0.32795689713E-01 -0.28056437357E-01  0.11774548511E-02  0.17130000544E+03  0.17130000000E+03 0. -1.
      622    1    1    2    0    0 -0.20797984278E-01  0.49573700114E-01  0.22474684540E+01  0.22484671578E+01  0.40000000000E-01 0.  1.
</event>
<event>
 5   0  0.7212170E+07  0.9118800E+02  0.7818608E-02  0.1180000E+00
       11   -1    0    0    0    0  0.00000000000E+00  0.00000000000E+00  0.39999999673E+01  0.40000000000E+01  0.51109989000E-03 0. -1.
     -623   -1    0    0    0    0  0.00000000000E+00  0.00000000000E+00  0.12525980253E-10  0.17130000000E+03  0.17130000000E+03 0.  1.
       11    1    1    2    0    0 -0.17825958945E-02  0.26926231144E-03  0.12442273392E-01  0.12582588786E-01  0.51109989000E-03 0. -1.
     -623    1    1    2    0    0  0.68063297524E-03 -0.13394458246E-02  0.34122174347E-03  0.17130000001E+03  0.17130000000E+03 0.  1.
      622    1    1    2    0    0  0.11019629190E-02  0.10701835137E-02  0.39872164737E+01  0.39874174058E+01  0.40000000000E-01 0. -1.
</event>
<event>
 5   0  0.7212170E+07  0.9118800E+02  0.7818608E-02  0.1180000E+00
       11   -1    0    0    0    0  0.00000000000E+00  0.00000000000E+00  0.39999999673E+01  0.40000000000E+01  0.51109989000E-03 0.  1.
     -623   -1    0    0    0    0  0.00000000000E+00  0.00000000000E+00  0.12525980253E-10  0.17130000000E+03  0.17130000000E+03 0. -1.
       11    1    1    2    0    0 -0.62377296469E-02 -0.10859465136E-02  0.15924313383E+01  0.15924440074E+01  0.51109989000E-03 0.  1.
     -623    1    1    2    0    0 -0.25580169808E-02  0.20599580702E-02  0.36124501523E-03  0.17130000003E+03  0.17130000000E+03 0. -1.
      622    1    1    2    0    0  0.87957466274E-02 -0.97401155646E-03  0.24072073838E+01  0.24075559604E+01  0.40000000000E-01 0.  1.
</event>
<event>
 5   0  0.7212170E+07  0.9118800E+02  0.7818608E-02  0.1180000E+00
       11   -1    0    0    0    0  0.00000000000E+00  0.00000000000E+00  0.39999999673E+01  0.40000000000E+01  0.51109989000E-03 0. -1.
     -623   -1    0    0    0    0  0.00000000000E+00  0.00000000000E+00  0.12525980253E-10  0.17130000000E+03  0.17130000000E+03 0.  1.
       11    1    1    2    0    0 -0.37878408454E-01  0.50778105107E-01  0.21075072443E+01  0.21084592090E+01  0.51109989000E-03 0. -1.
     -623    1    1    2    0    0  0.97795122280E-02 -0.23517301889E-02  0.22041917298E-02  0.17130000031E+03  0.17130000000E+03 0.  1.
      622    1    1    2    0    0  0.28098896226E-01 -0.48426374918E-01  0.18902885312E+01  0.18915404814E+01  0.40000000000E-01 0.  0.
</event>
<event>
 5   0  0.7212170E+07  0.9118800E+02  0.7818608E-02  0.1180000E+00
       11   -1    0    0    0    0  0.00000000000E+00  0.00000000000E+00  0.39999999673E+01  0.40000000000E+01  0.51109989000E-03 0. -1.
     -623   -1    0    0    0    0  0.00000000000E+00  0.00000000000E+00  0.12525980253E-10  0.17130000000E+03  0.17130000000E+03 0. -1.
       11    1    1    2    0    0 -0.18175306027E-02  0.19556173488E-02  0.66116064312E-02  0.71485956247E-02  0.51109989000E-03 0. -1.
     -623    1    1    2    0    0  0.49631869243E-02 -0.52595525578E-02  0.74008008323E-03  0.17130000015E+03  0.17130000000E+03 0. -1.
      622    1    1    2    0    0 -0.31456563222E-02  0.33039352095E-02  0.39926482812E+01  0.39928512505E+01  0.40000000000E-01 0. -1.
</event>
<event>
 5   0  0.7212170E+07  0.9118800E+02  0.7818608E-02  0.1180000E+00
       11   -1    0    0    0    0  0.00000000000E+00  0.00000000000E+00  0.39999999673E+01  0.40000000000E+01  0.51109989000E-03 0.  1.
     -623   -1    0    0    0    0  0.00000000000E+00  0.00000000000E+00  0.12525980253E-10  0.17130000000E+03  0.17130000000E+03 0. -1.
       11    1    1    2    0    0  0.22370582258E-02  0.61537015613E-03  0.47884916515E-02  0.53454639956E-02  0.51109989000E-03 0.  1.
     -623    1    1    2    0    0 -0.70313246007E-02 -0.11909919193E-01  0.77661763230E-03  0.17130000056E+03  0.17130000000E+03 0. -1.
      622    1    1    2    0    0  0.47942663745E-02  0.11294549036E-01  0.39944348579E+01  0.39946539757E+01  0.40000000000E-01 0.  1.
</event>
<event>
 5   0  0.7212170E+07  0.9118800E+02  0.7818608E-02  0.1180000E+00
       11   -1    0    0    0    0  0.00000000000E+00  0.00000000000E+00  0.39999999673E+01  0.40000000000E+01  0.51109989000E-03 0.  1.
     -623   -1    0    0    0    0  0.00000000000E+00  0.00000000000E+00  0.12525980253E-10  0.17130000000E+03  0.17130000000E+03 0.  1.
       11    1    1    2    0    0  0.42940141698E-01  0.28052527651E-01  0.44869937687E+00  0.45162173564E+00  0.51109989000E-03 0.  1.
     -623    1    1    2    0    0 -0.25875469745E-01 -0.11487378309E-01  0.32298638704E-02  0.17130000237E+03  0.17130000000E+03 0.  1.
      622    1    1    2    0    0 -0.17064671951E-01 -0.16565149341E-01  0.35480707268E+01  0.35483758946E+01  0.40000000000E-01 0.  1.
</event>
<event>
 5   0  0.7212170E+07  0.9118800E+02  0.7818608E-02  0.1180000E+00
       11   -1    0    0    0    0  0.00000000000E+00  0.00000000000E+00  0.39999999673E+01  0.40000000000E+01  0.51109989000E-03 0.  1.
     -623   -1    0    0    0    0  0.00000000000E+00  0.00000000000E+00  0.12525980253E-10  0.17130000000E+03  0.17130000000E+03 0.  1.
       11    1    1    2    0    0 -0.14080546283E-02  0.19601001918E-02  0.62007074953E-01  0.62056129254E-01  0.51109989000E-03 0.  1.
     -623    1    1    2    0    0 -0.40228135241E-03 -0.51684799547E-03  0.25286067203E-03  0.17130000000E+03  0.17130000000E+03 0.  1.
      622    1    1    2    0    0  0.18103359808E-02 -0.14432521962E-02  0.39377400333E+01  0.39379438708E+01  0.40000000000E-01 0.  1.
</event>
<event>
 5   0  0.7212170E+07  0.9118800E+02  0.7818608E-02  0.1180000E+00
       11   -1    0    0    0    0  0.00000000000E+00  0.00000000000E+00  0.39999999673E+01  0.40000000000E+01  0.51109989000E-03 0. -1.
     -623   -1    0    0    0    0  0.00000000000E+00  0.00000000000E+00  0.12525980253E-10  0.17130000000E+03  0.17130000000E+03 0. -1.
       11    1    1    2    0    0 -0.30560604591E-02 -0.45301461786E-02  0.72934477126E-01  0.73140692549E-01  0.51109989000E-03 0. -1.
     -623    1    1    2    0    0  0.39222622813E-02  0.49366243345E-02  0.41014633153E-03  0.17130000012E+03  0.17130000000E+03 0. -1.
      622    1    1    2    0    0 -0.86620182219E-03 -0.40647815597E-03  0.39266553439E+01  0.39268591910E+01  0.40000000000E-01 0. -1.
</event>
<event>
 5   0  0.7212170E+07  0.9118800E+02  0.7818608E-02  0.1180000E+00
       11   -1    0    0    0    0  0.00000000000E+00  0.00000000000E+00  0.39999999673E+01  0.40000000000E+01  0.51109989000E-03 0. -1.
     -623   -1    0    0    0    0  0.00000000000E+00  0.00000000000E+00  0.12525980253E-10  0.17130000000E+03  0.17130000000E+03 0. -1.
       11    1    1    2    0    0 -0.21619444204E-01  0.15097399761E-01  0.71804666283E+00  0.71853086439E+00  0.51109989000E-03 0. -1.
     -623    1    1    2    0    0 -0.67155172647E-03 -0.62718449546E-03  0.83560124270E-03  0.17130000000E+03  0.17130000000E+03 0. -1.
      622    1    1    2    0    0  0.22290995930E-01 -0.14470215265E-01  0.32811177032E+01  0.32814691310E+01  0.40000000000E-01 0. -1.
</event>
<event>
 5   0  0.7212170E+07  0.9118800E+02  0.7818608E-02  0.1180000E+00
       11   -1    0    0    0    0  0.00000000000E+00  0.00000000000E+00  0.39999999673E+01  0.40000000000E+01  0.51109989000E-03 0.  1.
     -623   -1    0    0    0    0  0.00000000000E+00  0.00000000000E+00  0.12525980253E-10  0.17130000000E+03  0.17130000000E+03 0.  1.
       11    1    1    2    0    0 -0.13432255606E-02 -0.37297959262E-02  0.12195337575E+01  0.12195403079E+01  0.51109989000E-03 0.  1.
     -623    1    1    2    0    0 -0.11070887147E-01 -0.10705143538E-01  0.36013810643E-03  0.17130000069E+03  0.17130000000E+03 0.  1.
      622    1    1    2    0    0  0.12414112711E-01  0.14434939467E-01  0.27801060731E+01  0.27804590008E+01  0.40000000000E-01 0.  0.
</event>
<event>
 5   0  0.7212170E+07  0.9118800E+02  0.7818608E-02  0.1180000E+00
       11   -1    0    0    0    0  0.00000000000E+00  0.00000000000E+00  0.39999999673E+01  0.40000000000E+01  0.51109989000E-03 0.  1.
     -623   -1    0    0    0    0  0.00000000000E+00  0.00000000000E+00  0.12525980253E-10  0.17130000000E+03  0.17130000000E+03 0.  1.
       11    1    1    2    0    0 -0.11778944921E-01 -0.17903272893E-02  0.11377643533E+00  0.11439968214E+00  0.51109989000E-03 0.  1.
     -623    1    1    2    0    0  0.50102289803E-03  0.28191315656E-03  0.84577181686E-03  0.17130000000E+03  0.17130000000E+03 0.  1.
      622    1    1    2    0    0  0.11277922023E-01  0.15084141328E-02  0.38853777603E+01  0.38856003149E+01  0.40000000000E-01 0.  1.
</event>
<event>
 5   0  0.7212170E+07  0.9118800E+02  0.7818608E-02  0.1180000E+00
       11   -1    0    0    0    0  0.00000000000E+00  0.00000000000E+00  0.39999999673E+01  0.40000000000E+01  0.51109989000E-03 0.  1.
     -623   -1    0    0    0    0  0.00000000000E+00  0.00000000000E+00  0.12525980253E-10  0.17130000000E+03  0.17130000000E+03 0. -1.
       11    1    1    2    0    0  0.44286664881E-02 -0.95086702911E-02  0.12422004294E+00  0.12466317896E+00  0.51109989000E-03 0.  1.
     -623    1    1    2    0    0 -0.23074221254E-01  0.67916229471E-02  0.69704298977E-03  0.17130000169E+03  0.17130000000E+03 0. -1.
      622    1    1    2    0    0  0.18645554766E-01  0.27170473441E-02  0.38750828814E+01  0.38753351309E+01  0.40000000000E-01 0.  1.
</event>
<event>
 5   0  0.7212170E+07  0.9118800E+02  0.7818608E-02  0.1180000E+00
       11   -1    0    0    0    0  0.00000000000E+00  0.00000000000E+00  0.39999999673E+01  0.40000000000E+01  0.51109989000E-03 0. -1.
     -623   -1    0    0    0    0  0.00000000000E+00  0.00000000000E+00  0.12525980253E-10  0.17130000000E+03  0.17130000000E+03 0.  1.
       11    1    1    2    0    0 -0.40718382442E-02  0.15460250752E-02  0.15180241511E+00  0.15186574504E+00  0.51109989000E-03 0. -1.
     -623    1    1    2    0    0 -0.17640207471E-03 -0.64286327570E-03  0.27364846937E-03  0.17130000000E+03  0.17130000000E+03 0.  1.
      622    1    1    2    0    0  0.42482403189E-02 -0.90316179933E-03  0.38479239048E+01  0.38481342544E+01  0.40000000000E-01 0. -1.
</event>
<event>
 5   0  0.7212170E+07  0.9118800E+02  0.7818608E-02  0.1180000E+00
       11   -1    0    0    0    0  0.00000000000E+00  0.00000000000E+00  0.39999999673E+01  0.40000000000E+01  0.51109989000E-03 0.  1.
     -623   -1    0    0    0    0  0.00000000000E+00  0.00000000000E+00  0.12525980253E-10  0.17130000000E+03  0.17130000000E+03 0. -1.
       11    1    1    2    0    0  0.15643926841E-01 -0.27799245651E-01  0.28893998942E+01  0.28895760140E+01  0.51109989000E-03 0.  1.
     -623    1    1    2    0    0  0.19389015092E-02  0.40568795948E-02  0.12901835557E-02  0.17130000006E+03  0.17130000000E+03 0. -1.
      622    1    1    2    0    0 -0.17582828350E-01  0.23742366056E-01  0.11093098898E+01  0.11104239224E+01  0.40000000000E-01 0.  1.
</event>
<event>
 5   0  0.7212170E+07  0.9118800E+02  0.7818608E-02  0.1180000E+00
       11   -1    0    0    0    0  0.00000000000E+00  0.00000000000E+00  0.39999999673E+01  0.40000000000E+01  0.51109989000E-03 0.  1.
     -623   -1    0    0    0    0  0.00000000000E+00  0.00000000000E+00  0.12525980253E-10  0.17130000000E+03  0.17130000000E+03 0.  1.
       11    1    1    2    0    0 -0.76571429677E-03 -0.10209566085E-01  0.64003577160E+00  0.64011785767E+00  0.51109989000E-03 0.  1.
     -623    1    1    2    0    0  0.87108479083E-04 -0.35012562176E-02  0.34824743800E-03  0.17130000004E+03  0.17130000000E+03 0.  1.
      622    1    1    2    0    0  0.67860581768E-03  0.13710822303E-01  0.33596159486E+01  0.33598821064E+01  0.40000000000E-01 0.  0.
</event>
<event>
 5   0  0.7212170E+07  0.9118800E+02  0.7818608E-02  0.1180000E+00
       11   -1    0    0    0    0  0.00000000000E+00  0.00000000000E+00  0.39999999673E+01  0.40000000000E+01  0.51109989000E-03 0.  1.
     -623   -1    0    0    0    0  0.00000000000E+00  0.00000000000E+00  0.12525980253E-10  0.17130000000E+03  0.17130000000E+03 0.  1.
       11    1    1    2    0    0  0.12972796673E-02  0.13193716641E-02  0.49098983881E-02  0.52718119657E-02  0.51109989000E-03 0.  1.
     -623    1    1    2    0    0  0.92687156092E-03 -0.57519151790E-03  0.56284281783E-03  0.17130000000E+03  0.17130000000E+03 0.  1.
      622    1    1    2    0    0 -0.22241512281E-02 -0.74418014623E-03  0.39945272258E+01  0.39947281833E+01  0.40000000000E-01 0.  1.
</event>
<event>
 5   0  0.7212170E+07  0.9118800E+02  0.7818608E-02  0.1180000E+00
       11   -1    0    0    0    0  0.00000000000E+00  0.00000000000E+00  0.39999999673E+01  0.40000000000E+01  0.51109989000E-03 0.  1.
     -623   -1    0    0    0    0  0.00000000000E+00  0.00000000000E+00  0.12525980253E-10  0.17130000000E+03  0.17130000000E+03 0. -1.
       11    1    1    2    0    0 -0.35119920937E-03  0.93732221457E-04  0.59519724766E-02  0.59849249012E-02  0.51109989000E-03 0.  1.
     -623    1    1    2    0    0  0.24041159779E-03 -0.26892030450E-03  0.23323041942E-03  0.17130000000E+03  0.17130000000E+03 0. -1.
      622    1    1    2    0    0  0.11078761155E-03  0.17518808308E-03  0.39938147650E+01  0.39940150751E+01  0.40000000000E-01 0.  1.
</event>
<event>
 5   0  0.7212170E+07  0.9118800E+02  0.7818608E-02  0.1180000E+00
       11   -1    0    0    0    0  0.00000000000E+00  0.00000000000E+00  0.39999999673E+01  0.40000000000E+01  0.51109989000E-03 0. -1.
     -623   -1    0    0    0    0  0.00000000000E+00  0.00000000000E+00  0.12525980253E-10  0.17130000000E+03  0.17130000000E+03 0. -1.
       11    1    1    2    0    0  0.39115990174E-03 -0.73194828177E-02  0.29121741922E+00  0.29131009992E+00  0.51109989000E-03 0. -1.
     -623    1    1    2    0    0  0.18680098249E-03  0.10291585224E-01  0.30990949616E-03  0.17130000031E+03  0.17130000000E+03 0. -1.
      622    1    1    2    0    0 -0.57796088424E-03 -0.29721024068E-02  0.37084726390E+01  0.37086895909E+01  0.40000000000E-01 0. -1.
</event>
<event>
 5   0  0.7212170E+07  0.9118800E+02  0.7818608E-02  0.1180000E+00
       11   -1    0    0    0    0  0.00000000000E+00  0.00000000000E+00  0.39999999673E+01  0.40000000000E+01  0.51109989000E-03 0. -1.
     -623   -1    0    0    0    0  0.00000000000E+00  0.00000000000E+00  0.12525980253E-10  0.17130000000E+03  0.17130000000E+03 0. -1.
       11    1    1    2    0    0  0.35243355865E-02 -0.21157317287E-01  0.22149892419E+01  0.22150931484E+01  0.51109989000E-03 0. -1.
     -623    1    1    2    0    0  0.87594405962E-02  0.50865741122E-02  0.66708273790E-03  0.17130000030E+03  0.17130000000E+03 0. -1.
      622    1    1    2    0    0 -0.12283776182E-01  0.16070743175E-01  0.17843436423E+01  0.17849065504E+01  0.40000000000E-01 0. -1.
</event>
<event>
 5   0  0.7212170E+07  0.9118800E+02  0.7818608E-02  0.1180000E+00
       11   -1    0    0    0    0  0.00000000000E+00  0.00000000000E+00  0.39999999673E+01  0.40000000000E+01  0.51109989000E-03 0. -1.
     -623   -1    0    0    0    0  0.00000000000E+00  0.00000000000E+00  0.12525980253E-10  0.17130000000E+03  0.17130000000E+03 0.  1.
       11    1    1    2    0    0 -0.33362503366E-02  0.51526581446E-02  0.72643821534E-01  0.72904502484E-01  0.51109989000E-03 0. -1.
     -623    1    1    2    0    0 -0.53669605421E-03 -0.20654624121E-02  0.46750382146E-03  0.17130000001E+03  0.17130000000E+03 0.  1.
      622    1    1    2    0    0  0.38729463908E-02 -0.30871957326E-02  0.39268886417E+01  0.39270954833E+01  0.40000000000E-01 0. -1.
</event>
<event>
 5   0  0.7212170E+07  0.9118800E+02  0.7818608E-02  0.1180000E+00
       11   -1    0    0    0    0  0.00000000000E+00  0.00000000000E+00  0.39999999673E+01  0.40000000000E+01  0.51109989000E-03 0.  1.
     -623   -1    0    0    0    0  0.00000000000E+00  0.00000000000E+00  0.12525980253E-10  0.17130000000E+03  0.17130000000E+03 0. -1.
       11    1    1    2    0    0 -0.18396125786E-02 -0.19685527058E-03  0.34843806185E-02  0.39780721247E-02  0.51109989000E-03 0.  1.
     -623    1    1    2    0    0  0.12560829289E-02  0.39352487788E-02  0.69570558856E-03  0.17130000005E+03  0.17130000000E+03 0. -1.
      622    1    1    2    0    0  0.58352964966E-03 -0.37383935083E-02  0.39958198812E+01  0.39960218768E+01  0.40000000000E-01 0.  1.
</event>
<event>
 5   0  0.7212170E+07  0.9118800E+02  0.7818608E-02  0.1180000E+00
       11   -1    0    0    0    0  0.00000000000E+00  0.00000000000E+00  0.39999999673E+01  0.40000000000E+01  0.51109989000E-03 0.  1.
     -623   -1    0    0    0    0  0.00000000000E+00  0.00000000000E+00  0.12525980253E-10  0.17130000000E+03  0.17130000000E+03 0.  1.
       11    1    1    2    0    0 -0.11160853545E-02  0.47847573811E-04  0.30608067012E-02  0.32981353321E-02  0.51109989000E-03 0.  1.
     -623    1    1    2    0    0  0.18588781246E-02  0.33024055960E-03  0.43756392245E-03  0.17130000001E+03  0.17130000000E+03 0.  1.
      622    1    1    2    0    0 -0.74279276973E-03 -0.37808813335E-03  0.39965015960E+01  0.39967018530E+01  0.40000000000E-01 0.  1.
</event>
<event>
 5   0  0.7212170E+07  0.9118800E+02  0.7818608E-02  0.1180000E+00
       11   -1    0    0    0    0  0.00000000000E+00  0.00000000000E+00  0.39999999673E+01  0.40000000000E+01  0.51109989000E-03 0. -1.
     -623   -1    0    0    0    0  0.00000000000E+00  0.00000000000E+00  0.12525980253E-10  0.17130000000E+03  0.17130000000E+03 0.  1.
       11    1    1    2    0    0  0.58275367361E-03  0.29817192397E-02  0.12148004442E+00  0.12151910412E+00  0.51109989000E-03 0. -1.
     -623    1    1    2    0    0  0.48391023393E-03 -0.80677297044E-03  0.24605817605E-03  0.17130000000E+03  0.17130000000E+03 0.  1.
      622    1    1    2    0    0 -0.10666639075E-02 -0.21749462692E-02  0.38782738647E+01  0.38784808931E+01  0.40000000000E-01 0. -1.
</event>
<event>
 5   0  0.7212170E+07  0.9118800E+02  0.7818608E-02  0.1180000E+00
       11   -1    0    0    0    0  0.00000000000E+00  0.00000000000E+00  0.39999999673E+01  0.40000000000E+01  0.51109989000E-03 0.  1.
     -623   -1    0    0    0    0  0.00000000000E+00  0.00000000000E+00  0.12525980253E-10  0.17130000000E+03  0.17130000000E+03 0.  1.
       11    1    1    2    0    0  0.13191564330E-01 -0.30703727877E-02  0.99330754278E-01  0.10025120711E+00  0.51109989000E-03 0.  1.
     -623    1    1    2    0    0  0.17912728848E-03  0.30039466521E-01  0.12443886667E-02  0.17130000264E+03  0.17130000000E+03 0.  1.
      622    1    1    2    0    0 -0.13370691619E-01 -0.26969093732E-01  0.38994248244E+01  0.38997461543E+01  0.40000000000E-01 0.  1.
</event>
<event>
 5   0  0.7212170E+07  0.9118800E+02  0.7818608E-02  0.1180000E+00
       11   -1    0    0    0    0  0.00000000000E+00  0.00000000000E+00  0.39999999673E+01  0.40000000000E+01  0.51109989000E-03 0. -1.
     -623   -1    0    0    0    0  0.00000000000E+00  0.00000000000E+00  0.12525980253E-10  0.17130000000E+03  0.17130000000E+03 0.  1.
       11    1    1    2    0    0 -0.99611668606E-02 -0.18197966896E-01  0.55483395440E+00  0.55522190971E+00  0.51109989000E-03 0. -1.
     -623    1    1    2    0    0  0.85736647939E-03 -0.55353961938E-03  0.68324150791E-03  0.17130000000E+03  0.17130000000E+03 0.  1.
      622    1    1    2    0    0  0.91038003811E-02  0.18751506515E-01  0.34444827718E+01  0.34447780862E+01  0.40000000000E-01 0. -1.
</event>
<event>
 5   0  0.7212170E+07  0.9118800E+02  0.7818608E-02  0.1180000E+00
       11   -1    0    0    0    0  0.00000000000E+00  0.00000000000E+00  0.39999999673E+01  0.40000000000E+01  0.51109989000E-03 0. -1.
     -623   -1    0    0    0    0  0.00000000000E+00  0.00000000000E+00  0.12525980253E-10  0.17130000000E+03  0.17130000000E+03 0.  1.
       11    1    1    2    0    0  0.19920906498E-02  0.39505143458E-02  0.18443195876E+00  0.18448572743E+00  0.51109989000E-03 0. -1.
     -623    1    1    2    0    0 -0.35580929079E-02 -0.32215582035E-02  0.26387055689E-03  0.17130000007E+03  0.17130000000E+03 0.  1.
      622    1    1    2    0    0  0.15660022571E-02 -0.72895614326E-03  0.38153041368E+01  0.38155142039E+01  0.40000000000E-01 0. -1.
</event>
<event>
 5   0  0.7212170E+07  0.9118800E+02  0.7818608E-02  0.1180000E+00
       11   -1    0    0    0    0  0.00000000000E+00  0.00000000000E+00  0.39999999673E+01  0.40000000000E+01  0.51109989000E-03 0. -1.
     -623   -1    0    0    0    0  0.00000000000E+00  0.00000000000E+00  0.12525980253E-10  0.17130000000E+03  0.17130000000E+03 0.  1.
       11    1    1    2    0    0 -0.10848041593E-03  0.40305462519E-03  0.15005419755E-02  0.16392285836E-02  0.51109989000E-03 0.  1.
     -623    1    1    2    0    0 -0.32541243583E-03  0.49100595531E-03  0.33886582500E-03  0.17130000000E+03  0.17130000000E+03 0.  1.
      622    1    1    2    0    0  0.43389285187E-03 -0.89406058065E-03  0.39981605608E+01  0.39983607713E+01  0.40000000000E-01 0. -1.
</event>
<event>
 5   0  0.7212170E+07  0.9118800E+02  0.7818608E-02  0.1180000E+00
       11   -1    0    0    0    0  0.00000000000E+00  0.00000000000E+00  0.39999999673E+01  0.40000000000E+01  0.51109989000E-03 0.  1.
     -623   -1    0    0    0    0  0.00000000000E+00  0.00000000000E+00  0.12525980253E-10  0.17130000000E+03  0.17130000000E+03 0. -1.
       11    1    1    2    0    0 -0.10253194583E-01  0.15645945573E-01  0.25350928271E+01  0.25351618936E+01  0.51109989000E-03 0.  1.
     -623    1    1    2    0    0  0.18769987817E-02  0.28070106484E-03  0.72585917657E-03  0.17130000001E+03  0.17130000000E+03 0. -1.
      622    1    1    2    0    0  0.83761958015E-02 -0.15926646638E-01  0.14641812808E+01  0.14648380941E+01  0.40000000000E-01 0.  1.
</event>
<event>
 5   0  0.7212170E+07  0.9118800E+02  0.7818608E-02  0.1180000E+00
       11   -1    0    0    0    0  0.00000000000E+00  0.00000000000E+00  0.39999999673E+01  0.40000000000E+01  0.51109989000E-03 0.  1.
     -623   -1    0    0    0    0  0.00000000000E+00  0.00000000000E+00  0.12525980253E-10  0.17130000000E+03  0.17130000000E+03 0. -1.
       11    1    1    2    0    0 -0.23697747633E-03  0.44640140712E-02  0.10001263370E+00  0.10011379377E+00  0.51109989000E-03 0.  1.
     -623    1    1    2    0    0  0.87189302503E-02 -0.50098481191E-02  0.31582496489E-03  0.17130000030E+03  0.17130000000E+03 0. -1.
      622    1    1    2    0    0 -0.84819527743E-02  0.54583404812E-03  0.38996715088E+01  0.38998859109E+01  0.40000000000E-01 0.  1.
</event>
<event>
 5   0  0.7212170E+07  0.9118800E+02  0.7818608E-02  0.1180000E+00
       11   -1    0    0    0    0  0.00000000000E+00  0.00000000000E+00  0.39999999673E+01  0.40000000000E+01  0.51109989000E-03 0. -1.
     -623   -1    0    0    0    0  0.00000000000E+00  0.00000000000E+00  0.12525980253E-10  0.17130000000E+03  0.17130000000E+03 0.  1.
       11    1    1    2    0    0  0.28156656332E-02 -0.21151608305E-01  0.11473952719E+01  0.11475937825E+01  0.51109989000E-03 0. -1.
     -623    1    1    2    0    0 -0.48363723037E-02 -0.16576748133E-02  0.57095755954E-03  0.17130000008E+03  0.17130000000E+03 0.  1.
      622    1    1    2    0    0  0.20207066717E-02  0.22809283119E-01  0.28520337389E+01  0.28524061413E+01  0.40000000000E-01 0. -1.
</event>
<event>
 5   0  0.7212170E+07  0.9118800E+02  0.7818608E-02  0.1180000E+00
       11   -1    0    0    0    0  0.00000000000E+00  0.00000000000E+00  0.39999999673E+01  0.40000000000E+01  0.51109989000E-03 0. -1.
     -623   -1    0    0    0    0  0.00000000000E+00  0.00000000000E+00  0.12525980253E-10  0.17130000000E+03  0.17130000000E+03 0. -1.
       11    1    1    2    0    0  0.77353333850E-03 -0.75651121850E-03  0.13450311783E-02  0.18002763725E-02  0.51109989000E-03 0.  1.
     -623    1    1    2    0    0  0.13092012464E-04 -0.40270283541E-03  0.65555478610E-03  0.17130000000E+03  0.17130000000E+03 0. -1.
      622    1    1    2    0    0 -0.78662535097E-03  0.11592140539E-02  0.39979993818E+01  0.39981997223E+01  0.40000000000E-01 0. -1.
</event>
<event>
 5   0  0.7212170E+07  0.9118800E+02  0.7818608E-02  0.1180000E+00
       11   -1    0    0    0    0  0.00000000000E+00  0.00000000000E+00  0.39999999673E+01  0.40000000000E+01  0.51109989000E-03 0.  1.
     -623   -1    0    0    0    0  0.00000000000E+00  0.00000000000E+00  0.12525980253E-10  0.17130000000E+03  0.17130000000E+03 0.  1.
       11    1    1    2    0    0 -0.35321291648E-02  0.26439407086E-02  0.20854360929E+00  0.20859090239E+00  0.51109989000E-03 0.  1.
     -623    1    1    2    0    0  0.24078248060E-03 -0.51261294745E-03  0.26029859747E-03  0.17130000000E+03  0.17130000000E+03 0.  1.
      622    1    1    2    0    0  0.32913466842E-02 -0.21313277612E-02  0.37911960591E+01  0.37914090961E+01  0.40000000000E-01 0.  1.
</event>
<event>
 5   0  0.7212170E+07  0.9118800E+02  0.7818608E-02  0.1180000E+00
       11   -1    0    0    0    0  0.00000000000E+00  0.00000000000E+00  0.39999999673E+01  0.40000000000E+01  0.51109989000E-03 0.  1.
     -623   -1    0    0    0    0  0.00000000000E+00  0.00000000000E+00  0.12525980253E-10  0.17130000000E+03  0.17130000000E+03 0.  1.
       11    1    1    2    0    0  0.68491875377E-02 -0.12284658849E-01  0.30743390176E-01  0.33811854069E-01  0.51109989000E-03 0.  1.
     -623    1    1    2    0    0  0.34597233242E-02 -0.13849339821E-02  0.33071696995E-02  0.17130000007E+03  0.17130000000E+03 0.  1.
      622    1    1    2    0    0 -0.10308910862E-01  0.13669592831E-01  0.39659494075E+01  0.39661880735E+01  0.40000000000E-01 0.  1.
</event>
<event>
 5   0  0.7212170E+07  0.9118800E+02  0.7818608E-02  0.1180000E+00
       11   -1    0    0    0    0  0.00000000000E+00  0.00000000000E+00  0.39999999673E+01  0.40000000000E+01  0.51109989000E-03 0.  1.
     -623   -1    0    0    0    0  0.00000000000E+00  0.00000000000E+00  0.12525980253E-10  0.17130000000E+03  0.17130000000E+03 0. -1.
       11    1    1    2    0    0 -0.99998814055E-03  0.10094284083E-03  0.41525784287E-02  0.43029404414E-02  0.51109989000E-03 0.  1.
     -623    1    1    2    0    0  0.99607865464E-03 -0.72818470594E-06  0.35055428126E-03  0.17130000000E+03  0.17130000000E+03 0. -1.
      622    1    1    2    0    0  0.39094858394E-05 -0.10021465612E-03  0.39954968350E+01  0.39956970566E+01  0.40000000000E-01 0.  1.
</event>
<event>
 5   0  0.7212170E+07  0.9118800E+02  0.7818608E-02  0.1180000E+00
       11   -1    0    0    0    0  0.00000000000E+00  0.00000000000E+00  0.39999999673E+01  0.40000000000E+01  0.51109989000E-03 0. -1.
     -623   -1    0    0    0    0  0.00000000000E+00  0.00000000000E+00  0.12525980253E-10  0.17130000000E+03  0.17130000000E+03 0. -1.
       11    1    1    2    0    0 -0.78989901127E-06 -0.47000630236E-03  0.73877932235E-02  0.74203516331E-02  0.51109989000E-03 0.  1.
     -623    1    1    2    0    0 -0.60481525929E-05 -0.65369226603E-03  0.23306205523E-03  0.17130000000E+03  0.17130000000E+03 0. -1.
      622    1    1    2    0    0  0.68380516043E-05  0.11236985684E-02  0.39923791122E+01  0.39925796471E+01  0.40000000000E-01 0. -1.
</event>
<event>
 5   0  0.7212170E+07  0.9118800E+02  0.7818608E-02  0.1180000E+00
       11   -1    0    0    0    0  0.00000000000E+00  0.00000000000E+00  0.39999999673E+01  0.40000000000E+01  0.51109989000E-03 0.  1.
     -623   -1    0    0    0    0  0.00000000000E+00  0.00000000000E+00  0.12525980253E-10  0.17130000000E+03  0.17130000000E+03 0.  1.
       11    1    1    2    0    0  0.17347071530E-02  0.26136547605E-03  0.38945030540E-01  0.38987871803E-01  0.51109989000E-03 0.  1.
     -623    1    1    2    0    0 -0.35410106909E-03  0.28933392464E-03  0.24506203897E-03  0.17130000000E+03  0.17130000000E+03 0.  1.
      622    1    1    2    0    0 -0.13806060839E-02 -0.55069940070E-03  0.39608098749E+01  0.39610121275E+01  0.40000000000E-01 0.  1.
</event>
<event>
 5   0  0.7212170E+07  0.9118800E+02  0.7818608E-02  0.1180000E+00
       11   -1    0    0    0    0  0.00000000000E+00  0.00000000000E+00  0.39999999673E+01  0.40000000000E+01  0.51109989000E-03 0. -1.
     -623   -1    0    0    0    0  0.00000000000E+00  0.00000000000E+00  0.12525980253E-10  0.17130000000E+03  0.17130000000E+03 0.  1.
       11    1    1    2    0    0  0.30480342987E-02  0.72630361514E-02  0.10458697456E+00  0.10488440627E+00  0.51109989000E-03 0. -1.
     -623    1    1    2    0    0  0.70606668217E-03  0.26436106299E-03  0.51187535429E-03  0.17130000000E+03  0.17130000000E+03 0.  1.
      622    1    1    2    0    0 -0.37541009811E-02 -0.75273972144E-02  0.38949011182E+01  0.38951155921E+01  0.40000000000E-01 0. -1.
</event>
<event>
 5   0  0.7212170E+07  0.9118800E+02  0.7818608E-02  0.1180000E+00
       11   -1    0    0    0    0  0.00000000000E+00  0.00000000000E+00  0.39999999673E+01  0.40000000000E+01  0.51109989000E-03 0. -1.
     -623   -1    0    0    0    0  0.00000000000E+00  0.00000000000E+00  0.12525980253E-10  0.17130000000E+03  0.17130000000E+03 0.  1.
       11    1    1    2    0    0  0.46977916988E-02  0.13336672942E-02  0.29928753504E+00  0.29932780988E+00  0.51109989000E-03 0. -1.
     -623    1    1    2    0    0 -0.47961894468E-02 -0.11823298017E-01  0.27176961834E-03  0.17130000048E+03  0.17130000000E+03 0.  1.
      622    1    1    2    0    0  0.98397749352E-04  0.10489630726E-01  0.37004406638E+01  0.37006717159E+01  0.40000000000E-01 0. -1.
</event>
<event>
 5   0  0.7212170E+07  0.9118800E+02  0.7818608E-02  0.1180000E+00
       11   -1    0    0    0    0  0.00000000000E+00  0.00000000000E+00  0.39999999673E+01  0.40000000000E+01  0.51109989000E-03 0. -1.
     -623   -1    0    0    0    0  0.00000000000E+00  0.00000000000E+00  0.12525980253E-10  0.17130000000E+03  0.17130000000E+03 0.  1.
       11    1    1    2    0    0  0.39879000097E-01  0.19049518636E-01  0.13260731883E+01  0.13268095496E+01  0.51109989000E-03 0. -1.
     -623    1    1    2    0    0 -0.30549827953E-01 -0.78506728056E-02  0.10782624847E-02  0.17130000291E+03  0.17130000000E+03 0.  1.
      622    1    1    2    0    0 -0.93291721391E-02 -0.11198845829E-01  0.26728485172E+01  0.26731875436E+01  0.40000000000E-01 0.  0.
</event>
<event>
 5   0  0.7212170E+07  0.9118800E+02  0.7818608E-02  0.1180000E+00
       11   -1    0    0    0    0  0.00000000000E+00  0.00000000000E+00  0.39999999673E+01  0.40000000000E+01  0.51109989000E-03 0. -1.
     -623   -1    0    0    0    0  0.00000000000E+00  0.00000000000E+00  0.12525980253E-10  0.17130000000E+03  0.17130000000E+03 0.  1.
       11    1    1    2    0    0 -0.50817110901E-02  0.26165173071E-02  0.28802300940E-01  0.29368413525E-01  0.51109989000E-03 0. -1.
     -623    1    1    2    0    0  0.95022610128E-02  0.57769693831E-02  0.77925987277E-03  0.17130000036E+03  0.17130000000E+03 0.  1.
      622    1    1    2    0    0 -0.44205499232E-02 -0.83934866905E-02  0.39704184068E+01  0.39706312240E+01  0.40000000000E-01 0. -1.
</event>
<event>
 5   0  0.7212170E+07  0.9118800E+02  0.7818608E-02  0.1180000E+00
       11   -1    0    0    0    0  0.00000000000E+00  0.00000000000E+00  0.39999999673E+01  0.40000000000E+01  0.51109989000E-03 0.  1.
     -623   -1    0    0    0    0  0.00000000000E+00  0.00000000000E+00  0.12525980253E-10  0.17130000000E+03  0.17130000000E+03 0. -1.
       11    1    1    2    0    0 -0.41562804898E-02 -0.14883913784E-01  0.22332720585E+01  0.22333255817E+01  0.51109989000E-03 0.  1.
     -623    1    1    2    0    0 -0.12327331118E-01  0.84342037139E-03  0.63955421171E-03  0.17130000045E+03  0.17130000000E+03 0. -1.
      622    1    1    2    0    0  0.16483611607E-01  0.14040493413E-01  0.17660883545E+01  0.17666739713E+01  0.40000000000E-01 0.  1.
</event>
<event>
 5   0  0.7212170E+07  0.9118800E+02  0.7818608E-02  0.1180000E+00
       11   -1    0    0    0    0  0.00000000000E+00  0.00000000000E+00  0.39999999673E+01  0.40000000000E+01  0.51109989000E-03 0. -1.
     -623   -1    0    0    0    0  0.00000000000E+00  0.00000000000E+00  0.12525980253E-10  0.17130000000E+03  0.17130000000E+03 0. -1.
       11    1    1    2    0    0  0.15161119593E-01 -0.26292972724E-01  0.13407205929E+01  0.13410641854E+01  0.51109989000E-03 0. -1.
     -623    1    1    2    0    0 -0.19040659543E-02 -0.43296922419E-02  0.85393627082E-03  0.17130000007E+03  0.17130000000E+03 0. -1.
      622    1    1    2    0    0 -0.13257053639E-01  0.30622664966E-01  0.26584254382E+01  0.26589357472E+01  0.40000000000E-01 0.  0.
</event>
<event>
 5   0  0.7212170E+07  0.9118800E+02  0.7818608E-02  0.1180000E+00
       11   -1    0    0    0    0  0.00000000000E+00  0.00000000000E+00  0.39999999673E+01  0.40000000000E+01  0.51109989000E-03 0.  1.
     -623   -1    0    0    0    0  0.00000000000E+00  0.00000000000E+00  0.12525980253E-10  0.17130000000E+03  0.17130000000E+03 0. -1.
       11    1    1    2    0    0  0.31552711796E-03  0.80947795585E-02  0.14077444047E+01  0.14077678058E+01  0.51109989000E-03 0.  1.
     -623    1    1    2    0    0 -0.59634297988E-02 -0.42516452659E-02  0.34116082992E-03  0.17130000016E+03  0.17130000000E+03 0. -1.
      622    1    1    2    0    0  0.56479026806E-02 -0.38431342928E-02  0.25919144016E+01  0.25922320371E+01  0.40000000000E-01 0.  1.
</event>
<event>
 5   0  0.7212170E+07  0.9118800E+02  0.7818608E-02  0.1180000E+00
       11   -1    0    0    0    0  0.00000000000E+00  0.00000000000E+00  0.39999999673E+01  0.40000000000E+01  0.51109989000E-03 0. -1.
     -623   -1    0    0    0    0  0.00000000000E+00  0.00000000000E+00  0.12525980253E-10  0.17130000000E+03  0.17130000000E+03 0. -1.
       11    1    1    2    0    0  0.28336746025E-02 -0.27496857310E-02  0.20753259409E+00  0.20757078146E+00  0.51109989000E-03 0. -1.
     -623    1    1    2    0    0  0.53579202581E-03  0.88675482744E-04  0.25153877155E-03  0.17130000000E+03  0.17130000000E+03 0. -1.
      622    1    1    2    0    0 -0.33694666284E-02  0.26610102483E-02  0.37922158349E+01  0.37924292179E+01  0.40000000000E-01 0. -1.
</event>
<event>
 5   0  0.7212170E+07  0.9118800E+02  0.7818608E-02  0.1180000E+00
       11   -1    0    0    0    0  0.00000000000E+00  0.00000000000E+00  0.39999999673E+01  0.40000000000E+01  0.51109989000E-03 0.  1.
     -623   -1    0    0    0    0  0.00000000000E+00  0.00000000000E+00  0.12525980253E-10  0.17130000000E+03  0.17130000000E+03 0.  1.
       11    1    1    2    0    0  0.94197694941E-02  0.52325578185E-02  0.84694334463E-01  0.85378587666E-01  0.51109989000E-03 0.  1.
     -623    1    1    2    0    0 -0.21918595801E-03  0.66268550728E-02  0.91749659938E-03  0.17130000013E+03  0.17130000000E+03 0.  1.
      622    1    1    2    0    0 -0.92005835361E-02 -0.11859412891E-01  0.39143881363E+01  0.39146212816E+01  0.40000000000E-01 0.  1.
</event>
<event>
 5   0  0.7212170E+07  0.9118800E+02  0.7818608E-02  0.1180000E+00
       11   -1    0    0    0    0  0.00000000000E+00  0.00000000000E+00  0.39999999673E+01  0.40000000000E+01  0.51109989000E-03 0.  1.
     -623   -1    0    0    0    0  0.00000000000E+00  0.00000000000E+00  0.12525980253E-10  0.17130000000E+03  0.17130000000E+03 0.  1.
       11    1    1    2    0    0  0.22202801839E-01  0.29738178459E-01  0.64209120248E+00  0.64316304091E+00  0.51109989000E-03 0.  1.
     -623    1    1    2    0    0 -0.11900882027E-01 -0.47963874415E-02  0.14190983230E-02  0.17130000049E+03  0.17130000000E+03 0.  1.
      622    1    1    2    0    0 -0.10301919812E-01 -0.24941791017E-01  0.33564896666E+01  0.33568364727E+01  0.40000000000E-01 0.  1.
</event>
<event>
 5   0  0.7212170E+07  0.9118800E+02  0.7818608E-02  0.1180000E+00
       11   -1    0    0    0    0  0.00000000000E+00  0.00000000000E+00  0.39999999673E+01  0.40000000000E+01  0.51109989000E-03 0.  1.
     -623   -1    0    0    0    0  0.00000000000E+00  0.00000000000E+00  0.12525980253E-10  0.17130000000E+03  0.17130000000E+03 0.  1.
       11    1    1    2    0    0 -0.19459621617E-01 -0.24095695926E-01  0.17040716116E+01  0.17043531319E+01  0.51109989000E-03 0.  1.
     -623    1    1    2    0    0  0.18041109364E-01  0.46259871712E-01  0.74465232515E-03  0.17130000720E+03  0.17130000000E+03 0.  1.
      622    1    1    2    0    0  0.14185122485E-02 -0.22164175799E-01  0.22951837045E+01  0.22956396713E+01  0.40000000000E-01 0.  0.
</event>
<event>
 5   0  0.7212170E+07  0.9118800E+02  0.7818608E-02  0.1180000E+00
       11   -1    0    0    0    0  0.00000000000E+00  0.00000000000E+00  0.39999999673E+01  0.40000000000E+01  0.51109989000E-03 0.  1.
     -623   -1    0    0    0    0  0.00000000000E+00  0.00000000000E+00  0.12525980253E-10  0.17130000000E+03  0.17130000000E+03 0.  1.
       11    1    1    2    0    0 -0.22880521313E-01 -0.39366641418E-02  0.19820487737E+00  0.19956064295E+00  0.51109989000E-03 0.  1.
     -623    1    1    2    0    0  0.23524172086E-01 -0.28165609163E-01  0.17058286235E-02  0.17130000394E+03  0.17130000000E+03 0.  1.
      622    1    1    2    0    0 -0.64365077391E-03  0.32102273307E-01  0.38000892616E+01  0.38004354180E+01  0.40000000000E-01 0.  1.
</event>
<event>
 5   0  0.7212170E+07  0.9118800E+02  0.7818608E-02  0.1180000E+00
       11   -1    0    0    0    0  0.00000000000E+00  0.00000000000E+00  0.39999999673E+01  0.40000000000E+01  0.51109989000E-03 0.  1.
     -623   -1    0    0    0    0  0.00000000000E+00  0.00000000000E+00  0.12525980253E-10  0.17130000000E+03  0.17130000000E+03 0.  1.
       11    1    1    2    0    0 -0.12494087161E-03  0.17154172716E-03  0.25655609985E-02  0.26245691303E-02  0.51109989000E-03 0.  1.
     -623    1    1    2    0    0 -0.30779383502E-03 -0.19876308531E-03  0.25913592086E-03  0.17130000000E+03  0.17130000000E+03 0.  1.
      622    1    1    2    0    0  0.43273470673E-03  0.27221358217E-04  0.39971752718E+01  0.39973754316E+01  0.40000000000E-01 0.  1.
</event>
<event>
 5   0  0.7212170E+07  0.9118800E+02  0.7818608E-02  0.1180000E+00
       11   -1    0    0    0    0  0.00000000000E+00  0.00000000000E+00  0.39999999673E+01  0.40000000000E+01  0.51109989000E-03 0. -1.
     -623   -1    0    0    0    0  0.00000000000E+00  0.00000000000E+00  0.12525980253E-10  0.17130000000E+03  0.17130000000E+03 0.  1.
       11    1    1    2    0    0 -0.76321344342E-03  0.56459461981E-02  0.11944598947E+00  0.11958287849E+00  0.51109989000E-03 0. -1.
     -623    1    1    2    0    0 -0.56498564239E-03 -0.13940198849E-02  0.34558915636E-03  0.17130000001E+03  0.17130000000E+03 0.  1.
      622    1    1    2    0    0  0.13281990858E-02 -0.42519263132E-02  0.38802083888E+01  0.38804171146E+01  0.40000000000E-01 0. -1.
</event>
<event>
 5   0  0.7212170E+07  0.9118800E+02  0.7818608E-02  0.1180000E+00
       11   -1    0    0    0    0  0.00000000000E+00  0.00000000000E+00  0.39999999673E+01  0.40000000000E+01  0.51109989000E-03 0. -1.
     -623   -1    0    0    0    0  0.00000000000E+00  0.00000000000E+00  0.12525980253E-10  0.17130000000E+03  0.17130000000E+03 0.  1.
       11    1    1    2    0    0 -0.14645021390E-02 -0.13015654850E-01  0.87745441633E-01  0.88719083562E-01  0.51109989000E-03 0. -1.
     -623    1    1    2    0    0  0.60851598639E-02 -0.90904264868E-02  0.12437087696E-02  0.17130000035E+03  0.17130000000E+03 0.  1.
      622    1    1    2    0    0 -0.46206577248E-02  0.22106081337E-01  0.39110108168E+01  0.39112805625E+01  0.40000000000E-01 0. -1.
</event>
<event>
 5   0  0.7212170E+07  0.9118800E+02  0.7818608E-02  0.1180000E+00
       11   -1    0    0    0    0  0.00000000000E+00  0.00000000000E+00  0.39999999673E+01  0.40000000000E+01  0.51109989000E-03 0.  1.
     -623   -1    0    0    0    0  0.00000000000E+00  0.00000000000E+00  0.12525980253E-10  0.17130000000E+03  0.17130000000E+03 0. -1.
       11    1    1    2    0    0  0.75068653469E-02  0.15368328634E-01  0.13538737360E+01  0.13539818657E+01  0.51109989000E-03 0.  1.
     -623    1    1    2    0    0 -0.22476648385E-02  0.99239740522E-03  0.46628768316E-03  0.17130000002E+03  0.17130000000E+03 0. -1.
      622    1    1    2    0    0 -0.52592005078E-02 -0.16360726040E-01  0.26456599446E+01  0.26460181169E+01  0.40000000000E-01 0.  1.
</event>
<event>
 5   0  0.7212170E+07  0.9118800E+02  0.7818608E-02  0.1180000E+00
       11   -1    0    0    0    0  0.00000000000E+00  0.00000000000E+00  0.39999999673E+01  0.40000000000E+01  0.51109989000E-03 0. -1.
     -623   -1    0    0    0    0  0.00000000000E+00  0.00000000000E+00  0.12525980253E-10  0.17130000000E+03  0.17130000000E+03 0. -1.
       11    1    1    2    0    0  0.45037062272E-02  0.15258975988E-01  0.20242339095E+00  0.20304829510E+00  0.51109989000E-03 0. -1.
     -623    1    1    2    0    0  0.39744711762E-02 -0.12405552558E-01  0.84660832579E-03  0.17130000050E+03  0.17130000000E+03 0. -1.
      622    1    1    2    0    0 -0.84781774032E-02 -0.28534234310E-02  0.37967299679E+01  0.37969512073E+01  0.40000000000E-01 0. -1.
</event>
<event>
 5   0  0.7212170E+07  0.9118800E+02  0.7818608E-02  0.1180000E+00
       11   -1    0    0    0    0  0.00000000000E+00  0.00000000000E+00  0.39999999673E+01  0.40000000000E+01  0.51109989000E-03 0. -1.
     -623   -1    0    0    0    0  0.00000000000E+00  0.00000000000E+00  0.12525980253E-10  0.17130000000E+03  0.17130000000E+03 0. -1.
       11    1    1    2    0    0  0.11929379944E-03  0.67660133274E-03  0.90463246752E-02  0.90867614474E-02  0.51109989000E-03 0. -1.
     -623    1    1    2    0    0  0.17848638682E-03 -0.16150076105E-02  0.24099385681E-03  0.17130000001E+03  0.17130000000E+03 0. -1.
      622    1    1    2    0    0 -0.29778018631E-03  0.93840627820E-03  0.39907126500E+01  0.39909132319E+01  0.40000000000E-01 0. -1.
</event>
<event>
 5   0  0.7212170E+07  0.9118800E+02  0.7818608E-02  0.1180000E+00
       11   -1    0    0    0    0  0.00000000000E+00  0.00000000000E+00  0.39999999673E+01  0.40000000000E+01  0.51109989000E-03 0.  1.
     -623   -1    0    0    0    0  0.00000000000E+00  0.00000000000E+00  0.12525980253E-10  0.17130000000E+03  0.17130000000E+03 0.  1.
       11    1    1    2    0    0 -0.12008187066E-01 -0.24528521186E-01  0.17216701980E+00  0.17432036266E+00  0.51109989000E-03 0.  1.
     -623    1    1    2    0    0  0.33508281877E-03 -0.32453400976E-02  0.24811122885E-02  0.17130000005E+03  0.17130000000E+03 0.  1.
      622    1    1    2    0    0  0.11673104247E-01  0.27773861283E-01  0.38253518353E+01  0.38256795884E+01  0.40000000000E-01 0.  1.
</event>
<event>
 5   0  0.7212170E+07  0.9118800E+02  0.7818608E-02  0.1180000E+00
       11   -1    0    0    0    0  0.00000000000E+00  0.00000000000E+00  0.39999999673E+01  0.40000000000E+01  0.51109989000E-03 0.  1.
     -623   -1    0    0    0    0  0.00000000000E+00  0.00000000000E+00  0.12525980253E-10  0.17130000000E+03  0.17130000000E+03 0. -1.
       11    1    1    2    0    0 -0.19933487833E-02  0.54474525007E-02  0.56069569204E-01  0.56371145029E-01  0.51109989000E-03 0.  1.
     -623    1    1    2    0    0  0.17083147742E-02  0.19067915194E-02  0.51129505541E-03  0.17130000002E+03  0.17130000000E+03 0. -1.
      622    1    1    2    0    0  0.28503400942E-03 -0.73542440198E-02  0.39434191024E+01  0.39436288344E+01  0.40000000000E-01 0.  1.
</event>
<event>
 5   0  0.7212170E+07  0.9118800E+02  0.7818608E-02  0.1180000E+00
       11   -1    0    0    0    0  0.00000000000E+00  0.00000000000E+00  0.39999999673E+01  0.40000000000E+01  0.51109989000E-03 0.  1.
     -623   -1    0    0    0    0  0.00000000000E+00  0.00000000000E+00  0.12525980253E-10  0.17130000000E+03  0.17130000000E+03 0. -1.
       11    1    1    2    0    0 -0.43559315802E-02  0.76137012126E-03  0.77709033194E-01  0.77836423912E-01  0.51109989000E-03 0.  1.
     -623    1    1    2    0    0  0.54869535666E-03 -0.70003807963E-03  0.33318348520E-03  0.17130000000E+03  0.17130000000E+03 0. -1.
      622    1    1    2    0    0  0.38072362237E-02 -0.61332041768E-04  0.39219577499E+01  0.39221635727E+01  0.40000000000E-01 0.  1.
</event>
<event>
 5   0  0.7212170E+07  0.9118800E+02  0.7818608E-02  0.1180000E+00
       11   -1    0    0    0    0  0.00000000000E+00  0.00000000000E+00  0.39999999673E+01  0.40000000000E+01  0.51109989000E-03 0.  1.
     -623   -1    0    0    0    0  0.00000000000E+00  0.00000000000E+00  0.12525980253E-10  0.17130000000E+03  0.17130000000E+03 0.  1.
       11    1    1    2    0    0  0.18045689854E-01  0.60646498476E-02  0.15097698744E+00  0.15217338420E+00  0.51109989000E-03 0.  1.
     -623    1    1    2    0    0 -0.38656191432E-02 -0.29067513757E-02  0.14317793094E-02  0.17130000007E+03  0.17130000000E+03 0.  1.
      622    1    1    2    0    0 -0.14180070711E-01 -0.31578984720E-02  0.38475912005E+01  0.38478265414E+01  0.40000000000E-01 0.  1.
</event>
<event>
 5   0  0.7212170E+07  0.9118800E+02  0.7818608E-02  0.1180000E+00
       11   -1    0    0    0    0  0.00000000000E+00  0.00000000000E+00  0.39999999673E+01  0.40000000000E+01  0.51109989000E-03 0.  1.
     -623   -1    0    0    0    0  0.00000000000E+00  0.00000000000E+00  0.12525980253E-10  0.17130000000E+03  0.17130000000E+03 0.  1.
       11    1    1    2    0    0  0.34890197406E-01  0.23062120483E-01  0.61636667027E+00  0.61778420238E+00  0.51109989000E-03 0.  1.
     -623    1    1    2    0    0 -0.80719772493E-02 -0.10249192434E-01  0.17851499826E-02  0.17130000051E+03  0.17130000000E+03 0.  1.
      622    1    1    2    0    0 -0.26818220157E-01 -0.12812928049E-01  0.33818481472E+01  0.33822152916E+01  0.40000000000E-01 0.  1.
</event>
<event>
 5   0  0.7212170E+07  0.9118800E+02  0.7818608E-02  0.1180000E+00
       11   -1    0    0    0    0  0.00000000000E+00  0.00000000000E+00  0.39999999673E+01  0.40000000000E+01  0.51109989000E-03 0. -1.
     -623   -1    0    0    0    0  0.00000000000E+00  0.00000000000E+00  0.12525980253E-10  0.17130000000E+03  0.17130000000E+03 0.  1.
       11    1    1    2    0    0  0.19027068796E-01 -0.10520515391E-01  0.25799749585E+00  0.25891249425E+00  0.51109989000E-03 0. -1.
     -623    1    1    2    0    0 -0.14401978388E-01 -0.98401222561E-02  0.11879741974E-02  0.17130000089E+03  0.17130000000E+03 0.  1.
      622    1    1    2    0    0 -0.46250904075E-02  0.20360637647E-01  0.37408144975E+01  0.37410866138E+01  0.40000000000E-01 0. -1.
</event>
<event>
 5   0  0.7212170E+07  0.9118800E+02  0.7818608E-02  0.1180000E+00
       11   -1    0    0    0    0  0.00000000000E+00  0.00000000000E+00  0.39999999673E+01  0.40000000000E+01  0.51109989000E-03 0.  1.
     -623   -1    0    0    0    0  0.00000000000E+00  0.00000000000E+00  0.12525980253E-10  0.17130000000E+03  0.17130000000E+03 0.  1.
       11    1    1    2    0    0  0.15236108197E-02  0.96734995454E-02  0.12581000439E+01  0.12581382594E+01  0.51109989000E-03 0.  1.
     -623    1    1    2    0    0 -0.64535642732E-04  0.19492852295E-02  0.35500793282E-03  0.17130000001E+03  0.17130000000E+03 0.  1.
      622    1    1    2    0    0 -0.14590751770E-02 -0.11622784775E-01  0.27415449164E+01  0.27418617301E+01  0.40000000000E-01 0.  0.
</event>
<event>
 5   0  0.7212170E+07  0.9118800E+02  0.7818608E-02  0.1180000E+00
       11   -1    0    0    0    0  0.00000000000E+00  0.00000000000E+00  0.39999999673E+01  0.40000000000E+01  0.51109989000E-03 0.  1.
     -623   -1    0    0    0    0  0.00000000000E+00  0.00000000000E+00  0.12525980253E-10  0.17130000000E+03  0.17130000000E+03 0.  1.
       11    1    1    2    0    0  0.56166355296E-02  0.10888782376E-01  0.46655875323E-01  0.48240481979E-01  0.51109989000E-03 0.  1.
     -623    1    1    2    0    0 -0.22200977247E-01 -0.34229593053E-01  0.18956270166E-02  0.17130000487E+03  0.17130000000E+03 0.  1.
      622    1    1    2    0    0  0.16584341719E-01  0.23340810680E-01  0.39514484653E+01  0.39517546492E+01  0.40000000000E-01 0.  1.
</event>
<event>
 5   0  0.7212170E+07  0.9118800E+02  0.7818608E-02  0.1180000E+00
       11   -1    0    0    0    0  0.00000000000E+00  0.00000000000E+00  0.39999999673E+01  0.40000000000E+01  0.51109989000E-03 0. -1.
     -623   -1    0    0    0    0  0.00000000000E+00  0.00000000000E+00  0.12525980253E-10  0.17130000000E+03  0.17130000000E+03 0. -1.
       11    1    1    2    0    0 -0.61478244657E-02  0.46049272857E-02  0.65374056346E+00  0.65378588745E+00  0.51109989000E-03 0. -1.
     -623    1    1    2    0    0 -0.19022910194E-02 -0.45483963809E-02  0.29413167572E-03  0.17130000007E+03  0.17130000000E+03 0. -1.
      622    1    1    2    0    0  0.80501154850E-02 -0.56530904838E-04  0.33459652721E+01  0.33462140413E+01  0.40000000000E-01 0. -1.
</event>
<event>
 5   0  0.7212170E+07  0.9118800E+02  0.7818608E-02  0.1180000E+00
       11   -1    0    0    0    0  0.00000000000E+00  0.00000000000E+00  0.39999999673E+01  0.40000000000E+01  0.51109989000E-03 0. -1.
     -623   -1    0    0    0    0  0.00000000000E+00  0.00000000000E+00  0.12525980253E-10  0.17130000000E+03  0.17130000000E+03 0.  1.
       11    1    1    2    0    0  0.20216781089E-02  0.21839293881E-02  0.16154945785E-01  0.16434726233E-01  0.51109989000E-03 0. -1.
     -623    1    1    2    0    0  0.11552479325E-02 -0.92878084554E-03  0.48204971257E-03  0.17130000001E+03  0.17130000000E+03 0.  1.
      622    1    1    2    0    0 -0.31769260416E-02 -0.12551485425E-02  0.39833629724E+01  0.39835652672E+01  0.40000000000E-01 0. -1.
</event>
<event>
 5   0  0.7212170E+07  0.9118800E+02  0.7818608E-02  0.1180000E+00
       11   -1    0    0    0    0  0.00000000000E+00  0.00000000000E+00  0.39999999673E+01  0.40000000000E+01  0.51109989000E-03 0.  1.
     -623   -1    0    0    0    0  0.00000000000E+00  0.00000000000E+00  0.12525980253E-10  0.17130000000E+03  0.17130000000E+03 0.  1.
       11    1    1    2    0    0 -0.92012989530E-02 -0.14394818327E-01  0.20458699867E+00  0.20529972223E+00  0.51109989000E-03 0.  1.
     -623    1    1    2    0    0  0.85722995372E-02 -0.55578022572E-02  0.97633564222E-03  0.17130000031E+03  0.17130000000E+03 0.  1.
      622    1    1    2    0    0  0.62899941542E-03  0.19952620585E-01  0.37944366332E+01  0.37946999705E+01  0.40000000000E-01 0.  1.
</event>
<event>
 5   0  0.7212170E+07  0.9118800E+02  0.7818608E-02  0.1180000E+00
       11   -1    0    0    0    0  0.00000000000E+00  0.00000000000E+00  0.39999999673E+01  0.40000000000E+01  0.51109989000E-03 0. -1.
     -623   -1    0    0    0    0  0.00000000000E+00  0.00000000000E+00  0.12525980253E-10  0.17130000000E+03  0.17130000000E+03 0. -1.
       11    1    1    2    0    0  0.43551992917E-01 -0.49007428854E-01  0.23030101372E+01  0.23039432410E+01  0.51109989000E-03 0. -1.
     -623    1    1    2    0    0 -0.59000705231E-01  0.43590678370E-01  0.14995694931E-02  0.17130001571E+03  0.17130000000E+03 0. -1.
      622    1    1    2    0    0  0.15448712309E-01  0.54167504874E-02  0.16954902603E+01  0.16960410451E+01  0.40000000000E-01 0. -1.
</event>
<event>
 5   0  0.7212170E+07  0.9118800E+02  0.7818608E-02  0.1180000E+00
       11   -1    0    0    0    0  0.00000000000E+00  0.00000000000E+00  0.39999999673E+01  0.40000000000E+01  0.51109989000E-03 0. -1.
     -623   -1    0    0    0    0  0.00000000000E+00  0.00000000000E+00  0.12525980253E-10  0.17130000000E+03  0.17130000000E+03 0. -1.
       11    1    1    2    0    0 -0.50325603543E-02 -0.44839949965E-02  0.59934101918E+00  0.59937913825E+00  0.51109989000E-03 0. -1.
     -623    1    1    2    0    0  0.53921596055E-01 -0.42181437229E-02  0.64449248323E-03  0.17130000854E+03  0.17130000000E+03 0. -1.
      622    1    1    2    0    0 -0.48889035700E-01  0.87021387193E-02  0.34000144556E+01  0.34006123219E+01  0.40000000000E-01 0. -1.
</event>
<event>
 5   0  0.7212170E+07  0.9118800E+02  0.7818608E-02  0.1180000E+00
       11   -1    0    0    0    0  0.00000000000E+00  0.00000000000E+00  0.39999999673E+01  0.40000000000E+01  0.51109989000E-03 0. -1.
     -623   -1    0    0    0    0  0.00000000000E+00  0.00000000000E+00  0.12525980253E-10  0.17130000000E+03  0.17130000000E+03 0.  1.
       11    1    1    2    0    0 -0.18908187809E-02  0.39100082510E-03  0.31491278991E+00  0.31491912382E+00  0.51109989000E-03 0. -1.
     -623    1    1    2    0    0  0.42011620110E-03  0.27269903637E-03  0.22375338235E-03  0.17130000000E+03  0.17130000000E+03 0.  1.
      622    1    1    2    0    0  0.14707025797E-02 -0.66369986155E-03  0.36848634252E+01  0.36850808764E+01  0.40000000000E-01 0. -1.
</event>
<event>
 5   0  0.7212170E+07  0.9118800E+02  0.7818608E-02  0.1180000E+00
       11   -1    0    0    0    0  0.00000000000E+00  0.00000000000E+00  0.39999999673E+01  0.40000000000E+01  0.51109989000E-03 0.  1.
     -623   -1    0    0    0    0  0.00000000000E+00  0.00000000000E+00  0.12525980253E-10  0.17130000000E+03  0.17130000000E+03 0.  1.
       11    1    1    2    0    0  0.27795995309E-02  0.28497196903E-02  0.19820749160E+00  0.19824812238E+00  0.51109989000E-03 0.  1.
     -623    1    1    2    0    0 -0.25183495404E-02  0.61861266757E-03  0.25264422051E-03  0.17130000002E+03  0.17130000000E+03 0.  1.
      622    1    1    2    0    0 -0.26124998972E-03 -0.34683323581E-02  0.38015398329E+01  0.38017518591E+01  0.40000000000E-01 0.  1.
</event>
<event>
 5   0  0.7212170E+07  0.9118800E+02  0.7818608E-02  0.1180000E+00
       11   -1    0    0    0    0  0.00000000000E+00  0.00000000000E+00  0.39999999673E+01  0.40000000000E+01  0.51109989000E-03 0. -1.
     -623   -1    0    0    0    0  0.00000000000E+00  0.00000000000E+00  0.12525980253E-10  0.17130000000E+03  0.17130000000E+03 0.  1.
       11    1    1    2    0    0  0.44585668007E-02 -0.34516577664E-02  0.29135311750E-01  0.29680302780E-01  0.51109989000E-03 0. -1.
     -623    1    1    2    0    0  0.82604149964E-03  0.56617798692E-02  0.75068815789E-03  0.17130000010E+03  0.17130000000E+03 0.  1.
      622    1    1    2    0    0 -0.52846083005E-02 -0.22101221037E-02  0.39701139680E+01  0.39703196006E+01  0.40000000000E-01 0. -1.
</event>
<event>
 5   0  0.7212170E+07  0.9118800E+02  0.7818608E-02  0.1180000E+00
       11   -1    0    0    0    0  0.00000000000E+00  0.00000000000E+00  0.39999999673E+01  0.40000000000E+01  0.51109989000E-03 0.  1.
     -623   -1    0    0    0    0  0.00000000000E+00  0.00000000000E+00  0.12525980253E-10  0.17130000000E+03  0.17130000000E+03 0.  1.
       11    1    1    2    0    0  0.13197264662E-01 -0.21066471576E-01  0.18229100250E+00  0.18397889780E+00  0.51109989000E-03 0.  1.
     -623    1    1    2    0    0 -0.45949425842E-02 -0.28922882984E-02  0.19825220859E-02  0.17130000010E+03  0.17130000000E+03 0.  1.
      622    1    1    2    0    0 -0.86023220776E-02  0.23958759874E-01  0.38157264429E+01  0.38160210048E+01  0.40000000000E-01 0.  1.
</event>
<event>
 5   0  0.7212170E+07  0.9118800E+02  0.7818608E-02  0.1180000E+00
       11   -1    0    0    0    0  0.00000000000E+00  0.00000000000E+00  0.39999999673E+01  0.40000000000E+01  0.51109989000E-03 0.  1.
     -623   -1    0    0    0    0  0.00000000000E+00  0.00000000000E+00  0.12525980253E-10  0.17130000000E+03  0.17130000000E+03 0. -1.
       11    1    1    2    0    0  0.37118560063E-02 -0.12097478766E-02  0.45198416656E-01  0.45369587350E-01  0.51109989000E-03 0.  1.
     -623    1    1    2    0    0  0.85459697236E-03  0.15914440083E-02  0.37610269236E-03  0.17130000001E+03  0.17130000000E+03 0. -1.
      622    1    1    2    0    0 -0.45664529786E-02 -0.38169613166E-03  0.39544254477E+01  0.39546304024E+01  0.40000000000E-01 0.  1.
</event>
<event>
 5   0  0.7212170E+07  0.9118800E+02  0.7818608E-02  0.1180000E+00
       11   -1    0    0    0    0  0.00000000000E+00  0.00000000000E+00  0.39999999673E+01  0.40000000000E+01  0.51109989000E-03 0.  1.
     -623   -1    0    0    0    0  0.00000000000E+00  0.00000000000E+00  0.12525980253E-10  0.17130000000E+03  0.17130000000E+03 0. -1.
       11    1    1    2    0    0 -0.28705952215E-01 -0.41843499400E-01  0.31328533029E+00  0.31736866502E+00  0.51109989000E-03 0.  1.
     -623    1    1    2    0    0 -0.30311792492E-02  0.12766689843E-01  0.45526775692E-02  0.17130000056E+03  0.17130000000E+03 0. -1.
      622    1    1    2    0    0  0.31737131464E-01  0.29076809557E-01  0.36821619595E+01  0.36826307719E+01  0.40000000000E-01 0.  1.
</event>
<event>
 5   0  0.7212170E+07  0.9118800E+02  0.7818608E-02  0.1180000E+00
       11   -1    0    0    0    0  0.00000000000E+00  0.00000000000E+00  0.39999999673E+01  0.40000000000E+01  0.51109989000E-03 0. -1.
     -623   -1    0    0    0    0  0.00000000000E+00  0.00000000000E+00  0.12525980253E-10  0.17130000000E+03  0.17130000000E+03 0. -1.
       11    1    1    2    0    0  0.64628921156E-02 -0.46670304849E-02  0.71662382990E-01  0.72106230708E-01  0.51109989000E-03 0. -1.
     -623    1    1    2    0    0 -0.57046943407E-02  0.10145460260E-01  0.65178244526E-03  0.17130000040E+03  0.17130000000E+03 0. -1.
      622    1    1    2    0    0 -0.75819777378E-03 -0.54784297776E-02  0.39276858027E+01  0.39278933734E+01  0.40000000000E-01 0. -1.
</event>
<event>
 5   0  0.7212170E+07  0.9118800E+02  0.7818608E-02  0.1180000E+00
       11   -1    0    0    0    0  0.00000000000E+00  0.00000000000E+00  0.39999999673E+01  0.40000000000E+01  0.51109989000E-03 0.  1.
     -623   -1    0    0    0    0  0.00000000000E+00  0.00000000000E+00  0.12525980253E-10  0.17130000000E+03  0.17130000000E+03 0. -1.
       11    1    1    2    0    0  0.54423365206E-02  0.20399374813E-02  0.73839564952E+00  0.73841870022E+00  0.51109989000E-03 0.  1.
     -623    1    1    2    0    0 -0.17788299447E-03  0.10703354673E-03  0.27326305263E-03  0.17130000000E+03  0.17130000000E+03 0. -1.
      622    1    1    2    0    0 -0.52644535261E-02 -0.21469710281E-02  0.32613310551E+01  0.32615812997E+01  0.40000000000E-01 0.  1.
</event>
<event>
 5   0  0.7212170E+07  0.9118800E+02  0.7818608E-02  0.1180000E+00
       11   -1    0    0    0    0  0.00000000000E+00  0.00000000000E+00  0.39999999673E+01  0.40000000000E+01  0.51109989000E-03 0. -1.
     -623   -1    0    0    0    0  0.00000000000E+00  0.00000000000E+00  0.12525980253E-10  0.17130000000E+03  0.17130000000E+03 0. -1.
       11    1    1    2    0    0 -0.99877892933E-03  0.13000024128E-02  0.43538262917E-01  0.43572114093E-01  0.51109989000E-03 0. -1.
     -623    1    1    2    0    0 -0.34325138678E-03 -0.10505479603E-03  0.23643492523E-03  0.17130000000E+03  0.17130000000E+03 0. -1.
      622    1    1    2    0    0  0.13420303163E-02 -0.11949476167E-02  0.39562252713E+01  0.39564278871E+01  0.40000000000E-01 0. -1.
</event>
<event>
 5   0  0.7212170E+07  0.9118800E+02  0.7818608E-02  0.1180000E+00
       11   -1    0    0    0    0  0.00000000000E+00  0.00000000000E+00  0.39999999673E+01  0.40000000000E+01  0.51109989000E-03 0.  1.
     -623   -1    0    0    0    0  0.00000000000E+00  0.00000000000E+00  0.12525980253E-10  0.17130000000E+03  0.17130000000E+03 0.  1.
       11    1    1    2    0    0  0.10231364421E-01 -0.30860156470E-01  0.83794918475E+00  0.83857982776E+00  0.51109989000E-03 0.  1.
     -623    1    1    2    0    0 -0.27715729458E-01 -0.13948734755E-01  0.12524389685E-02  0.17130000281E+03  0.17130000000E+03 0.  1.
      622    1    1    2    0    0  0.17484365039E-01  0.44808891225E-01  0.31607983440E+01  0.31614173580E+01  0.40000000000E-01 0.  1.
</event>
<event>
 5   0  0.7212170E+07  0.9118800E+02  0.7818608E-02  0.1180000E+00
       11   -1    0    0    0    0  0.00000000000E+00  0.00000000000E+00  0.39999999673E+01  0.40000000000E+01  0.51109989000E-03 0.  1.
     -623   -1    0    0    0    0  0.00000000000E+00  0.00000000000E+00  0.12525980253E-10  0.17130000000E+03  0.17130000000E+03 0.  1.
       11    1    1    2    0    0 -0.13822689111E-02  0.26370087132E-02  0.14209144854E-01  0.14526716865E-01  0.51109989000E-03 0.  1.
     -623    1    1    2    0    0  0.45571677714E-02 -0.12200263982E-03  0.52039309798E-03  0.17130000006E+03  0.17130000000E+03 0.  1.
      622    1    1    2    0    0 -0.31748988598E-02 -0.25150060734E-02  0.39852704289E+01  0.39854732212E+01  0.40000000000E-01 0.  1.
</event>
<event>
 5   0  0.7212170E+07  0.9118800E+02  0.7818608E-02  0.1180000E+00
       11   -1    0    0    0    0  0.00000000000E+00  0.00000000000E+00  0.39999999673E+01  0.40000000000E+01  0.51109989000E-03 0. -1.
     -623   -1    0    0    0    0  0.00000000000E+00  0.00000000000E+00  0.12525980253E-10  0.17130000000E+03  0.17130000000E+03 0.  1.
       11    1    1    2    0    0 -0.41703412202E-02 -0.25585893544E-02  0.39424677111E-01  0.39730397856E-01  0.51109989000E-03 0. -1.
     -623    1    1    2    0    0  0.32236404996E-02 -0.17239871055E-02  0.51016831145E-03  0.17130000004E+03  0.17130000000E+03 0.  1.
      622    1    1    2    0    0  0.94670072077E-03  0.42825764598E-02  0.39600651216E+01  0.39602695621E+01  0.40000000000E-01 0. -1.
</event>
<event>
 5   0  0.7212170E+07  0.9118800E+02  0.7818608E-02  0.1180000E+00
       11   -1    0    0    0    0  0.00000000000E+00  0.00000000000E+00  0.39999999673E+01  0.40000000000E+01  0.51109989000E-03 0. -1.
     -623   -1    0    0    0    0  0.00000000000E+00  0.00000000000E+00  0.12525980253E-10  0.17130000000E+03  0.17130000000E+03 0.  1.
       11    1    1    2    0    0 -0.37546655636E-03  0.34786701980E-01  0.95556442832E+00  0.95619762262E+00  0.51109989000E-03 0. -1.
     -623    1    1    2    0    0  0.35626812418E-02  0.38743317397E-02  0.11433146223E-02  0.17130000008E+03  0.17130000000E+03 0.  1.
      622    1    1    2    0    0 -0.31872146853E-02 -0.38661033720E-01  0.30432922243E+01  0.30438022926E+01  0.40000000000E-01 0. -1.
</event>
<event>
 5   0  0.7212170E+07  0.9118800E+02  0.7818608E-02  0.1180000E+00
       11   -1    0    0    0    0  0.00000000000E+00  0.00000000000E+00  0.39999999673E+01  0.40000000000E+01  0.51109989000E-03 0. -1.
     -623   -1    0    0    0    0  0.00000000000E+00  0.00000000000E+00  0.12525980253E-10  0.17130000000E+03  0.17130000000E+03 0. -1.
       11    1    1    2    0    0  0.25575203377E-02 -0.15193585230E-01  0.10286237258E+01  0.10287392364E+01  0.51109989000E-03 0. -1.
     -623    1    1    2    0    0 -0.30968180997E-01 -0.86083342718E-02  0.61894723144E-03  0.17130000302E+03  0.17130000000E+03 0. -1.
      622    1    1    2    0    0  0.28410660663E-01  0.23801919503E-01  0.29707572948E+01  0.29712577475E+01  0.40000000000E-01 0. -1.
</event>
<event>
 5   0  0.7212170E+07  0.9118800E+02  0.7818608E-02  0.1180000E+00
       11   -1    0    0    0    0  0.00000000000E+00  0.00000000000E+00  0.39999999673E+01  0.40000000000E+01  0.51109989000E-03 0.  1.
     -623   -1    0    0    0    0  0.00000000000E+00  0.00000000000E+00  0.12525980253E-10  0.17130000000E+03  0.17130000000E+03 0.  1.
       11    1    1    2    0    0 -0.86352287711E-02 -0.12147121743E-01  0.15300801399E+00  0.15373299356E+00  0.51109989000E-03 0.  1.
     -623    1    1    2    0    0  0.38751774856E-02 -0.29861431801E-02  0.96573756703E-03  0.17130000007E+03  0.17130000000E+03 0.  1.
      622    1    1    2    0    0  0.47600512857E-02  0.15133264923E-01  0.38460262156E+01  0.38462669336E+01  0.40000000000E-01 0.  1.
</event>
<event>
 5   0  0.7212170E+07  0.9118800E+02  0.7818608E-02  0.1180000E+00
       11   -1    0    0    0    0  0.00000000000E+00  0.00000000000E+00  0.39999999673E+01  0.40000000000E+01  0.51109989000E-03 0. -1.
     -623   -1    0    0    0    0  0.00000000000E+00  0.00000000000E+00  0.12525980253E-10  0.17130000000E+03  0.17130000000E+03 0.  1.
       11    1    1    2    0    0  0.21209726069E-03  0.35520956931E-02  0.16445106904E+00  0.16449035747E+00  0.51109989000E-03 0. -1.
     -623    1    1    2    0    0  0.24952348027E-03 -0.13662268062E-02  0.24849518915E-03  0.17130000001E+03  0.17130000000E+03 0.  1.
      622    1    1    2    0    0 -0.46162074095E-03 -0.21858688870E-02  0.38353004030E+01  0.38355096366E+01  0.40000000000E-01 0. -1.
</event>
<event>
 5   0  0.7212170E+07  0.9118800E+02  0.7818608E-02  0.1180000E+00
       11   -1    0    0    0    0  0.00000000000E+00  0.00000000000E+00  0.39999999673E+01  0.40000000000E+01  0.51109989000E-03 0. -1.
     -623   -1    0    0    0    0  0.00000000000E+00  0.00000000000E+00  0.12525980253E-10  0.17130000000E+03  0.17130000000E+03 0. -1.
       11    1    1    2    0    0  0.50924073831E-01 -0.94722744501E-02  0.58133342061E+00  0.58363669557E+00  0.51109989000E-03 0. -1.
     -623    1    1    2    0    0 -0.10182001112E-01 -0.11428489019E-01  0.28450298216E-02  0.17130000071E+03  0.17130000000E+03 0. -1.
      622    1    1    2    0    0 -0.40742072719E-01  0.20900763469E-01  0.34158215170E+01  0.34163625970E+01  0.40000000000E-01 0. -1.
</event>
<event>
 5   0  0.7212170E+07  0.9118800E+02  0.7818608E-02  0.1180000E+00
       11   -1    0    0    0    0  0.00000000000E+00  0.00000000000E+00  0.39999999673E+01  0.40000000000E+01  0.51109989000E-03 0. -1.
     -623   -1    0    0    0    0  0.00000000000E+00  0.00000000000E+00  0.12525980253E-10  0.17130000000E+03  0.17130000000E+03 0.  1.
       11    1    1    2    0    0 -0.64583305065E-03  0.29811318794E-02  0.13531291934E-01  0.13880249714E-01  0.51109989000E-03 0. -1.
     -623    1    1    2    0    0  0.26556538485E-02 -0.37284562686E-02  0.55026543415E-03  0.17130000006E+03  0.17130000000E+03 0.  1.
      622    1    1    2    0    0 -0.20098207980E-02  0.74732438935E-03  0.39859184102E+01  0.39861196884E+01  0.40000000000E-01 0. -1.
</event>
<event>
 5   0  0.7212170E+07  0.9118800E+02  0.7818608E-02  0.1180000E+00
       11   -1    0    0    0    0  0.00000000000E+00  0.00000000000E+00  0.39999999673E+01  0.40000000000E+01  0.51109989000E-03 0. -1.
     -623   -1    0    0    0    0  0.00000000000E+00  0.00000000000E+00  0.12525980253E-10  0.17130000000E+03  0.17130000000E+03 0.  1.
       11    1    1    2    0    0 -0.51337856427E-02 -0.56873117712E-03  0.78195066308E-02  0.93853671864E-02  0.51109989000E-03 0. -1.
     -623    1    1    2    0    0  0.89254565123E-02 -0.59635747828E-02  0.17737969689E-02  0.17130000035E+03  0.17130000000E+03 0.  1.
      622    1    1    2    0    0 -0.37916708698E-02  0.65323059601E-02  0.39904066638E+01  0.39906142874E+01  0.40000000000E-01 0. -1.
</event>
<event>
 5   0  0.7212170E+07  0.9118800E+02  0.7818608E-02  0.1180000E+00
       11   -1    0    0    0    0  0.00000000000E+00  0.00000000000E+00  0.39999999673E+01  0.40000000000E+01  0.51109989000E-03 0. -1.
     -623   -1    0    0    0    0  0.00000000000E+00  0.00000000000E+00  0.12525980253E-10  0.17130000000E+03  0.17130000000E+03 0. -1.
       11    1    1    2    0    0  0.12000381743E-04  0.66945793262E-02  0.30866218849E+00  0.30873520267E+00  0.51109989000E-03 0. -1.
     -623    1    1    2    0    0  0.37435559837E-02  0.81145542661E-03  0.29930153047E-03  0.17130000004E+03  0.17130000000E+03 0. -1.
      622    1    1    2    0    0 -0.37555563669E-02 -0.75060347532E-02  0.36910384788E+01  0.36912647557E+01  0.40000000000E-01 0. -1.
</event>
<event>
 5   0  0.7212170E+07  0.9118800E+02  0.7818608E-02  0.1180000E+00
       11   -1    0    0    0    0  0.00000000000E+00  0.00000000000E+00  0.39999999673E+01  0.40000000000E+01  0.51109989000E-03 0. -1.
     -623   -1    0    0    0    0  0.00000000000E+00  0.00000000000E+00  0.12525980253E-10  0.17130000000E+03  0.17130000000E+03 0. -1.
       11    1    1    2    0    0 -0.22964706915E-01 -0.18348171483E-01  0.17736003490E+01  0.17738439876E+01  0.51109989000E-03 0. -1.
     -623    1    1    2    0    0 -0.15949284255E-03 -0.39296836554E-02  0.83466760767E-03  0.17130000005E+03  0.17130000000E+03 0. -1.
      622    1    1    2    0    0  0.23124199758E-01  0.22277855138E-01  0.22255649505E+01  0.22261559649E+01  0.40000000000E-01 0. -1.
</event>
<event>
 5   0  0.7212170E+07  0.9118800E+02  0.7818608E-02  0.1180000E+00
       11   -1    0    0    0    0  0.00000000000E+00  0.00000000000E+00  0.39999999673E+01  0.40000000000E+01  0.51109989000E-03 0. -1.
     -623   -1    0    0    0    0  0.00000000000E+00  0.00000000000E+00  0.12525980253E-10  0.17130000000E+03  0.17130000000E+03 0. -1.
       11    1    1    2    0    0  0.49827192025E-02  0.53966249511E-03  0.75263714045E+00  0.75265400094E+00  0.51109989000E-03 0. -1.
     -623    1    1    2    0    0 -0.12817697224E-02 -0.13561378866E-02  0.26541435902E-03  0.17130000001E+03  0.17130000000E+03 0. -1.
      622    1    1    2    0    0 -0.37009494798E-02  0.81647539180E-03  0.32470974135E+01  0.32473459897E+01  0.40000000000E-01 0. -1.
</event>
<event>
 5   0  0.7212170E+07  0.9118800E+02  0.7818608E-02  0.1180000E+00
       11   -1    0    0    0    0  0.00000000000E+00  0.00000000000E+00  0.39999999673E+01  0.40000000000E+01  0.51109989000E-03 0. -1.
     -623   -1    0    0    0    0  0.00000000000E+00  0.00000000000E+00  0.12525980253E-10  0.17130000000E+03  0.17130000000E+03 0. -1.
       11    1    1    2    0    0  0.29553832281E-03 -0.27561833178E-03  0.36274573237E-02  0.36855092047E-02  0.51109989000E-03 0. -1.
     -623    1    1    2    0    0  0.28879298930E-03  0.48581222823E-04  0.25825831688E-03  0.17130000000E+03  0.17130000000E+03 0. -1.
      622    1    1    2    0    0 -0.58433131206E-03  0.22703710897E-03  0.39961142510E+01  0.39963144896E+01  0.40000000000E-01 0. -1.
</event>
<event>
 5   0  0.7212170E+07  0.9118800E+02  0.7818608E-02  0.1180000E+00
       11   -1    0    0    0    0  0.00000000000E+00  0.00000000000E+00  0.39999999673E+01  0.40000000000E+01  0.51109989000E-03 0.  1.
     -623   -1    0    0    0    0  0.00000000000E+00  0.00000000000E+00  0.12525980253E-10  0.17130000000E+03  0.17130000000E+03 0. -1.
       11    1    1    2    0    0  0.75153816757E-02 -0.54540057206E-02  0.31814530855E+00  0.31828120541E+00  0.51109989000E-03 0.  1.
     -623    1    1    2    0    0 -0.11704883652E-01  0.78323604081E-02  0.35689185164E-03  0.17130000058E+03  0.17130000000E+03 0. -1.
      622    1    1    2    0    0  0.41895019771E-02 -0.23783546884E-02  0.36814977674E+01  0.36817182157E+01  0.40000000000E-01 0.  1.
</event>
<event>
 5   0  0.7212170E+07  0.9118800E+02  0.7818608E-02  0.1180000E+00
       11   -1    0    0    0    0  0.00000000000E+00  0.00000000000E+00  0.39999999673E+01  0.40000000000E+01  0.51109989000E-03 0.  1.
     -623   -1    0    0    0    0  0.00000000000E+00  0.00000000000E+00  0.12525980253E-10  0.17130000000E+03  0.17130000000E+03 0. -1.
       11    1    1    2    0    0 -0.59609264586E-03  0.27380968595E-01  0.12530749883E+01  0.12533743496E+01  0.51109989000E-03 0.  1.
     -623    1    1    2    0    0  0.17804178850E-01 -0.11165993850E-01  0.69368322117E-03  0.17130000129E+03  0.17130000000E+03 0. -1.
      622    1    1    2    0    0 -0.17208086202E-01 -0.16214974746E-01  0.27462312954E+01  0.27466243594E+01  0.40000000000E-01 0.  1.
</event>
<event>
 5   0  0.7212170E+07  0.9118800E+02  0.7818608E-02  0.1180000E+00
       11   -1    0    0    0    0  0.00000000000E+00  0.00000000000E+00  0.39999999673E+01  0.40000000000E+01  0.51109989000E-03 0. -1.
     -623   -1    0    0    0    0  0.00000000000E+00  0.00000000000E+00  0.12525980253E-10  0.17130000000E+03  0.17130000000E+03 0.  1.
       11    1    1    2    0    0  0.25508935577E-02 -0.17360995164E-02  0.18881655231E-01  0.19138945291E-01  0.51109989000E-03 0. -1.
     -623    1    1    2    0    0 -0.36010863779E-02  0.27257592452E-02  0.45854575053E-03  0.17130000006E+03  0.17130000000E+03 0.  1.
      622    1    1    2    0    0  0.10501928204E-02 -0.98965972893E-03  0.39806597665E+01  0.39808609947E+01  0.40000000000E-01 0. -1.
</event>
<event>
 5   0  0.7212170E+07  0.9118800E+02  0.7818608E-02  0.1180000E+00
       11   -1    0    0    0    0  0.00000000000E+00  0.00000000000E+00  0.39999999673E+01  0.40000000000E+01  0.51109989000E-03 0.  1.
     -623   -1    0    0    0    0  0.00000000000E+00  0.00000000000E+00  0.12525980253E-10  0.17130000000E+03  0.17130000000E+03 0.  1.
       11    1    1    2    0    0  0.87531512219E-03  0.22165918680E-04  0.27849624546E-01  0.27868072741E-01  0.51109989000E-03 0.  1.
     -623    1    1    2    0    0 -0.10259219813E-02 -0.36183738236E-03  0.21984481655E-03  0.17130000000E+03  0.17130000000E+03 0.  1.
      622    1    1    2    0    0  0.15060685877E-03  0.33967146357E-03  0.39719304968E+01  0.39721319225E+01  0.40000000000E-01 0.  1.
</event>
<event>
 5   0  0.7212170E+07  0.9118800E+02  0.7818608E-02  0.1180000E+00
       11   -1    0    0    0    0  0.00000000000E+00  0.00000000000E+00  0.39999999673E+01  0.40000000000E+01  0.51109989000E-03 0.  1.
     -623   -1    0    0    0    0  0.00000000000E+00  0.00000000000E+00  0.12525980253E-10  0.17130000000E+03  0.17130000000E+03 0. -1.
       11    1    1    2    0    0  0.16455829837E-01 -0.36899539358E-02  0.12635650130E+00  0.12747798532E+00  0.51109989000E-03 0.  1.
     -623    1    1    2    0    0 -0.11228028388E-02  0.25884790028E-02  0.13585827416E-02  0.17130000003E+03  0.17130000000E+03 0. -1.
      622    1    1    2    0    0 -0.15333026998E-01  0.11014749328E-02  0.38722848837E+01  0.38725219864E+01  0.40000000000E-01 0.  1.
</event>
<event>
 5   0  0.7212170E+07  0.9118800E+02  0.7818608E-02  0.1180000E+00
       11   -1    0    0    0    0  0.00000000000E+00  0.00000000000E+00  0.39999999673E+01  0.40000000000E+01  0.51109989000E-03 0. -1.
     -623   -1    0    0    0    0  0.00000000000E+00  0.00000000000E+00  0.12525980253E-10  0.17130000000E+03  0.17130000000E+03 0.  1.
       11    1    1    2    0    0  0.97280199835E-03  0.23391049443E-02  0.13287626577E-01  0.13536616963E-01  0.51109989000E-03 0. -1.
     -623    1    1    2    0    0  0.15649020034E-01  0.25389973769E-01  0.58334032062E-03  0.17130000260E+03  0.17130000000E+03 0.  1.
      622    1    1    2    0    0 -0.16621822031E-01 -0.27729078712E-01  0.39861290003E+01  0.39864607854E+01  0.40000000000E-01 0. -1.
</event>
<event>
 5   0  0.7212170E+07  0.9118800E+02  0.7818608E-02  0.1180000E+00
       11   -1    0    0    0    0  0.00000000000E+00  0.00000000000E+00  0.39999999673E+01  0.40000000000E+01  0.51109989000E-03 0.  1.
     -623   -1    0    0    0    0  0.00000000000E+00  0.00000000000E+00  0.12525980253E-10  0.17130000000E+03  0.17130000000E+03 0. -1.
       11    1    1    2    0    0 -0.42720263088E-03 -0.41412409230E-03  0.10244087257E-01  0.10274071621E-01  0.51109989000E-03 0.  1.
     -623    1    1    2    0    0  0.40334884248E-03  0.59927371038E-03  0.23047783530E-03  0.17130000000E+03  0.17130000000E+03 0. -1.
      622    1    1    2    0    0  0.23853788305E-04 -0.18514961822E-03  0.39895254032E+01  0.39897259276E+01  0.40000000000E-01 0.  1.
</event>
<event>
 5   0  0.7212170E+07  0.9118800E+02  0.7818608E-02  0.1180000E+00
       11   -1    0    0    0    0  0.00000000000E+00  0.00000000000E+00  0.39999999673E+01  0.40000000000E+01  0.51109989000E-03 0. -1.
     -623   -1    0    0    0    0  0.00000000000E+00  0.00000000000E+00  0.12525980253E-10  0.17130000000E+03  0.17130000000E+03 0.  1.
       11    1    1    2    0    0 -0.27177691885E-02  0.51446237133E-02  0.18026293967E+00  0.18035753952E+00  0.51109989000E-03 0. -1.
     -623    1    1    2    0    0 -0.68948584100E-02 -0.57600715740E-02  0.31639853692E-03  0.17130000024E+03  0.17130000000E+03 0.  1.
      622    1    1    2    0    0  0.96126276015E-02  0.61544786325E-03  0.38194206309E+01  0.38196422264E+01  0.40000000000E-01 0. -1.
</event>
<event>
 5   0  0.7212170E+07  0.9118800E+02  0.7818608E-02  0.1180000E+00
       11   -1    0    0    0    0  0.00000000000E+00  0.00000000000E+00  0.39999999673E+01  0.40000000000E+01  0.51109989000E-03 0. -1.
     -623   -1    0    0    0    0  0.00000000000E+00  0.00000000000E+00  0.12525980253E-10  0.17130000000E+03  0.17130000000E+03 0.  1.
       11    1    1    2    0    0  0.49659562782E-02 -0.67658277759E-02  0.22521836950E+01  0.22521993905E+01  0.51109989000E-03 0. -1.
     -623    1    1    2    0    0 -0.18260005745E-01 -0.10350960502E-01  0.60914224604E-03  0.17130000129E+03  0.17130000000E+03 0.  1.
      622    1    1    2    0    0  0.13294049465E-01  0.17116788278E-01  0.17472071298E+01  0.17477993222E+01  0.40000000000E-01 0.  0.
</event>
<event>
 5   0  0.7212170E+07  0.9118800E+02  0.7818608E-02  0.1180000E+00
       11   -1    0    0    0    0  0.00000000000E+00  0.00000000000E+00  0.39999999673E+01  0.40000000000E+01  0.51109989000E-03 0.  1.
     -623   -1    0    0    0    0  0.00000000000E+00  0.00000000000E+00  0.12525980253E-10  0.17130000000E+03  0.17130000000E+03 0. -1.
       11    1    1    2    0    0 -0.12299703345E-01  0.51910407777E-02  0.20585624800E+00  0.20628932515E+00  0.51109989000E-03 0.  1.
     -623    1    1    2    0    0 -0.12645179164E-02 -0.10593653668E-02  0.67043549239E-03  0.17130000001E+03  0.17130000000E+03 0. -1.
      622    1    1    2    0    0  0.13564221261E-01 -0.41316754109E-02  0.37934732838E+01  0.37937106655E+01  0.40000000000E-01 0.  1.
</event>
<event>
 5   0  0.7212170E+07  0.9118800E+02  0.7818608E-02  0.1180000E+00
       11   -1    0    0    0    0  0.00000000000E+00  0.00000000000E+00  0.39999999673E+01  0.40000000000E+01  0.51109989000E-03 0.  1.
     -623   -1    0    0    0    0  0.00000000000E+00  0.00000000000E+00  0.12525980253E-10  0.17130000000E+03  0.17130000000E+03 0.  1.
       11    1    1    2    0    0  0.55264034956E-02  0.48473434559E-02  0.20303588482E+00  0.20316955880E+00  0.51109989000E-03 0.  1.
     -623    1    1    2    0    0  0.35044758117E-03 -0.52332393886E-03  0.35136154878E-03  0.17130000000E+03  0.17130000000E+03 0.  1.
      622    1    1    2    0    0 -0.58768510768E-02 -0.43240195170E-02  0.37966127215E+01  0.37968304402E+01  0.40000000000E-01 0.  1.
</event>
<event>
 5   0  0.7212170E+07  0.9118800E+02  0.7818608E-02  0.1180000E+00
       11   -1    0    0    0    0  0.00000000000E+00  0.00000000000E+00  0.39999999673E+01  0.40000000000E+01  0.51109989000E-03 0.  1.
     -623   -1    0    0    0    0  0.00000000000E+00  0.00000000000E+00  0.12525980253E-10  0.17130000000E+03  0.17130000000E+03 0.  1.
       11    1    1    2    0    0 -0.75304370635E-02  0.26775342525E-02  0.50947132786E+00  0.50953426951E+00  0.51109989000E-03 0.  1.
     -623    1    1    2    0    0  0.77556888436E-02 -0.21000824961E-02  0.29235605626E-03  0.17130000019E+03  0.17130000000E+03 0.  1.
      622    1    1    2    0    0 -0.22525177891E-03 -0.57745175670E-03  0.34902362828E+01  0.34904655412E+01  0.40000000000E-01 0.  1.
</event>
<event>
 5   0  0.7212170E+07  0.9118800E+02  0.7818608E-02  0.1180000E+00
       11   -1    0    0    0    0  0.00000000000E+00  0.00000000000E+00  0.39999999673E+01  0.40000000000E+01  0.51109989000E-03 0.  1.
     -623   -1    0    0    0    0  0.00000000000E+00  0.00000000000E+00  0.12525980253E-10  0.17130000000E+03  0.17130000000E+03 0. -1.
       11    1    1    2    0    0 -0.32495372041E-01  0.51174075842E-01  0.62694260906E+00  0.62986667757E+00  0.51109989000E-03 0.  1.
     -623    1    1    2    0    0  0.39235461594E-01 -0.33354409670E-02  0.35123001069E-02  0.17130000456E+03  0.17130000000E+03 0. -1.
      622    1    1    2    0    0 -0.67400895536E-02 -0.47838634875E-01  0.33695450583E+01  0.33701287607E+01  0.40000000000E-01 0.  1.
</event>
<event>
 5   0  0.7212170E+07  0.9118800E+02  0.7818608E-02  0.1180000E+00
       11   -1    0    0    0    0  0.00000000000E+00  0.00000000000E+00  0.39999999673E+01  0.40000000000E+01  0.51109989000E-03 0. -1.
     -623   -1    0    0    0    0  0.00000000000E+00  0.00000000000E+00  0.12525980253E-10  0.17130000000E+03  0.17130000000E+03 0. -1.
       11    1    1    2    0    0 -0.33685762442E-02  0.19370706788E-02  0.60219174865E-01  0.60346580626E-01  0.51109989000E-03 0. -1.
     -623    1    1    2    0    0 -0.39359118955E-03 -0.44628066607E-03  0.33252176683E-03  0.17130000000E+03  0.17130000000E+03 0. -1.
      622    1    1    2    0    0  0.37621674340E-02 -0.14907900126E-02  0.39394482724E+01  0.39396534197E+01  0.40000000000E-01 0. -1.
</event>
<event>
 5   0  0.7212170E+07  0.9118800E+02  0.7818608E-02  0.1180000E+00
       11   -1    0    0    0    0  0.00000000000E+00  0.00000000000E+00  0.39999999673E+01  0.40000000000E+01  0.51109989000E-03 0.  1.
     -623   -1    0    0    0    0  0.00000000000E+00  0.00000000000E+00  0.12525980253E-10  0.17130000000E+03  0.17130000000E+03 0. -1.
       11    1    1    2    0    0  0.51505482696E-02  0.11460928463E-01  0.41319387993E+00  0.41338520131E+00  0.51109989000E-03 0.  1.
     -623    1    1    2    0    0 -0.98856146519E-02  0.20166000508E-02  0.44309490550E-03  0.17130000030E+03  0.17130000000E+03 0. -1.
      622    1    1    2    0    0  0.47350663830E-02 -0.13477528514E-01  0.35863629928E+01  0.35866145013E+01  0.40000000000E-01 0.  1.
</event>
<event>
 5   0  0.7212170E+07  0.9118800E+02  0.7818608E-02  0.1180000E+00
       11   -1    0    0    0    0  0.00000000000E+00  0.00000000000E+00  0.39999999673E+01  0.40000000000E+01  0.51109989000E-03 0.  1.
     -623   -1    0    0    0    0  0.00000000000E+00  0.00000000000E+00  0.12525980253E-10  0.17130000000E+03  0.17130000000E+03 0. -1.
       11    1    1    2    0    0  0.48553610972E-02  0.12853598972E-02  0.85175064339E+00  0.85176560533E+00  0.51109989000E-03 0.  1.
     -623    1    1    2    0    0 -0.36939285922E-02 -0.20396837589E-01  0.32853279468E-03  0.17130000125E+03  0.17130000000E+03 0. -1.
      622    1    1    2    0    0 -0.11614325050E-02  0.19111477692E-01  0.31479207912E+01  0.31482331402E+01  0.40000000000E-01 0.  1.
</event>
<event>
 5   0  0.7212170E+07  0.9118800E+02  0.7818608E-02  0.1180000E+00
       11   -1    0    0    0    0  0.00000000000E+00  0.00000000000E+00  0.39999999673E+01  0.40000000000E+01  0.51109989000E-03 0. -1.
     -623   -1    0    0    0    0  0.00000000000E+00  0.00000000000E+00  0.12525980253E-10  0.17130000000E+03  0.17130000000E+03 0.  1.
       11    1    1    2    0    0 -0.99113401395E-03 -0.66278955985E-02  0.87856258888E-01  0.88112966103E-01  0.51109989000E-03 0. -1.
     -623    1    1    2    0    0 -0.44739345240E-02  0.19769339146E-02  0.46783792717E-03  0.17130000007E+03  0.17130000000E+03 0.  1.
      622    1    1    2    0    0  0.54650685385E-02  0.46509616837E-02  0.39116758710E+01  0.39118869639E+01  0.40000000000E-01 0. -1.
</event>
<event>
 5   0  0.7212170E+07  0.9118800E+02  0.7818608E-02  0.1180000E+00
       11   -1    0    0    0    0  0.00000000000E+00  0.00000000000E+00  0.39999999673E+01  0.40000000000E+01  0.51109989000E-03 0.  1.
     -623   -1    0    0    0    0  0.00000000000E+00  0.00000000000E+00  0.12525980253E-10  0.17130000000E+03  0.17130000000E+03 0.  1.
       11    1    1    2    0    0 -0.32494489613E-02 -0.26771878698E-02  0.13105799390E+01  0.13105868014E+01  0.51109989000E-03 0.  1.
     -623    1    1    2    0    0  0.28823134696E-03 -0.33769312139E-03  0.30763019877E-03  0.17130000000E+03  0.17130000000E+03 0.  1.
      622    1    1    2    0    0  0.29612176143E-02  0.30148809912E-02  0.26891123986E+01  0.26894131981E+01  0.40000000000E-01 0.  1.
</event>
<event>
 5   0  0.7212170E+07  0.9118800E+02  0.7818608E-02  0.1180000E+00
       11   -1    0    0    0    0  0.00000000000E+00  0.00000000000E+00  0.39999999673E+01  0.40000000000E+01  0.51109989000E-03 0.  1.
     -623   -1    0    0    0    0  0.00000000000E+00  0.00000000000E+00  0.12525980253E-10  0.17130000000E+03  0.17130000000E+03 0.  1.
       11    1    1    2    0    0  0.32516217036E-03 -0.57494268565E-02  0.10309797857E+01  0.10309959948E+01  0.51109989000E-03 0.  1.
     -623    1    1    2    0    0 -0.51818419216E-03  0.28303174333E-03  0.29067960137E-03  0.17130000000E+03  0.17130000000E+03 0.  1.
      622    1    1    2    0    0  0.19302202196E-03  0.54663951131E-02  0.29687295033E+01  0.29690040051E+01  0.40000000000E-01 0.  1.
</event>
<event>
 5   0  0.7212170E+07  0.9118800E+02  0.7818608E-02  0.1180000E+00
       11   -1    0    0    0    0  0.00000000000E+00  0.00000000000E+00  0.39999999673E+01  0.40000000000E+01  0.51109989000E-03 0. -1.
     -623   -1    0    0    0    0  0.00000000000E+00  0.00000000000E+00  0.12525980253E-10  0.17130000000E+03  0.17130000000E+03 0. -1.
       11    1    1    2    0    0 -0.20638153380E-01  0.31021660199E-01  0.63286919893E+00  0.63396526794E+00  0.51109989000E-03 0. -1.
     -623    1    1    2    0    0 -0.65719748719E-02 -0.79190548657E-02  0.15233092312E-02  0.17130000032E+03  0.17130000000E+03 0. -1.
      622    1    1    2    0    0  0.27210128252E-01 -0.23102605333E-01  0.33656074594E+01  0.33660344164E+01  0.40000000000E-01 0. -1.
</event>
<event>
 5   0  0.7212170E+07  0.9118800E+02  0.7818608E-02  0.1180000E+00
       11   -1    0    0    0    0  0.00000000000E+00  0.00000000000E+00  0.39999999673E+01  0.40000000000E+01  0.51109989000E-03 0. -1.
     -623   -1    0    0    0    0  0.00000000000E+00  0.00000000000E+00  0.12525980253E-10  0.17130000000E+03  0.17130000000E+03 0. -1.
       11    1    1    2    0    0 -0.27930000960E-02 -0.29731442879E-01  0.26031775926E+01  0.26033489200E+01  0.51109989000E-03 0. -1.
     -623    1    1    2    0    0  0.42278682553E-02  0.53180542038E-04  0.10604945778E-02  0.17130000006E+03  0.17130000000E+03 0. -1.
      622    1    1    2    0    0 -0.14348681593E-02  0.29678262337E-01  0.13957618803E+01  0.13966510246E+01  0.40000000000E-01 0. -1.
</event>
<event>
 5   0  0.7212170E+07  0.9118800E+02  0.7818608E-02  0.1180000E+00
       11   -1    0    0    0    0  0.00000000000E+00  0.00000000000E+00  0.39999999673E+01  0.40000000000E+01  0.51109989000E-03 0. -1.
     -623   -1    0    0    0    0  0.00000000000E+00  0.00000000000E+00  0.12525980253E-10  0.17130000000E+03  0.17130000000E+03 0.  1.
       11    1    1    2    0    0 -0.15141387111E-02 -0.36992610607E-03  0.45795954813E-02  0.48645019510E-02  0.51109989000E-03 0. -1.
     -623    1    1    2    0    0  0.12076417384E-02 -0.12995043550E-02  0.48549281762E-03  0.17130000001E+03  0.17130000000E+03 0.  1.
      622    1    1    2    0    0  0.30649697278E-03  0.16694304610E-02  0.39949348789E+01  0.39951354881E+01  0.40000000000E-01 0. -1.
</event>
<event>
 5   0  0.7212170E+07  0.9118800E+02  0.7818608E-02  0.1180000E+00
       11   -1    0    0    0    0  0.00000000000E+00  0.00000000000E+00  0.39999999673E+01  0.40000000000E+01  0.51109989000E-03 0.  1.
     -623   -1    0    0    0    0  0.00000000000E+00  0.00000000000E+00  0.12525980253E-10  0.17130000000E+03  0.17130000000E+03 0. -1.
       11    1    1    2    0    0  0.41005338586E-02  0.56740924159E-02  0.18321301267E+00  0.18334742687E+00  0.51109989000E-03 0.  1.
     -623    1    1    2    0    0 -0.24279758271E-02  0.16694810255E-02  0.35145250833E-03  0.17130000003E+03  0.17130000000E+03 0. -1.
      622    1    1    2    0    0 -0.16725580323E-02 -0.73435734409E-02  0.38164355009E+01  0.38166525461E+01  0.40000000000E-01 0.  1.
</event>
<event>
 5   0  0.7212170E+07  0.9118800E+02  0.7818608E-02  0.1180000E+00
       11   -1    0    0    0    0  0.00000000000E+00  0.00000000000E+00  0.39999999673E+01  0.40000000000E+01  0.51109989000E-03 0.  1.
     -623   -1    0    0    0    0  0.00000000000E+00  0.00000000000E+00  0.12525980253E-10  0.17130000000E+03  0.17130000000E+03 0. -1.
       11    1    1    2    0    0  0.34499631341E-03  0.17642818887E-02  0.16962681271E-01  0.17065330118E-01  0.51109989000E-03 0.  1.
     -623    1    1    2    0    0  0.32758784613E-03  0.80788538971E-04  0.30396296787E-03  0.17130000000E+03  0.17130000000E+03 0. -1.
      622    1    1    2    0    0 -0.67258415957E-03 -0.18450704277E-02  0.39827333236E+01  0.39829346697E+01  0.40000000000E-01 0.  1.
</event>
<event>
 5   0  0.7212170E+07  0.9118800E+02  0.7818608E-02  0.1180000E+00
       11   -1    0    0    0    0  0.00000000000E+00  0.00000000000E+00  0.39999999673E+01  0.40000000000E+01  0.51109989000E-03 0. -1.
     -623   -1    0    0    0    0  0.00000000000E+00  0.00000000000E+00  0.12525980253E-10  0.17130000000E+03  0.17130000000E+03 0.  1.
       11    1    1    2    0    0  0.49203129321E-02 -0.38893769572E-03  0.53830769795E-01  0.54058984005E-01  0.51109989000E-03 0. -1.
     -623    1    1    2    0    0  0.20194442243E-03  0.32372002102E-03  0.43425306631E-03  0.17130000000E+03  0.17130000000E+03 0.  1.
      622    1    1    2    0    0 -0.51222573545E-02  0.65217674702E-04  0.39457349445E+01  0.39459410150E+01  0.40000000000E-01 0. -1.
</event>
<event>
 5   0  0.7212170E+07  0.9118800E+02  0.7818608E-02  0.1180000E+00
       11   -1    0    0    0    0  0.00000000000E+00  0.00000000000E+00  0.39999999673E+01  0.40000000000E+01  0.51109989000E-03 0. -1.
     -623   -1    0    0    0    0  0.00000000000E+00  0.00000000000E+00  0.12525980253E-10  0.17130000000E+03  0.17130000000E+03 0. -1.
       11    1    1    2    0    0 -0.49523581878E-02 -0.37934076079E-02  0.13714580927E+00  0.13728856477E+00  0.51109989000E-03 0. -1.
     -623    1    1    2    0    0  0.67433264606E-03  0.77491157068E-02  0.35440849937E-03  0.17130000018E+03  0.17130000000E+03 0. -1.
      622    1    1    2    0    0  0.42780255416E-02 -0.39557081014E-02  0.38624997509E+01  0.38627112595E+01  0.40000000000E-01 0. -1.
</event>
<event>
 5   0  0.7212170E+07  0.9118800E+02  0.7818608E-02  0.1180000E+00
       11   -1    0    0    0    0  0.00000000000E+00  0.00000000000E+00  0.39999999673E+01  0.40000000000E+01  0.51109989000E-03 0.  1.
     -623   -1    0    0    0    0  0.00000000000E+00  0.00000000000E+00  0.12525980253E-10  0.17130000000E+03  0.17130000000E+03 0.  1.
       11    1    1    2    0    0 -0.16371267573E-01  0.11655265203E-02  0.12726123659E+01  0.12727183003E+01  0.51109989000E-03 0.  1.
     -623    1    1    2    0    0 -0.99153334548E-03 -0.31936119341E-02  0.45531256850E-03  0.17130000003E+03  0.17130000000E+03 0.  1.
      622    1    1    2    0    0  0.17362800919E-01  0.20280854146E-02  0.27269322899E+01  0.27272816675E+01  0.40000000000E-01 0.  1.
</event>
<event>
 5   0  0.7212170E+07  0.9118800E+02  0.7818608E-02  0.1180000E+00
       11   -1    0    0    0    0  0.00000000000E+00  0.00000000000E+00  0.39999999673E+01  0.40000000000E+01  0.51109989000E-03 0.  1.
     -623   -1    0    0    0    0  0.00000000000E+00  0.00000000000E+00  0.12525980253E-10  0.17130000000E+03  0.17130000000E+03 0. -1.
       11    1    1    2    0    0 -0.15657375561E-01  0.11283185578E-01  0.52152925167E+00  0.52188646778E+00  0.51109989000E-03 0.  1.
     -623    1    1    2    0    0  0.14331836409E-02  0.16944849168E-02  0.64051755233E-03  0.17130000002E+03  0.17130000000E+03 0. -1.
      622    1    1    2    0    0  0.14224191920E-01 -0.12977670495E-01  0.34778301982E+01  0.34781135167E+01  0.40000000000E-01 0.  1.
</event>
<event>
 5   0  0.7212170E+07  0.9118800E+02  0.7818608E-02  0.1180000E+00
       11   -1    0    0    0    0  0.00000000000E+00  0.00000000000E+00  0.39999999673E+01  0.40000000000E+01  0.51109989000E-03 0.  1.
     -623   -1    0    0    0    0  0.00000000000E+00  0.00000000000E+00  0.12525980253E-10  0.17130000000E+03  0.17130000000E+03 0. -1.
       11    1    1    2    0    0  0.10504645011E-01  0.13404008824E-01  0.22520073428E+00  0.22584429805E+00  0.51109989000E-03 0.  1.
     -623    1    1    2    0    0 -0.14744149236E-02  0.19536353853E-02  0.89757690010E-03  0.17130000002E+03  0.17130000000E+03 0. -1.
      622    1    1    2    0    0 -0.90302300877E-02 -0.15357644209E-01  0.37739016564E+01  0.37741556823E+01  0.40000000000E-01 0.  1.
</event>
<event>
 5   0  0.7212170E+07  0.9118800E+02  0.7818608E-02  0.1180000E+00
       11   -1    0    0    0    0  0.00000000000E+00  0.00000000000E+00  0.39999999673E+01  0.40000000000E+01  0.51109989000E-03 0. -1.
     -623   -1    0    0    0    0  0.00000000000E+00  0.00000000000E+00  0.12525980253E-10  0.17130000000E+03  0.17130000000E+03 0.  1.
       11    1    1    2    0    0  0.29452563461E-02  0.11042131515E-02  0.22190060815E-01  0.22417712723E-01  0.51109989000E-03 0. -1.
     -623    1    1    2    0    0  0.11549244843E-02 -0.92709607668E-03  0.43087582996E-03  0.17130000001E+03  0.17130000000E+03 0.  1.
      622    1    1    2    0    0 -0.41001808303E-02 -0.17711707491E-03  0.39773790301E+01  0.39775822798E+01  0.40000000000E-01 0. -1.
</event>
<event>
 5   0  0.7212170E+07  0.9118800E+02  0.7818608E-02  0.1180000E+00
       11   -1    0    0    0    0  0.00000000000E+00  0.00000000000E+00  0.39999999673E+01  0.40000000000E+01  0.51109989000E-03 0.  1.
     -623   -1    0    0    0    0  0.00000000000E+00  0.00000000000E+00  0.12525980253E-10  0.17130000000E+03  0.17130000000E+03 0.  1.
       11    1    1    2    0    0 -0.38589288404E-02 -0.11942749001E-01  0.19284374423E+01  0.19284783511E+01  0.51109989000E-03 0.  1.
     -623    1    1    2    0    0 -0.58936455934E-02 -0.37523703018E-02  0.50967713234E-03  0.17130000014E+03  0.17130000000E+03 0.  1.
      622    1    1    2    0    0  0.97525744347E-02  0.15695119303E-01  0.20710528485E+01  0.20715215062E+01  0.40000000000E-01 0. -1.
</event>
<event>
 5   0  0.7212170E+07  0.9118800E+02  0.7818608E-02  0.1180000E+00
       11   -1    0    0    0    0  0.00000000000E+00  0.00000000000E+00  0.39999999673E+01  0.40000000000E+01  0.51109989000E-03 0. -1.
     -623   -1    0    0    0    0  0.00000000000E+00  0.00000000000E+00  0.12525980253E-10  0.17130000000E+03  0.17130000000E+03 0. -1.
       11    1    1    2    0    0  0.38185659073E-01  0.24101957483E-02  0.18004779790E+01  0.18008845514E+01  0.51109989000E-03 0. -1.
     -623    1    1    2    0    0  0.39141253215E-02 -0.66291390409E-02  0.11776600008E-02  0.17130000018E+03  0.17130000000E+03 0. -1.
      622    1    1    2    0    0 -0.42099784394E-01  0.42189432928E-02  0.21983443285E+01  0.21991152717E+01  0.40000000000E-01 0. -1.
</event>
<event>
 5   0  0.7212170E+07  0.9118800E+02  0.7818608E-02  0.1180000E+00
       11   -1    0    0    0    0  0.00000000000E+00  0.00000000000E+00  0.39999999673E+01  0.40000000000E+01  0.51109989000E-03 0.  1.
     -623   -1    0    0    0    0  0.00000000000E+00  0.00000000000E+00  0.12525980253E-10  0.17130000000E+03  0.17130000000E+03 0.  1.
       11    1    1    2    0    0  0.78449573376E-04 -0.23833719979E-02  0.63716818215E-01  0.63763475148E-01  0.51109989000E-03 0.  1.
     -623    1    1    2    0    0  0.45044757997E-04 -0.80537464464E-03  0.25116504950E-03  0.17130000000E+03  0.17130000000E+03 0.  1.
      622    1    1    2    0    0 -0.12349433138E-03  0.31887466426E-02  0.39360319843E+01  0.39362365230E+01  0.40000000000E-01 0.  1.
</event>
<event>
 5   0  0.7212170E+07  0.9118800E+02  0.7818608E-02  0.1180000E+00
       11   -1    0    0    0    0  0.00000000000E+00  0.00000000000E+00  0.39999999673E+01  0.40000000000E+01  0.51109989000E-03 0.  1.
     -623   -1    0    0    0    0  0.00000000000E+00  0.00000000000E+00  0.12525980253E-10  0.17130000000E+03  0.17130000000E+03 0. -1.
       11    1    1    2    0    0 -0.11598500131E-01 -0.65801055951E-02  0.95934041012E-01  0.96857753654E-01  0.51109989000E-03 0.  1.
     -623    1    1    2    0    0  0.59895983846E-02 -0.10718240326E-02  0.11402916261E-02  0.17130000011E+03  0.17130000000E+03 0. -1.
      622    1    1    2    0    0  0.56089017460E-02  0.76519296278E-02  0.39029256352E+01  0.39031421350E+01  0.40000000000E-01 0.  1.
</event>
<event>
 5   0  0.7212170E+07  0.9118800E+02  0.7818608E-02  0.1180000E+00
       11   -1    0    0    0    0  0.00000000000E+00  0.00000000000E+00  0.39999999673E+01  0.40000000000E+01  0.51109989000E-03 0. -1.
     -623   -1    0    0    0    0  0.00000000000E+00  0.00000000000E+00  0.12525980253E-10  0.17130000000E+03  0.17130000000E+03 0.  1.
       11    1    1    2    0    0  0.21344909767E-02 -0.40937653451E-02  0.99185127862E+00  0.99186215529E+00  0.51109989000E-03 0. -1.
     -623    1    1    2    0    0 -0.23302305049E-02  0.50805838725E-02  0.27706071271E-03  0.17130000009E+03  0.17130000000E+03 0.  1.
      622    1    1    2    0    0  0.19573952891E-03 -0.98681852903E-03  0.30078716293E+01  0.30081377545E+01  0.40000000000E-01 0. -1.
</event>
<event>
 5   0  0.7212170E+07  0.9118800E+02  0.7818608E-02  0.1180000E+00
       11   -1    0    0    0    0  0.00000000000E+00  0.00000000000E+00  0.39999999673E+01  0.40000000000E+01  0.51109989000E-03 0. -1.
     -623   -1    0    0    0    0  0.00000000000E+00  0.00000000000E+00  0.12525980253E-10  0.17130000000E+03  0.17130000000E+03 0. -1.
       11    1    1    2    0    0  0.23032373340E-02  0.96577532338E-02  0.10920294856E+00  0.10965455895E+00  0.51109989000E-03 0. -1.
     -623    1    1    2    0    0 -0.37474279450E-02  0.11928203283E-02  0.67266749711E-03  0.17130000005E+03  0.17130000000E+03 0. -1.
      622    1    1    2    0    0  0.14441906119E-02 -0.10850573562E-01  0.38901243523E+01  0.38903453956E+01  0.40000000000E-01 0. -1.
</event>
<event>
 5   0  0.7212170E+07  0.9118800E+02  0.7818608E-02  0.1180000E+00
       11   -1    0    0    0    0  0.00000000000E+00  0.00000000000E+00  0.39999999673E+01  0.40000000000E+01  0.51109989000E-03 0. -1.
     -623   -1    0    0    0    0  0.00000000000E+00  0.00000000000E+00  0.12525980253E-10  0.17130000000E+03  0.17130000000E+03 0.  1.
       11    1    1    2    0    0 -0.95137003929E-03 -0.63341305761E-03  0.71059118971E-02  0.72153672145E-02  0.51109989000E-03 0. -1.
     -623    1    1    2    0    0  0.55621314714E-03 -0.36117937310E-06  0.30986016505E-03  0.17130000000E+03  0.17130000000E+03 0.  1.
      622    1    1    2    0    0  0.39515689200E-03  0.63377423698E-03  0.39925841963E+01  0.39927846326E+01  0.40000000000E-01 0. -1.
</event>
<event>
 5   0  0.7212170E+07  0.9118800E+02  0.7818608E-02  0.1180000E+00
       11   -1    0    0    0    0  0.00000000000E+00  0.00000000000E+00  0.39999999673E+01  0.40000000000E+01  0.51109989000E-03 0. -1.
     -623   -1    0    0    0    0  0.00000000000E+00  0.00000000000E+00  0.12525980253E-10  0.17130000000E+03  0.17130000000E+03 0.  1.
       11    1    1    2    0    0  0.15481757997E-01 -0.32669293029E-02  0.13271480564E+01  0.13272424731E+01  0.51109989000E-03 0. -1.
     -623    1    1    2    0    0  0.86568623978E-06 -0.56940185366E-03  0.44132120094E-03  0.17130000000E+03  0.17130000000E+03 0.  1.
      622    1    1    2    0    0 -0.15482623683E-01  0.38363311565E-02  0.26724105896E+01  0.26727575252E+01  0.40000000000E-01 0.  1.
</event>
<event>
 5   0  0.7212170E+07  0.9118800E+02  0.7818608E-02  0.1180000E+00
       11   -1    0    0    0    0  0.00000000000E+00  0.00000000000E+00  0.39999999673E+01  0.40000000000E+01  0.51109989000E-03 0.  1.
     -623   -1    0    0    0    0  0.00000000000E+00  0.00000000000E+00  0.12525980253E-10  0.17130000000E+03  0.17130000000E+03 0.  1.
       11    1    1    2    0    0  0.15434598112E-01  0.62922547034E-02  0.17204254689E+01  0.17205062844E+01  0.51109989000E-03 0.  1.
     -623    1    1    2    0    0  0.84196583371E-03 -0.70866444422E-04  0.49837981175E-03  0.17130000000E+03  0.17130000000E+03 0.  1.
      622    1    1    2    0    0 -0.16276563945E-01 -0.62213882590E-02  0.22790761182E+01  0.22794937124E+01  0.40000000000E-01 0.  0.
</event>
<event>
 5   0  0.7212170E+07  0.9118800E+02  0.7818608E-02  0.1180000E+00
       11   -1    0    0    0    0  0.00000000000E+00  0.00000000000E+00  0.39999999673E+01  0.40000000000E+01  0.51109989000E-03 0.  1.
     -623   -1    0    0    0    0  0.00000000000E+00  0.00000000000E+00  0.12525980253E-10  0.17130000000E+03  0.17130000000E+03 0.  1.
       11    1    1    2    0    0  0.60125577154E-02  0.16714895092E-02  0.19426406218E-01  0.20410566114E-01  0.51109989000E-03 0.  1.
     -623    1    1    2    0    0 -0.74757615707E-02  0.57364870648E-02  0.11925857477E-02  0.17130000026E+03  0.17130000000E+03 0.  1.
      622    1    1    2    0    0  0.14632038556E-02 -0.74079765742E-02  0.39793809755E+01  0.39795891707E+01  0.40000000000E-01 0.  1.
</event>
<event>
 5   0  0.7212170E+07  0.9118800E+02  0.7818608E-02  0.1180000E+00
       11   -1    0    0    0    0  0.00000000000E+00  0.00000000000E+00  0.39999999673E+01  0.40000000000E+01  0.51109989000E-03 0.  1.
     -623   -1    0    0    0    0  0.00000000000E+00  0.00000000000E+00  0.12525980253E-10  0.17130000000E+03  0.17130000000E+03 0. -1.
       11    1    1    2    0    0  0.16188552402E-02  0.49869982595E-03  0.10014848177E-01  0.10169945964E-01  0.51109989000E-03 0.  1.
     -623    1    1    2    0    0  0.51638547638E-03 -0.42654738944E-02  0.35798381272E-03  0.17130000005E+03  0.17130000000E+03 0. -1.
      622    1    1    2    0    0 -0.21352407166E-02  0.37667740685E-02  0.39896271354E+01  0.39898299998E+01  0.40000000000E-01 0.  1.
</event>
<event>
 5   0  0.7212170E+07  0.9118800E+02  0.7818608E-02  0.1180000E+00
       11   -1    0    0    0    0  0.00000000000E+00  0.00000000000E+00  0.39999999673E+01  0.40000000000E+01  0.51109989000E-03 0. -1.
     -623   -1    0    0    0    0  0.00000000000E+00  0.00000000000E+00  0.12525980253E-10  0.17130000000E+03  0.17130000000E+03 0.  1.
       11    1    1    2    0    0  0.21490785709E-02  0.64791931796E-02  0.21595427819E-01  0.22654408153E-01  0.51109989000E-03 0. -1.
     -623    1    1    2    0    0 -0.89080071185E-02 -0.94557066818E-03  0.12699237359E-02  0.17130000024E+03  0.17130000000E+03 0.  1.
      622    1    1    2    0    0  0.67589285475E-02 -0.55336225115E-02  0.39771346158E+01  0.39773453529E+01  0.40000000000E-01 0. -1.
</event>
<event>
 5   0  0.7212170E+07  0.9118800E+02  0.7818608E-02  0.1180000E+00
       11   -1    0    0    0    0  0.00000000000E+00  0.00000000000E+00  0.39999999673E+01  0.40000000000E+01  0.51109989000E-03 0. -1.
     -623   -1    0    0    0    0  0.00000000000E+00  0.00000000000E+00  0.12525980253E-10  0.17130000000E+03  0.17130000000E+03 0.  1.
       11    1    1    2    0    0  0.24097234439E-02 -0.18934514275E-02  0.29077098908E+00  0.29078758783E+00  0.51109989000E-03 0. -1.
     -623    1    1    2    0    0 -0.25009067376E-03 -0.23858339561E-03  0.23349362297E-03  0.17130000000E+03  0.17130000000E+03 0.  1.
      622    1    1    2    0    0 -0.21596327700E-02  0.21320348232E-02  0.37089954869E+01  0.37092124139E+01  0.40000000000E-01 0. -1.
</event>
<event>
 5   0  0.7212170E+07  0.9118800E+02  0.7818608E-02  0.1180000E+00
       11   -1    0    0    0    0  0.00000000000E+00  0.00000000000E+00  0.39999999673E+01  0.40000000000E+01  0.51109989000E-03 0. -1.
     -623   -1    0    0    0    0  0.00000000000E+00  0.00000000000E+00  0.12525980253E-10  0.17130000000E+03  0.17130000000E+03 0.  1.
       11    1    1    2    0    0  0.30593290472E-01  0.16665710835E-01  0.78213111626E+00  0.78290678857E+00  0.51109989000E-03 0. -1.
     -623    1    1    2    0    0 -0.13518173926E-01 -0.15901364046E-01  0.10710046367E-02  0.17130000127E+03  0.17130000000E+03 0.  1.
      622    1    1    2    0    0 -0.17075116546E-01 -0.76434678911E-03  0.32167978465E+01  0.32170919367E+01  0.40000000000E-01 0.  0.
</event>
<event>
 5   0  0.7212170E+07  0.9118800E+02  0.7818608E-02  0.1180000E+00
       11   -1    0    0    0    0  0.00000000000E+00  0.00000000000E+00  0.39999999673E+01  0.40000000000E+01  0.51109989000E-03 0.  1.
     -623   -1    0    0    0    0  0.00000000000E+00  0.00000000000E+00  0.12525980253E-10  0.17130000000E+03  0.17130000000E+03 0.  1.
       11    1    1    2    0    0  0.61566306001E-02 -0.21632682414E-01  0.47006163878E+00  0.47059970519E+00  0.51109989000E-03 0.  1.
     -623    1    1    2    0    0  0.34260495978E-02  0.24425568293E-01  0.78060096944E-03  0.17130000178E+03  0.17130000000E+03 0.  1.
      622    1    1    2    0    0 -0.95826801984E-02 -0.27928858824E-02  0.35291577282E+01  0.35293985180E+01  0.40000000000E-01 0.  1.
</event>
<event>
 5   0  0.7212170E+07  0.9118800E+02  0.7818608E-02  0.1180000E+00
       11   -1    0    0    0    0  0.00000000000E+00  0.00000000000E+00  0.39999999673E+01  0.40000000000E+01  0.51109989000E-03 0.  1.
     -623   -1    0    0    0    0  0.00000000000E+00  0.00000000000E+00  0.12525980253E-10  0.17130000000E+03  0.17130000000E+03 0.  1.
       11    1    1    2    0    0  0.26341777726E-01  0.45050679359E-02  0.10753805193E+01  0.10757126510E+01  0.51109989000E-03 0.  1.
     -623    1    1    2    0    0  0.12396392305E-02 -0.12887913644E-02  0.73754945816E-03  0.17130000001E+03  0.17130000000E+03 0.  1.
      622    1    1    2    0    0 -0.27581416957E-01 -0.32162765714E-02  0.29238818990E+01  0.29242873385E+01  0.40000000000E-01 0.  1.
</event>
<event>
 5   0  0.7212170E+07  0.9118800E+02  0.7818608E-02  0.1180000E+00
       11   -1    0    0    0    0  0.00000000000E+00  0.00000000000E+00  0.39999999673E+01  0.40000000000E+01  0.51109989000E-03 0. -1.
     -623   -1    0    0    0    0  0.00000000000E+00  0.00000000000E+00  0.12525980253E-10  0.17130000000E+03  0.17130000000E+03 0. -1.
       11    1    1    2    0    0  0.53726176549E-04 -0.52288551959E-03 -0.76518437372E-04  0.73713902180E-03  0.51109989000E-03 0.  1.
     -623    1    1    2    0    0 -0.50953197459E-03 -0.45792486548E-03  0.10138173088E-02  0.17130000000E+03  0.17130000000E+03 0. -1.
      622    1    1    2    0    0  0.45580579803E-03  0.98081038506E-03  0.39990626683E+01  0.39992628565E+01  0.40000000000E-01 0. -1.
</event>
<event>
 5   0  0.7212170E+07  0.9118800E+02  0.7818608E-02  0.1180000E+00
       11   -1    0    0    0    0  0.00000000000E+00  0.00000000000E+00  0.39999999673E+01  0.40000000000E+01  0.51109989000E-03 0. -1.
     -623   -1    0    0    0    0  0.00000000000E+00  0.00000000000E+00  0.12525980253E-10  0.17130000000E+03  0.17130000000E+03 0. -1.
       11    1    1    2    0    0  0.30076848254E-02 -0.12871653845E-01  0.13485993968E+01  0.13486642725E+01  0.51109989000E-03 0. -1.
     -623    1    1    2    0    0 -0.83462697433E-02  0.22275234923E-02  0.39355726258E-03  0.17130000022E+03  0.17130000000E+03 0. -1.
      622    1    1    2    0    0  0.53385849212E-02  0.10644130352E-01  0.26510070149E+01  0.26513355109E+01  0.40000000000E-01 0. -1.
</event>
<event>
 5   0  0.7212170E+07  0.9118800E+02  0.7818608E-02  0.1180000E+00
       11   -1    0    0    0    0  0.00000000000E+00  0.00000000000E+00  0.39999999673E+01  0.40000000000E+01  0.51109989000E-03 0.  1.
     -623   -1    0    0    0    0  0.00000000000E+00  0.00000000000E+00  0.12525980253E-10  0.17130000000E+03  0.17130000000E+03 0.  1.
       11    1    1    2    0    0  0.11511308435E-03 -0.47426023408E-03  0.23732322243E-03  0.74546576130E-03  0.51109989000E-03 0. -1.
     -623    1    1    2    0    0  0.36340071591E-03 -0.20851963195E-03  0.70824107470E-03  0.17130000000E+03  0.17130000000E+03 0.  1.
      622    1    1    2    0    0 -0.47851380025E-03  0.68277986601E-03  0.39990544029E+01  0.39992545321E+01  0.40000000000E-01 0.  1.
</event>
<event>
 5   0  0.7212170E+07  0.9118800E+02  0.7818608E-02  0.1180000E+00
       11   -1    0    0    0    0  0.00000000000E+00  0.00000000000E+00  0.39999999673E+01  0.40000000000E+01  0.51109989000E-03 0. -1.
     -623   -1    0    0    0    0  0.00000000000E+00  0.00000000000E+00  0.12525980253E-10  0.17130000000E+03  0.17130000000E+03 0.  1.
       11    1    1    2    0    0 -0.63793651957E-02 -0.44858155974E-03  0.68905273403E-01  0.69203290756E-01  0.51109989000E-03 0. -1.
     -623    1    1    2    0    0  0.11152065668E-02 -0.15502673040E-02  0.50555578907E-03  0.17130000001E+03  0.17130000000E+03 0.  1.
      622    1    1    2    0    0  0.52641586288E-02  0.19988488638E-02  0.39305891382E+01  0.39307966979E+01  0.40000000000E-01 0. -1.
</event>
<event>
 5   0  0.7212170E+07  0.9118800E+02  0.7818608E-02  0.1180000E+00
       11   -1    0    0    0    0  0.00000000000E+00  0.00000000000E+00  0.39999999673E+01  0.40000000000E+01  0.51109989000E-03 0. -1.
     -623   -1    0    0    0    0  0.00000000000E+00  0.00000000000E+00  0.12525980253E-10  0.17130000000E+03  0.17130000000E+03 0.  1.
       11    1    1    2    0    0 -0.37189847900E-02  0.62338968591E-04  0.58551340142E-01  0.58671589287E-01  0.51109989000E-03 0. -1.
     -623    1    1    2    0    0  0.54904261981E-03 -0.23311178219E-02  0.32514389496E-03  0.17130000002E+03  0.17130000000E+03 0.  1.
      622    1    1    2    0    0  0.31699421702E-02  0.22687788532E-02  0.39411234832E+01  0.39413283935E+01  0.40000000000E-01 0. -1.
</event>
<event>
 5   0  0.7212170E+07  0.9118800E+02  0.7818608E-02  0.1180000E+00
       11   -1    0    0    0    0  0.00000000000E+00  0.00000000000E+00  0.39999999673E+01  0.40000000000E+01  0.51109989000E-03 0.  1.
     -623   -1    0    0    0    0  0.00000000000E+00  0.00000000000E+00  0.12525980253E-10  0.17130000000E+03  0.17130000000E+03 0. -1.
       11    1    1    2    0    0 -0.36232667311E-02  0.12014160330E-02  0.89156466875E-01  0.89239611558E-01  0.51109989000E-03 0.  1.
     -623    1    1    2    0    0  0.21037606784E-01  0.15894429741E-01  0.36585524531E-03  0.17130000203E+03  0.17130000000E+03 0. -1.
      622    1    1    2    0    0 -0.17414340056E-01 -0.17095845776E-01  0.39104776458E+01  0.39107583594E+01  0.40000000000E-01 0.  1.
</event>
<event>
 5   0  0.7212170E+07  0.9118800E+02  0.7818608E-02  0.1180000E+00
       11   -1    0    0    0    0  0.00000000000E+00  0.00000000000E+00  0.39999999673E+01  0.40000000000E+01  0.51109989000E-03 0.  1.
     -623   -1    0    0    0    0  0.00000000000E+00  0.00000000000E+00  0.12525980253E-10  0.17130000000E+03  0.17130000000E+03 0.  1.
       11    1    1    2    0    0 -0.13690191385E-01  0.74637755628E-02  0.62185592631E-01  0.64112701080E-01  0.51109989000E-03 0.  1.
     -623    1    1    2    0    0 -0.86748249262E-05 -0.92699660335E-02  0.21548585335E-02  0.17130000026E+03  0.17130000000E+03 0.  1.
      622    1    1    2    0    0  0.13698866210E-01  0.18061904705E-02  0.39356595161E+01  0.39358870345E+01  0.40000000000E-01 0.  1.
</event>
<event>
 5   0  0.7212170E+07  0.9118800E+02  0.7818608E-02  0.1180000E+00
       11   -1    0    0    0    0  0.00000000000E+00  0.00000000000E+00  0.39999999673E+01  0.40000000000E+01  0.51109989000E-03 0. -1.
     -623   -1    0    0    0    0  0.00000000000E+00  0.00000000000E+00  0.12525980253E-10  0.17130000000E+03  0.17130000000E+03 0.  1.
       11    1    1    2    0    0 -0.59611881329E-02 -0.22307750610E-01  0.16053994615E+01  0.16055655900E+01  0.51109989000E-03 0. -1.
     -623    1    1    2    0    0 -0.30355110764E-03  0.12417741550E-01  0.52930306298E-03  0.17130000045E+03  0.17130000000E+03 0.  1.
      622    1    1    2    0    0  0.62647392406E-02  0.98900090587E-02  0.23940712033E+01  0.23944339593E+01  0.40000000000E-01 0. -1.
</event>
<event>
 5   0  0.7212170E+07  0.9118800E+02  0.7818608E-02  0.1180000E+00
       11   -1    0    0    0    0  0.00000000000E+00  0.00000000000E+00  0.39999999673E+01  0.40000000000E+01  0.51109989000E-03 0. -1.
     -623   -1    0    0    0    0  0.00000000000E+00  0.00000000000E+00  0.12525980253E-10  0.17130000000E+03  0.17130000000E+03 0.  1.
       11    1    1    2    0    0 -0.21866922871E-01  0.91867364598E-02  0.12549772411E+01  0.12552014560E+01  0.51109989000E-03 0. -1.
     -623    1    1    2    0    0  0.50196365279E-02  0.58664477028E-02  0.60882595722E-03  0.17130000018E+03  0.17130000000E+03 0.  1.
      622    1    1    2    0    0  0.16847286343E-01 -0.15053184163E-01  0.27444139006E+01  0.27447983691E+01  0.40000000000E-01 0. -1.
</event>
<event>
 5   0  0.7212170E+07  0.9118800E+02  0.7818608E-02  0.1180000E+00
       11   -1    0    0    0    0  0.00000000000E+00  0.00000000000E+00  0.39999999673E+01  0.40000000000E+01  0.51109989000E-03 0. -1.
     -623   -1    0    0    0    0  0.00000000000E+00  0.00000000000E+00  0.12525980253E-10  0.17130000000E+03  0.17130000000E+03 0. -1.
       11    1    1    2    0    0 -0.53020724029E-02 -0.39532169902E-01  0.14323064301E+01  0.14328617782E+01  0.51109989000E-03 0. -1.
     -623    1    1    2    0    0  0.44700267302E-02  0.24527989181E-02  0.11350109471E-02  0.17130000008E+03  0.17130000000E+03 0. -1.
      622    1    1    2    0    0  0.83204567283E-03  0.37079370984E-01  0.25665585263E+01  0.25671381422E+01  0.40000000000E-01 0. -1.
</event>
<event>
 5   0  0.7212170E+07  0.9118800E+02  0.7818608E-02  0.1180000E+00
       11   -1    0    0    0    0  0.00000000000E+00  0.00000000000E+00  0.39999999673E+01  0.40000000000E+01  0.51109989000E-03 0.  1.
     -623   -1    0    0    0    0  0.00000000000E+00  0.00000000000E+00  0.12525980253E-10  0.17130000000E+03  0.17130000000E+03 0. -1.
       11    1    1    2    0    0  0.13427026676E-02 -0.17853396641E-02  0.57821875866E-01  0.57867269159E-01  0.51109989000E-03 0.  1.
     -623    1    1    2    0    0 -0.50945739131E-03  0.62079398732E-03  0.24856385910E-03  0.17130000000E+03  0.17130000000E+03 0. -1.
      622    1    1    2    0    0 -0.83324527628E-03  0.11645456769E-02  0.39419295274E+01  0.39421327285E+01  0.40000000000E-01 0.  1.
</event>
<event>
 5   0  0.7212170E+07  0.9118800E+02  0.7818608E-02  0.1180000E+00
       11   -1    0    0    0    0  0.00000000000E+00  0.00000000000E+00  0.39999999673E+01  0.40000000000E+01  0.51109989000E-03 0. -1.
     -623   -1    0    0    0    0  0.00000000000E+00  0.00000000000E+00  0.12525980253E-10  0.17130000000E+03  0.17130000000E+03 0. -1.
       11    1    1    2    0    0  0.39141107436E-01  0.17103118749E-01  0.13753273927E+01  0.13759906400E+01  0.51109989000E-03 0. -1.
     -623    1    1    2    0    0  0.27516842345E-02 -0.25664002318E-02  0.13429051706E-02  0.17130000005E+03  0.17130000000E+03 0. -1.
      622    1    1    2    0    0 -0.41892791670E-01 -0.14536718517E-01  0.26233296697E+01  0.26240093137E+01  0.40000000000E-01 0.  1.
</event>
<event>
 5   0  0.7212170E+07  0.9118800E+02  0.7818608E-02  0.1180000E+00
       11   -1    0    0    0    0  0.00000000000E+00  0.00000000000E+00  0.39999999673E+01  0.40000000000E+01  0.51109989000E-03 0. -1.
     -623   -1    0    0    0    0  0.00000000000E+00  0.00000000000E+00  0.12525980253E-10  0.17130000000E+03  0.17130000000E+03 0. -1.
       11    1    1    2    0    0  0.27896616840E-02 -0.28602119379E-02  0.50848009583E+00  0.50849604925E+00  0.51109989000E-03 0. -1.
     -623    1    1    2    0    0  0.11811321940E-02  0.40382519737E-03  0.24818286846E-03  0.17130000000E+03  0.17130000000E+03 0. -1.
      622    1    1    2    0    0 -0.39707938784E-02  0.24563867404E-02  0.34912716900E+01  0.34915039474E+01  0.40000000000E-01 0. -1.
</event>
<event>
 5   0  0.7212170E+07  0.9118800E+02  0.7818608E-02  0.1180000E+00
       11   -1    0    0    0    0  0.00000000000E+00  0.00000000000E+00  0.39999999673E+01  0.40000000000E+01  0.51109989000E-03 0.  1.
     -623   -1    0    0    0    0  0.00000000000E+00  0.00000000000E+00  0.12525980253E-10  0.17130000000E+03  0.17130000000E+03 0.  1.
       11    1    1    2    0    0  0.11650604398E-01 -0.42880462957E-01  0.19345149854E+01  0.19350253127E+01  0.51109989000E-03 0.  1.
     -623    1    1    2    0    0  0.62086971369E-04 -0.29299082697E-02  0.14393057234E-02  0.17130000003E+03  0.17130000000E+03 0.  1.
      622    1    1    2    0    0 -0.11712691370E-01  0.45810371227E-01  0.20640456763E+01  0.20649746562E+01  0.40000000000E-01 0.  1.
</event>
<event>
 5   0  0.7212170E+07  0.9118800E+02  0.7818608E-02  0.1180000E+00
       11   -1    0    0    0    0  0.00000000000E+00  0.00000000000E+00  0.39999999673E+01  0.40000000000E+01  0.51109989000E-03 0.  1.
     -623   -1    0    0    0    0  0.00000000000E+00  0.00000000000E+00  0.12525980253E-10  0.17130000000E+03  0.17130000000E+03 0.  1.
       11    1    1    2    0    0  0.22675492973E-02  0.12732961241E-04  0.28156802237E-01  0.28252587090E-01  0.51109989000E-03 0.  1.
     -623    1    1    2    0    0 -0.38061638151E-03  0.27115071566E-02  0.29858472778E-03  0.17130000002E+03  0.17130000000E+03 0.  1.
      622    1    1    2    0    0 -0.18869329157E-02 -0.27242401181E-02  0.39715445808E+01  0.39717473911E+01  0.40000000000E-01 0.  1.
</event>
<event>
 5   0  0.7212170E+07  0.9118800E+02  0.7818608E-02  0.1180000E+00
       11   -1    0    0    0    0  0.00000000000E+00  0.00000000000E+00  0.39999999673E+01  0.40000000000E+01  0.51109989000E-03 0.  1.
     -623   -1    0    0    0    0  0.00000000000E+00  0.00000000000E+00  0.12525980253E-10  0.17130000000E+03  0.17130000000E+03 0.  1.
       11    1    1    2    0    0 -0.48006989492E-02 -0.39232646567E-02  0.11162070730E+00  0.11179392755E+00  0.51109989000E-03 0.  1.
     -623    1    1    2    0    0  0.20674953285E-04  0.63075692104E-03  0.38327752338E-03  0.17130000000E+03  0.17130000000E+03 0.  1.
      622    1    1    2    0    0  0.47800239960E-02  0.32925077356E-02  0.38879959825E+01  0.38882060708E+01  0.40000000000E-01 0.  1.
</event>
<event>
 5   0  0.7212170E+07  0.9118800E+02  0.7818608E-02  0.1180000E+00
       11   -1    0    0    0    0  0.00000000000E+00  0.00000000000E+00  0.39999999673E+01  0.40000000000E+01  0.51109989000E-03 0. -1.
     -623   -1    0    0    0    0  0.00000000000E+00  0.00000000000E+00  0.12525980253E-10  0.17130000000E+03  0.17130000000E+03 0. -1.
       11    1    1    2    0    0  0.40687788259E-02 -0.28877276214E-03  0.26783745909E-01  0.27097391366E-01  0.51109989000E-03 0. -1.
     -623    1    1    2    0    0 -0.15430210422E-02  0.18188772142E-01  0.55708518184E-03  0.17130000097E+03  0.17130000000E+03 0. -1.
      622    1    1    2    0    0 -0.25257577834E-02 -0.17899999382E-01  0.39726591368E+01  0.39729016357E+01  0.40000000000E-01 0. -1.
</event>
<event>
 5   0  0.7212170E+07  0.9118800E+02  0.7818608E-02  0.1180000E+00
       11   -1    0    0    0    0  0.00000000000E+00  0.00000000000E+00  0.39999999673E+01  0.40000000000E+01  0.51109989000E-03 0. -1.
     -623   -1    0    0    0    0  0.00000000000E+00  0.00000000000E+00  0.12525980253E-10  0.17130000000E+03  0.17130000000E+03 0.  1.
       11    1    1    2    0    0  0.47076312188E-03  0.49881218111E-03  0.35594655970E-01  0.35604932077E-01  0.51109989000E-03 0. -1.
     -623    1    1    2    0    0 -0.31956082146E-03 -0.89539920645E-05  0.21207841779E-03  0.17130000000E+03  0.17130000000E+03 0.  1.
      622    1    1    2    0    0 -0.15120230031E-03 -0.48985818904E-03  0.39641932344E+01  0.39643950689E+01  0.40000000000E-01 0. -1.
</event>
<event>
 5   0  0.7212170E+07  0.9118800E+02  0.7818608E-02  0.1180000E+00
       11   -1    0    0    0    0  0.00000000000E+00  0.00000000000E+00  0.39999999673E+01  0.40000000000E+01  0.51109989000E-03 0.  1.
     -623   -1    0    0    0    0  0.00000000000E+00  0.00000000000E+00  0.12525980253E-10  0.17130000000E+03  0.17130000000E+03 0. -1.
       11    1    1    2    0    0  0.27084550355E-02 -0.21958458665E-03  0.22860113145E-01  0.23026722349E-01  0.51109989000E-03 0.  1.
     -623    1    1    2    0    0 -0.65288174485E-03 -0.18214527076E-03  0.36829294045E-03  0.17130000000E+03  0.17130000000E+03 0. -1.
      622    1    1    2    0    0 -0.20555732906E-02  0.40172985742E-03  0.39767715615E+01  0.39769732762E+01  0.40000000000E-01 0.  1.
</event>
<event>
 5   0  0.7212170E+07  0.9118800E+02  0.7818608E-02  0.1180000E+00
       11   -1    0    0    0    0  0.00000000000E+00  0.00000000000E+00  0.39999999673E+01  0.40000000000E+01  0.51109989000E-03 0. -1.
     -623   -1    0    0    0    0  0.00000000000E+00  0.00000000000E+00  0.12525980253E-10  0.17130000000E+03  0.17130000000E+03 0.  1.
       11    1    1    2    0    0 -0.45580572329E-03 -0.21783413298E-03  0.96306017740E-02  0.96573766725E-02  0.51109989000E-03 0. -1.
     -623    1    1    2    0    0  0.36394037572E-03  0.10717906820E-03  0.22723449535E-03  0.17130000000E+03  0.17130000000E+03 0.  1.
      622    1    1    2    0    0  0.91865347697E-04  0.11065506482E-03  0.39901421297E+01  0.39903426213E+01  0.40000000000E-01 0. -1.
</event>
<event>
 5   0  0.7212170E+07  0.9118800E+02  0.7818608E-02  0.1180000E+00
       11   -1    0    0    0    0  0.00000000000E+00  0.00000000000E+00  0.39999999673E+01  0.40000000000E+01  0.51109989000E-03 0.  1.
     -623   -1    0    0    0    0  0.00000000000E+00  0.00000000000E+00  0.12525980253E-10  0.17130000000E+03  0.17130000000E+03 0. -1.
       11    1    1    2    0    0  0.28411989336E-03 -0.18617180299E-03  0.22868408483E-02  0.23677517220E-02  0.51109989000E-03 0.  1.
     -623    1    1    2    0    0 -0.35182016190E-05  0.21839314669E-03  0.28101204862E-03  0.17130000000E+03  0.17130000000E+03 0. -1.
      622    1    1    2    0    0 -0.28060169174E-03 -0.32221343662E-04  0.39974321139E+01  0.39976322473E+01  0.40000000000E-01 0.  1.
</event>
<event>
 5   0  0.7212170E+07  0.9118800E+02  0.7818608E-02  0.1180000E+00
       11   -1    0    0    0    0  0.00000000000E+00  0.00000000000E+00  0.39999999673E+01  0.40000000000E+01  0.51109989000E-03 0.  1.
     -623   -1    0    0    0    0  0.00000000000E+00  0.00000000000E+00  0.12525980253E-10  0.17130000000E+03  0.17130000000E+03 0.  1.
       11    1    1    2    0    0  0.10783050814E-02  0.54282971537E-02  0.15959159457E-01  0.16899264644E-01  0.51109989000E-03 0.  1.
     -623    1    1    2    0    0 -0.12135471717E-02 -0.43266358243E-03  0.11440700603E-02  0.17130000001E+03  0.17130000000E+03 0.  1.
      622    1    1    2    0    0  0.13524209033E-03 -0.49956335713E-02  0.39828967379E+01  0.39831007268E+01  0.40000000000E-01 0.  1.
</event>
<event>
 5   0  0.7212170E+07  0.9118800E+02  0.7818608E-02  0.1180000E+00
       11   -1    0    0    0    0  0.00000000000E+00  0.00000000000E+00  0.39999999673E+01  0.40000000000E+01  0.51109989000E-03 0.  1.
     -623   -1    0    0    0    0  0.00000000000E+00  0.00000000000E+00  0.12525980253E-10  0.17130000000E+03  0.17130000000E+03 0. -1.
       11    1    1    2    0    0 -0.72456030011E-03 -0.58368158772E-03  0.63111468648E-01  0.63120395831E-01  0.51109989000E-03 0.  1.
     -623    1    1    2    0    0 -0.34243424678E-04 -0.23368425744E-03  0.21226468684E-03  0.17130000000E+03  0.17130000000E+03 0. -1.
      622    1    1    2    0    0  0.75880372481E-03  0.81736584524E-03  0.39366762355E+01  0.39368796053E+01  0.40000000000E-01 0.  1.
</event>
<event>
 5   0  0.7212170E+07  0.9118800E+02  0.7818608E-02  0.1180000E+00
       11   -1    0    0    0    0  0.00000000000E+00  0.00000000000E+00  0.39999999673E+01  0.40000000000E+01  0.51109989000E-03 0. -1.
     -623   -1    0    0    0    0  0.00000000000E+00  0.00000000000E+00  0.12525980253E-10  0.17130000000E+03  0.17130000000E+03 0.  1.
       11    1    1    2    0    0 -0.24989408123E-03 -0.51695935656E-03  0.14769481193E-01  0.14789472331E-01  0.51109989000E-03 0. -1.
     -623    1    1    2    0    0  0.42408460542E-04  0.25199719207E-03  0.22072031511E-03  0.17130000000E+03  0.17130000000E+03 0.  1.
      622    1    1    2    0    0  0.20748562069E-03  0.26496216451E-03  0.39850097656E+01  0.39852105271E+01  0.40000000000E-01 0. -1.
</event>
<event>
 5   0  0.7212170E+07  0.9118800E+02  0.7818608E-02  0.1180000E+00
       11   -1    0    0    0    0  0.00000000000E+00  0.00000000000E+00  0.39999999673E+01  0.40000000000E+01  0.51109989000E-03 0.  1.
     -623   -1    0    0    0    0  0.00000000000E+00  0.00000000000E+00  0.12525980253E-10  0.17130000000E+03  0.17130000000E+03 0. -1.
       11    1    1    2    0    0 -0.66155242246E-02  0.20517830179E-01  0.14820204187E+01  0.14821772934E+01  0.51109989000E-03 0.  1.
     -623    1    1    2    0    0  0.17156971712E-01 -0.18922019844E-01  0.49907802163E-03  0.17130000191E+03  0.17130000000E+03 0. -1.
      622    1    1    2    0    0 -0.10541447489E-01 -0.15958103328E-02  0.25174804711E+01  0.25178208020E+01  0.40000000000E-01 0.  1.
</event>
<event>
 5   0  0.7212170E+07  0.9118800E+02  0.7818608E-02  0.1180000E+00
       11   -1    0    0    0    0  0.00000000000E+00  0.00000000000E+00  0.39999999673E+01  0.40000000000E+01  0.51109989000E-03 0.  1.
     -623   -1    0    0    0    0  0.00000000000E+00  0.00000000000E+00  0.12525980253E-10  0.17130000000E+03  0.17130000000E+03 0. -1.
       11    1    1    2    0    0 -0.30965759925E-02 -0.11677945253E-01  0.23342060520E+00  0.23373361620E+00  0.51109989000E-03 0.  1.
     -623    1    1    2    0    0  0.23805360379E-02 -0.67700832447E-02  0.57079979966E-03  0.17130000015E+03  0.17130000000E+03 0. -1.
      622    1    1    2    0    0  0.71603995395E-03  0.18448028499E-01  0.37660085634E+01  0.37662662336E+01  0.40000000000E-01 0.  1.
</event>
<event>
 5   0  0.7212170E+07  0.9118800E+02  0.7818608E-02  0.1180000E+00
       11   -1    0    0    0    0  0.00000000000E+00  0.00000000000E+00  0.39999999673E+01  0.40000000000E+01  0.51109989000E-03 0.  1.
     -623   -1    0    0    0    0  0.00000000000E+00  0.00000000000E+00  0.12525980253E-10  0.17130000000E+03  0.17130000000E+03 0.  1.
       11    1    1    2    0    0 -0.70184329562E-03  0.16503467207E-03  0.13846572258E-02  0.16426561372E-02  0.51109989000E-03 0. -1.
     -623    1    1    2    0    0 -0.68591607308E-03  0.12754154594E-03  0.45830702868E-03  0.17130000000E+03  0.17130000000E+03 0.  1.
      622    1    1    2    0    0  0.13877593687E-02 -0.29257621801E-03  0.39981570033E+01  0.39983573420E+01  0.40000000000E-01 0.  1.
</event>
<event>
 5   0  0.7212170E+07  0.9118800E+02  0.7818608E-02  0.1180000E+00
       11   -1    0    0    0    0  0.00000000000E+00  0.00000000000E+00  0.39999999673E+01  0.40000000000E+01  0.51109989000E-03 0.  1.
     -623   -1    0    0    0    0  0.00000000000E+00  0.00000000000E+00  0.12525980253E-10  0.17130000000E+03  0.17130000000E+03 0.  1.
       11    1    1    2    0    0 -0.23008293698E-01 -0.32133223505E-01  0.30729375987E+01  0.30731917727E+01  0.51109989000E-03 0.  1.
     -623    1    1    2    0    0  0.30439743654E-02  0.32284729055E-01  0.13360624988E-02  0.17130000307E+03  0.17130000000E+03 0.  1.
      622    1    1    2    0    0  0.19964319332E-01 -0.15150555174E-03  0.92572630641E+00  0.92680515286E+00  0.40000000000E-01 0.  1.
</event>
<event>
 5   0  0.7212170E+07  0.9118800E+02  0.7818608E-02  0.1180000E+00
       11   -1    0    0    0    0  0.00000000000E+00  0.00000000000E+00  0.39999999673E+01  0.40000000000E+01  0.51109989000E-03 0.  1.
     -623   -1    0    0    0    0  0.00000000000E+00  0.00000000000E+00  0.12525980253E-10  0.17130000000E+03  0.17130000000E+03 0. -1.
       11    1    1    2    0    0 -0.15701031443E-02  0.32939464452E-02  0.11560625930E+00  0.11566496323E+00  0.51109989000E-03 0.  1.
     -623    1    1    2    0    0 -0.32184015816E-03 -0.70445974029E-03  0.26595813129E-03  0.17130000000E+03  0.17130000000E+03 0. -1.
      622    1    1    2    0    0  0.18919433025E-02 -0.25894867049E-02  0.38841277500E+01  0.38843350348E+01  0.40000000000E-01 0.  1.
</event>
<event>
 5   0  0.7212170E+07  0.9118800E+02  0.7818608E-02  0.1180000E+00
       11   -1    0    0    0    0  0.00000000000E+00  0.00000000000E+00  0.39999999673E+01  0.40000000000E+01  0.51109989000E-03 0.  1.
     -623   -1    0    0    0    0  0.00000000000E+00  0.00000000000E+00  0.12525980253E-10  0.17130000000E+03  0.17130000000E+03 0. -1.
       11    1    1    2    0    0 -0.13800172670E-01  0.14753856583E-02  0.23507013562E+01  0.23507423824E+01  0.51109989000E-03 0.  1.
     -623    1    1    2    0    0  0.30475658985E-02 -0.31987294987E-03  0.56162736292E-03  0.17130000003E+03  0.17130000000E+03 0. -1.
      622    1    1    2    0    0  0.10752606772E-01 -0.11555127085E-02  0.16487369837E+01  0.16492575891E+01  0.40000000000E-01 0.  1.
</event>
<event>
 5   0  0.7212170E+07  0.9118800E+02  0.7818608E-02  0.1180000E+00
       11   -1    0    0    0    0  0.00000000000E+00  0.00000000000E+00  0.39999999673E+01  0.40000000000E+01  0.51109989000E-03 0. -1.
     -623   -1    0    0    0    0  0.00000000000E+00  0.00000000000E+00  0.12525980253E-10  0.17130000000E+03  0.17130000000E+03 0. -1.
       11    1    1    2    0    0  0.25121180342E-02 -0.58319260309E-02  0.40756479866E+00  0.40761458319E+00  0.51109989000E-03 0. -1.
     -623    1    1    2    0    0 -0.48982628109E-03  0.62724175905E-03  0.27679390248E-03  0.17130000000E+03  0.17130000000E+03 0. -1.
      622    1    1    2    0    0 -0.20222917531E-02  0.52046842718E-02  0.35921583750E+01  0.35923854149E+01  0.40000000000E-01 0.  0.
</event>
<event>
 5   0  0.7212170E+07  0.9118800E+02  0.7818608E-02  0.1180000E+00
       11   -1    0    0    0    0  0.00000000000E+00  0.00000000000E+00  0.39999999673E+01  0.40000000000E+01  0.51109989000E-03 0. -1.
     -623   -1    0    0    0    0  0.00000000000E+00  0.00000000000E+00  0.12525980253E-10  0.17130000000E+03  0.17130000000E+03 0.  1.
       11    1    1    2    0    0 -0.29460199342E-02 -0.56391155678E-03  0.32624668960E-01  0.32766252113E-01  0.51109989000E-03 0. -1.
     -623    1    1    2    0    0  0.21831929545E-02 -0.11693194993E-01  0.36262993646E-03  0.17130000041E+03  0.17130000000E+03 0.  1.
      622    1    1    2    0    0  0.76282697929E-03  0.12257106552E-01  0.39670126692E+01  0.39672333352E+01  0.40000000000E-01 0. -1.
</event>
<event>
 5   0  0.7212170E+07  0.9118800E+02  0.7818608E-02  0.1180000E+00
       11   -1    0    0    0    0  0.00000000000E+00  0.00000000000E+00  0.39999999673E+01  0.40000000000E+01  0.51109989000E-03 0.  1.
     -623   -1    0    0    0    0  0.00000000000E+00  0.00000000000E+00  0.12525980253E-10  0.17130000000E+03  0.17130000000E+03 0. -1.
       11    1    1    2    0    0  0.28067829237E-02 -0.11105821444E-02  0.26754523664E-01  0.26929114034E-01  0.51109989000E-03 0.  1.
     -623    1    1    2    0    0 -0.31742717085E-02  0.17544958172E-02  0.37602640278E-03  0.17130000004E+03  0.17130000000E+03 0. -1.
      622    1    1    2    0    0  0.36748878551E-03 -0.64391367310E-03  0.39728694181E+01  0.39730708480E+01  0.40000000000E-01 0.  1.
</event>
<event>
 5   0  0.7212170E+07  0.9118800E+02  0.7818608E-02  0.1180000E+00
       11   -1    0    0    0    0  0.00000000000E+00  0.00000000000E+00  0.39999999673E+01  0.40000000000E+01  0.51109989000E-03 0.  1.
     -623   -1    0    0    0    0  0.00000000000E+00  0.00000000000E+00  0.12525980253E-10  0.17130000000E+03  0.17130000000E+03 0. -1.
       11    1    1    2    0    0 -0.31479937824E-02 -0.15607092128E-03  0.21584547751E-01  0.21819444257E-01  0.51109989000E-03 0.  1.
     -623    1    1    2    0    0  0.75414191977E-02  0.64917298265E-03  0.43859040157E-03  0.17130000017E+03  0.17130000000E+03 0. -1.
      622    1    1    2    0    0 -0.43934254161E-02 -0.49310206143E-03  0.39779768296E+01  0.39781803884E+01  0.40000000000E-01 0.  1.
</event>
<event>
 5   0  0.7212170E+07  0.9118800E+02  0.7818608E-02  0.1180000E+00
       11   -1    0    0    0    0  0.00000000000E+00  0.00000000000E+00  0.39999999673E+01  0.40000000000E+01  0.51109989000E-03 0. -1.
     -623   -1    0    0    0    0  0.00000000000E+00  0.00000000000E+00  0.12525980253E-10  0.17130000000E+03  0.17130000000E+03 0. -1.
       11    1    1    2    0    0  0.23410987534E-04  0.91905357127E-03  0.19192083618E-02  0.21885592007E-02  0.51109989000E-03 0. -1.
     -623    1    1    2    0    0 -0.42285073984E-03 -0.47907212796E-03  0.46947869868E-03  0.17130000000E+03  0.17130000000E+03 0. -1.
      622    1    1    2    0    0  0.39943975229E-03 -0.43998144332E-03  0.39976112802E+01  0.39978114388E+01  0.40000000000E-01 0. -1.
</event>
<event>
 5   0  0.7212170E+07  0.9118800E+02  0.7818608E-02  0.1180000E+00
       11   -1    0    0    0    0  0.00000000000E+00  0.00000000000E+00  0.39999999673E+01  0.40000000000E+01  0.51109989000E-03 0. -1.
     -623   -1    0    0    0    0  0.00000000000E+00  0.00000000000E+00  0.12525980253E-10  0.17130000000E+03  0.17130000000E+03 0.  1.
       11    1    1    2    0    0 -0.84741231015E-02 -0.30902521170E-02  0.63197649215E-01  0.63840148103E-01  0.51109989000E-03 0. -1.
     -623    1    1    2    0    0  0.88742464350E-02  0.18257401341E-01  0.87616403920E-03  0.17130000121E+03  0.17130000000E+03 0.  1.
      622    1    1    2    0    0 -0.40012333415E-03 -0.15167149225E-01  0.39359261544E+01  0.39361586472E+01  0.40000000000E-01 0. -1.
</event>
<event>
 5   0  0.7212170E+07  0.9118800E+02  0.7818608E-02  0.1180000E+00
       11   -1    0    0    0    0  0.00000000000E+00  0.00000000000E+00  0.39999999673E+01  0.40000000000E+01  0.51109989000E-03 0. -1.
     -623   -1    0    0    0    0  0.00000000000E+00  0.00000000000E+00  0.12525980253E-10  0.17130000000E+03  0.17130000000E+03 0. -1.
       11    1    1    2    0    0  0.98519053864E-02  0.50353394455E-02  0.25419698022E-01  0.27727909292E-01  0.51109989000E-03 0. -1.
     -623    1    1    2    0    0  0.28283875294E-02  0.89158152354E-02  0.25545949617E-02  0.17130000027E+03  0.17130000000E+03 0. -1.
      622    1    1    2    0    0 -0.12680292916E-01 -0.13951154681E-01  0.39720256744E+01  0.39722718163E+01  0.40000000000E-01 0. -1.
</event>
<event>
 5   0  0.7212170E+07  0.9118800E+02  0.7818608E-02  0.1180000E+00
       11   -1    0    0    0    0  0.00000000000E+00  0.00000000000E+00  0.39999999673E+01  0.40000000000E+01  0.51109989000E-03 0.  1.
     -623   -1    0    0    0    0  0.00000000000E+00  0.00000000000E+00  0.12525980253E-10  0.17130000000E+03  0.17130000000E+03 0. -1.
       11    1    1    2    0    0 -0.10517750079E-02 -0.58049911807E-02  0.16921922434E+00  0.16932280196E+00  0.51109989000E-03 0.  1.
     -623    1    1    2    0    0 -0.95890199103E-03  0.19944463859E-03  0.31702345112E-03  0.17130000000E+03  0.17130000000E+03 0. -1.
      622    1    1    2    0    0  0.20106769989E-02  0.56055465421E-02  0.38304637195E+01  0.38306771949E+01  0.40000000000E-01 0.  1.
</event>
<event>
 5   0  0.7212170E+07  0.9118800E+02  0.7818608E-02  0.1180000E+00
       11   -1    0    0    0    0  0.00000000000E+00  0.00000000000E+00  0.39999999673E+01  0.40000000000E+01  0.51109989000E-03 0. -1.
     -623   -1    0    0    0    0  0.00000000000E+00  0.00000000000E+00  0.12525980253E-10  0.17130000000E+03  0.17130000000E+03 0. -1.
       11    1    1    2    0    0  0.13447031292E-02  0.88455613530E-03  0.10554739926E-01  0.10688986110E-01  0.51109989000E-03 0. -1.
     -623    1    1    2    0    0 -0.10988928743E-02 -0.99092264945E-03  0.33477017573E-03  0.17130000001E+03  0.17130000000E+03 0. -1.
      622    1    1    2    0    0 -0.24581025477E-03  0.10636651431E-03  0.39891104579E+01  0.39893110078E+01  0.40000000000E-01 0. -1.
</event>
<event>
 5   0  0.7212170E+07  0.9118800E+02  0.7818608E-02  0.1180000E+00
       11   -1    0    0    0    0  0.00000000000E+00  0.00000000000E+00  0.39999999673E+01  0.40000000000E+01  0.51109989000E-03 0. -1.
     -623   -1    0    0    0    0  0.00000000000E+00  0.00000000000E+00  0.12525980253E-10  0.17130000000E+03  0.17130000000E+03 0. -1.
       11    1    1    2    0    0  0.14255109620E-02 -0.19508883348E-02  0.35056819714E-01  0.35143703253E-01  0.51109989000E-03 0. -1.
     -623    1    1    2    0    0 -0.17368476039E-02  0.37018210488E-03  0.28896558124E-03  0.17130000001E+03  0.17130000000E+03 0. -1.
      622    1    1    2    0    0  0.31133664191E-03  0.15807062299E-02  0.39646541820E+01  0.39648562872E+01  0.40000000000E-01 0. -1.
</event>
<event>
 5   0  0.7212170E+07  0.9118800E+02  0.7818608E-02  0.1180000E+00
       11   -1    0    0    0    0  0.00000000000E+00  0.00000000000E+00  0.39999999673E+01  0.40000000000E+01  0.51109989000E-03 0.  1.
     -623   -1    0    0    0    0  0.00000000000E+00  0.00000000000E+00  0.12525980253E-10  0.17130000000E+03  0.17130000000E+03 0. -1.
       11    1    1    2    0    0  0.61678903936E-02  0.44570370471E-02  0.13446999372E-01  0.15459335896E-01  0.51109989000E-03 0.  1.
     -623    1    1    2    0    0 -0.19710054095E-02 -0.20392816421E-02  0.22160666725E-02  0.17130000004E+03  0.17130000000E+03 0. -1.
      622    1    1    2    0    0 -0.41968849840E-02 -0.24177554049E-02  0.39843369015E+01  0.39845406265E+01  0.40000000000E-01 0.  1.
</event>
<event>
 5   0  0.7212170E+07  0.9118800E+02  0.7818608E-02  0.1180000E+00
       11   -1    0    0    0    0  0.00000000000E+00  0.00000000000E+00  0.39999999673E+01  0.40000000000E+01  0.51109989000E-03 0. -1.
     -623   -1    0    0    0    0  0.00000000000E+00  0.00000000000E+00  0.12525980253E-10  0.17130000000E+03  0.17130000000E+03 0. -1.
       11    1    1    2    0    0 -0.24806171889E-02 -0.16191693199E-03  0.33311318008E-02  0.41877608459E-02  0.51109989000E-03 0. -1.
     -623    1    1    2    0    0 -0.18639970386E-02  0.57300977358E-02  0.10631622035E-02  0.17130000011E+03  0.17130000000E+03 0. -1.
      622    1    1    2    0    0  0.43446142276E-02 -0.55681808043E-02  0.39956056737E+01  0.39958121302E+01  0.40000000000E-01 0. -1.
</event>
<event>
 5   0  0.7212170E+07  0.9118800E+02  0.7818608E-02  0.1180000E+00
       11   -1    0    0    0    0  0.00000000000E+00  0.00000000000E+00  0.39999999673E+01  0.40000000000E+01  0.51109989000E-03 0. -1.
     -623   -1    0    0    0    0  0.00000000000E+00  0.00000000000E+00  0.12525980253E-10  0.17130000000E+03  0.17130000000E+03 0.  1.
       11    1    1    2    0    0 -0.55456454588E-02  0.24279162116E-01  0.30535956742E+00  0.30637388684E+00  0.51109989000E-03 0. -1.
     -623    1    1    2    0    0 -0.11477503442E-01 -0.29233968000E-01  0.12763205584E-02  0.17130000288E+03  0.17130000000E+03 0.  1.
      622    1    1    2    0    0  0.17023148901E-01  0.49548058842E-02  0.36933640795E+01  0.36936232295E+01  0.40000000000E-01 0. -1.
</event>
<event>
 5   0  0.7212170E+07  0.9118800E+02  0.7818608E-02  0.1180000E+00
       11   -1    0    0    0    0  0.00000000000E+00  0.00000000000E+00  0.39999999673E+01  0.40000000000E+01  0.51109989000E-03 0. -1.
     -623   -1    0    0    0    0  0.00000000000E+00  0.00000000000E+00  0.12525980253E-10  0.17130000000E+03  0.17130000000E+03 0. -1.
       11    1    1    2    0    0 -0.71015680292E-02 -0.18220898554E-03  0.21714154815E+00  0.21725832234E+00  0.51109989000E-03 0. -1.
     -623    1    1    2    0    0  0.70498412468E-03  0.15531727781E-02  0.33390013621E-03  0.17130000001E+03  0.17130000000E+03 0. -1.
      622    1    1    2    0    0  0.63965839046E-02 -0.13709637924E-02  0.37825245187E+01  0.37827416685E+01  0.40000000000E-01 0. -1.
</event>
<event>
 5   0  0.7212170E+07  0.9118800E+02  0.7818608E-02  0.1180000E+00
       11   -1    0    0    0    0  0.00000000000E+00  0.00000000000E+00  0.39999999673E+01  0.40000000000E+01  0.51109989000E-03 0.  1.
     -623   -1    0    0    0    0  0.00000000000E+00  0.00000000000E+00  0.12525980253E-10  0.17130000000E+03  0.17130000000E+03 0.  1.
       11    1    1    2    0    0  0.12562757381E-01  0.61411333406E-02  0.84837483534E+00  0.84849022319E+00  0.51109989000E-03 0.  1.
     -623    1    1    2    0    0 -0.49382312047E-02 -0.28698239928E-03  0.38394544617E-03  0.17130000007E+03  0.17130000000E+03 0.  1.
      622    1    1    2    0    0 -0.76245261759E-02 -0.58541509413E-02  0.31512411871E+01  0.31515097054E+01  0.40000000000E-01 0.  1.
</event>
<event>
 5   0  0.7212170E+07  0.9118800E+02  0.7818608E-02  0.1180000E+00
       11   -1    0    0    0    0  0.00000000000E+00  0.00000000000E+00  0.39999999673E+01  0.40000000000E+01  0.51109989000E-03 0. -1.
     -623   -1    0    0    0    0  0.00000000000E+00  0.00000000000E+00  0.12525980253E-10  0.17130000000E+03  0.17130000000E+03 0.  1.
       11    1    1    2    0    0 -0.40019297615E-01 -0.27782342084E-01  0.15886386483E+01  0.15893855475E+01  0.51109989000E-03 0. -1.
     -623    1    1    2    0    0  0.59679473945E-03  0.23768112998E-02  0.15351124867E-02  0.17130000002E+03  0.17130000000E+03 0.  1.
      622    1    1    2    0    0  0.39422502875E-01  0.25405530785E-01  0.24098262067E+01  0.24106144281E+01  0.40000000000E-01 0. -1.
</event>
<event>
 5   0  0.7212170E+07  0.9118800E+02  0.7818608E-02  0.1180000E+00
       11   -1    0    0    0    0  0.00000000000E+00  0.00000000000E+00  0.39999999673E+01  0.40000000000E+01  0.51109989000E-03 0.  1.
     -623   -1    0    0    0    0  0.00000000000E+00  0.00000000000E+00  0.12525980253E-10  0.17130000000E+03  0.17130000000E+03 0.  1.
       11    1    1    2    0    0 -0.30396898413E-02  0.19282275582E-01  0.10080103016E+01  0.10081994223E+01  0.51109989000E-03 0.  1.
     -623    1    1    2    0    0 -0.75776216994E-02 -0.53161604492E-02  0.50819067088E-03  0.17130000025E+03  0.17130000000E+03 0.  1.
      622    1    1    2    0    0  0.10617311541E-01 -0.13966115133E-01  0.29914814752E+01  0.29918003269E+01  0.40000000000E-01 0.  1.
</event>
<event>
 5   0  0.7212170E+07  0.9118800E+02  0.7818608E-02  0.1180000E+00
       11   -1    0    0    0    0  0.00000000000E+00  0.00000000000E+00  0.39999999673E+01  0.40000000000E+01  0.51109989000E-03 0.  1.
     -623   -1    0    0    0    0  0.00000000000E+00  0.00000000000E+00  0.12525980253E-10  0.17130000000E+03  0.17130000000E+03 0.  1.
       11    1    1    2    0    0  0.59678940646E-02  0.33895380577E-01  0.83499766538E+00  0.83570681162E+00  0.51109989000E-03 0.  1.
     -623    1    1    2    0    0 -0.49192392401E-02 -0.33148705196E-01  0.96548762204E-03  0.17130000328E+03  0.17130000000E+03 0.  1.
      622    1    1    2    0    0 -0.10486548243E-02 -0.74667538057E-03  0.31640368145E+01  0.31642899078E+01  0.40000000000E-01 0.  0.
</event>
<event>
 5   0  0.7212170E+07  0.9118800E+02  0.7818608E-02  0.1180000E+00
       11   -1    0    0    0    0  0.00000000000E+00  0.00000000000E+00  0.39999999673E+01  0.40000000000E+01  0.51109989000E-03 0. -1.
     -623   -1    0    0    0    0  0.00000000000E+00  0.00000000000E+00  0.12525980253E-10  0.17130000000E+03  0.17130000000E+03 0.  1.
       11    1    1    2    0    0 -0.69333071932E-02 -0.36751844507E-02  0.56969154835E+00  0.56974581983E+00  0.51109989000E-03 0. -1.
     -623    1    1    2    0    0  0.95995967579E-02  0.44842110647E-02  0.28892529234E-03  0.17130000033E+03  0.17130000000E+03 0.  1.
      622    1    1    2    0    0 -0.26662895679E-02 -0.80902661548E-03  0.34300194950E+01  0.34302538536E+01  0.40000000000E-01 0.  0.
</event>
<event>
 5   0  0.7212170E+07  0.9118800E+02  0.7818608E-02  0.1180000E+00
       11   -1    0    0    0    0  0.00000000000E+00  0.00000000000E+00  0.39999999673E+01  0.40000000000E+01  0.51109989000E-03 0.  1.
     -623   -1    0    0    0    0  0.00000000000E+00  0.00000000000E+00  0.12525980253E-10  0.17130000000E+03  0.17130000000E+03 0. -1.
       11    1    1    2    0    0 -0.81492317294E-03 -0.99623573890E-02  0.10215200515E+00  0.10264115180E+00  0.51109989000E-03 0.  1.
     -623    1    1    2    0    0 -0.60502207149E-02  0.11327224899E-02  0.71054797277E-03  0.17130000011E+03  0.17130000000E+03 0. -1.
      622    1    1    2    0    0  0.68651438881E-02  0.88296348990E-02  0.38971374144E+01  0.38973587363E+01  0.40000000000E-01 0.  1.
</event>
<event>
 5   0  0.7212170E+07  0.9118800E+02  0.7818608E-02  0.1180000E+00
       11   -1    0    0    0    0  0.00000000000E+00  0.00000000000E+00  0.39999999673E+01  0.40000000000E+01  0.51109989000E-03 0. -1.
     -623   -1    0    0    0    0  0.00000000000E+00  0.00000000000E+00  0.12525980253E-10  0.17130000000E+03  0.17130000000E+03 0. -1.
       11    1    1    2    0    0 -0.16204947290E-01  0.57986251242E-02  0.28142747582E+00  0.28195373687E+00  0.51109989000E-03 0. -1.
     -623    1    1    2    0    0 -0.15483175613E-01 -0.88698040561E-02  0.87864752804E-03  0.17130000093E+03  0.17130000000E+03 0. -1.
      622    1    1    2    0    0  0.31688122901E-01  0.30711789307E-02  0.37176938435E+01  0.37180453310E+01  0.40000000000E-01 0. -1.
</event>
<event>
 5   0  0.7212170E+07  0.9118800E+02  0.7818608E-02  0.1180000E+00
       11   -1    0    0    0    0  0.00000000000E+00  0.00000000000E+00  0.39999999673E+01  0.40000000000E+01  0.51109989000E-03 0. -1.
     -623   -1    0    0    0    0  0.00000000000E+00  0.00000000000E+00  0.12525980253E-10  0.17130000000E+03  0.17130000000E+03 0. -1.
       11    1    1    2    0    0  0.43618896934E-01  0.53873636820E-03  0.77146373014E+00  0.77269621880E+00  0.51109989000E-03 0. -1.
     -623    1    1    2    0    0 -0.77875256190E-02  0.55839201120E-02  0.16853670177E-02  0.17130000028E+03  0.17130000000E+03 0. -1.
      622    1    1    2    0    0 -0.35831371315E-01 -0.61226564806E-02  0.32268508705E+01  0.32273035052E+01  0.40000000000E-01 0. -1.
</event>
<event>
 5   0  0.7212170E+07  0.9118800E+02  0.7818608E-02  0.1180000E+00
       11   -1    0    0    0    0  0.00000000000E+00  0.00000000000E+00  0.39999999673E+01  0.40000000000E+01  0.51109989000E-03 0. -1.
     -623   -1    0    0    0    0  0.00000000000E+00  0.00000000000E+00  0.12525980253E-10  0.17130000000E+03  0.17130000000E+03 0. -1.
       11    1    1    2    0    0 -0.10949941809E-02 -0.15698651557E-02  0.28423884553E-02  0.34646621902E-02  0.51109989000E-03 0. -1.
     -623    1    1    2    0    0 -0.29296744932E-02  0.12304056435E-02  0.82449196773E-03  0.17130000003E+03  0.17130000000E+03 0. -1.
      622    1    1    2    0    0  0.40246686743E-02  0.33945951212E-03  0.39963330871E+01  0.39965353065E+01  0.40000000000E-01 0. -1.
</event>
<event>
 5   0  0.7212170E+07  0.9118800E+02  0.7818608E-02  0.1180000E+00
       11   -1    0    0    0    0  0.00000000000E+00  0.00000000000E+00  0.39999999673E+01  0.40000000000E+01  0.51109989000E-03 0. -1.
     -623   -1    0    0    0    0  0.00000000000E+00  0.00000000000E+00  0.12525980253E-10  0.17130000000E+03  0.17130000000E+03 0. -1.
       11    1    1    2    0    0 -0.34041364856E-02 -0.50664574068E-01  0.84498915674E+00  0.84651368769E+00  0.51109989000E-03 0. -1.
     -623    1    1    2    0    0  0.12760740801E-01  0.19524626814E-01  0.19474439366E-02  0.17130000160E+03  0.17130000000E+03 0. -1.
      622    1    1    2    0    0 -0.93566043155E-02  0.31139947254E-01  0.31530633667E+01  0.31534847133E+01  0.40000000000E-01 0. -1.
</event>
<event>
 5   0  0.7212170E+07  0.9118800E+02  0.7818608E-02  0.1180000E+00
       11   -1    0    0    0    0  0.00000000000E+00  0.00000000000E+00  0.39999999673E+01  0.40000000000E+01  0.51109989000E-03 0.  1.
     -623   -1    0    0    0    0  0.00000000000E+00  0.00000000000E+00  0.12525980253E-10  0.17130000000E+03  0.17130000000E+03 0.  1.
       11    1    1    2    0    0 -0.10533732983E-01  0.18539450521E-01  0.13422991170E+01  0.13424685663E+01  0.51109989000E-03 0.  1.
     -623    1    1    2    0    0 -0.16837268927E-02 -0.10999331075E-02  0.55579400365E-03  0.17130000001E+03  0.17130000000E+03 0.  1.
      622    1    1    2    0    0  0.12217459876E-01 -0.17439517413E-01  0.26571450569E+01  0.26575314216E+01  0.40000000000E-01 0.  1.
</event>
<event>
 5   0  0.7212170E+07  0.9118800E+02  0.7818608E-02  0.1180000E+00
       11   -1    0    0    0    0  0.00000000000E+00  0.00000000000E+00  0.39999999673E+01  0.40000000000E+01  0.51109989000E-03 0. -1.
     -623   -1    0    0    0    0  0.00000000000E+00  0.00000000000E+00  0.12525980253E-10  0.17130000000E+03  0.17130000000E+03 0.  1.
       11    1    1    2    0    0 -0.50509219628E-02 -0.84543020117E-03  0.11241655756E+00  0.11253430678E+00  0.51109989000E-03 0. -1.
     -623    1    1    2    0    0  0.36052611010E-02  0.23826166490E-02  0.32413919213E-03  0.17130000005E+03  0.17130000000E+03 0.  1.
      622    1    1    2    0    0  0.14456608614E-02 -0.15371864481E-02  0.38872592710E+01  0.38874656388E+01  0.40000000000E-01 0. -1.
</event>
<event>
 5   0  0.7212170E+07  0.9118800E+02  0.7818608E-02  0.1180000E+00
       11   -1    0    0    0    0  0.00000000000E+00  0.00000000000E+00  0.39999999673E+01  0.40000000000E+01  0.51109989000E-03 0.  1.
     -623   -1    0    0    0    0  0.00000000000E+00  0.00000000000E+00  0.12525980253E-10  0.17130000000E+03  0.17130000000E+03 0. -1.
       11    1    1    2    0    0 -0.11757200784E-01 -0.17198868533E-01  0.63650557675E+00  0.63684664034E+00  0.51109989000E-03 0.  1.
     -623    1    1    2    0    0 -0.21830101720E-02  0.89667395563E-03  0.64733610048E-03  0.17130000002E+03  0.17130000000E+03 0. -1.
      622    1    1    2    0    0  0.13940210956E-01  0.16302194577E-01  0.33628470553E+01  0.33631533429E+01  0.40000000000E-01 0.  1.
</event>
<event>
 5   0  0.7212170E+07  0.9118800E+02  0.7818608E-02  0.1180000E+00
       11   -1    0    0    0    0  0.00000000000E+00  0.00000000000E+00  0.39999999673E+01  0.40000000000E+01  0.51109989000E-03 0.  1.
     -623   -1    0    0    0    0  0.00000000000E+00  0.00000000000E+00  0.12525980253E-10  0.17130000000E+03  0.17130000000E+03 0.  1.
       11    1    1    2    0    0 -0.22905467800E-03 -0.28360089890E-04  0.16851562828E-02  0.17760194636E-02  0.51109989000E-03 0. -1.
     -623    1    1    2    0    0 -0.23581995928E-03 -0.37020249625E-03  0.29097209076E-03  0.17130000000E+03  0.17130000000E+03 0.  1.
      622    1    1    2    0    0  0.46487463730E-03  0.39856258618E-03  0.39980238394E+01  0.39982239801E+01  0.40000000000E-01 0.  1.
</event>
<event>
 5   0  0.7212170E+07  0.9118800E+02  0.7818608E-02  0.1180000E+00
       11   -1    0    0    0    0  0.00000000000E+00  0.00000000000E+00  0.39999999673E+01  0.40000000000E+01  0.51109989000E-03 0. -1.
     -623   -1    0    0    0    0  0.00000000000E+00  0.00000000000E+00  0.12525980253E-10  0.17130000000E+03  0.17130000000E+03 0.  1.
       11    1    1    2    0    0  0.15593095317E-02  0.54913393057E-03  0.65719606368E-01  0.65742382665E-01  0.51109989000E-03 0. -1.
     -623    1    1    2    0    0 -0.11235936154E-02  0.28369761641E-03  0.22620731297E-03  0.17130000000E+03  0.17130000000E+03 0.  1.
      622    1    1    2    0    0 -0.43571591624E-03 -0.83283154700E-03  0.39340541539E+01  0.39342576135E+01  0.40000000000E-01 0. -1.
</event>
<event>
 5   0  0.7212170E+07  0.9118800E+02  0.7818608E-02  0.1180000E+00
       11   -1    0    0    0    0  0.00000000000E+00  0.00000000000E+00  0.39999999673E+01  0.40000000000E+01  0.51109989000E-03 0.  1.
     -623   -1    0    0    0    0  0.00000000000E+00  0.00000000000E+00  0.12525980253E-10  0.17130000000E+03  0.17130000000E+03 0.  1.
       11    1    1    2    0    0 -0.10311808430E-01  0.34407570666E-02  0.92741644167E+00  0.92748029074E+00  0.51109989000E-03 0.  1.
     -623    1    1    2    0    0  0.23778111697E-02  0.10564659661E-02  0.33775638596E-03  0.17130000002E+03  0.17130000000E+03 0.  1.
      622    1    1    2    0    0  0.79339972602E-02 -0.44972230328E-02  0.30722457699E+01  0.30725196898E+01  0.40000000000E-01 0.  1.
</event>
<event>
 5   0  0.7212170E+07  0.9118800E+02  0.7818608E-02  0.1180000E+00
       11   -1    0    0    0    0  0.00000000000E+00  0.00000000000E+00  0.39999999673E+01  0.40000000000E+01  0.51109989000E-03 0. -1.
     -623   -1    0    0    0    0  0.00000000000E+00  0.00000000000E+00  0.12525980253E-10  0.17130000000E+03  0.17130000000E+03 0. -1.
       11    1    1    2    0    0  0.10269032963E-01  0.19769176920E-01  0.15320827277E+00  0.15482024887E+00  0.51109989000E-03 0. -1.
     -623    1    1    2    0    0  0.10244315406E-01  0.20318903305E-01  0.20852368695E-02  0.17130000152E+03  0.17130000000E+03 0. -1.
      622    1    1    2    0    0 -0.20513348369E-01 -0.40088080224E-01  0.38447064577E+01  0.38451782270E+01  0.40000000000E-01 0. -1.
</event>
<event>
 5   0  0.7212170E+07  0.9118800E+02  0.7818608E-02  0.1180000E+00
       11   -1    0    0    0    0  0.00000000000E+00  0.00000000000E+00  0.39999999673E+01  0.40000000000E+01  0.51109989000E-03 0.  1.
     -623   -1    0    0    0    0  0.00000000000E+00  0.00000000000E+00  0.12525980253E-10  0.17130000000E+03  0.17130000000E+03 0. -1.
       11    1    1    2    0    0 -0.17545877086E-03  0.23589824396E-02  0.76324575478E-02  0.80069479358E-02  0.51109989000E-03 0.  1.
     -623    1    1    2    0    0 -0.31676593783E-02 -0.59512691387E-02  0.57801388795E-03  0.17130000013E+03  0.17130000000E+03 0. -1.
      622    1    1    2    0    0  0.33431181495E-02  0.35922866997E-02  0.39917894963E+01  0.39919929188E+01  0.40000000000E-01 0.  1.
</event>
<event>
 5   0  0.7212170E+07  0.9118800E+02  0.7818608E-02  0.1180000E+00
       11   -1    0    0    0    0  0.00000000000E+00  0.00000000000E+00  0.39999999673E+01  0.40000000000E+01  0.51109989000E-03 0. -1.
     -623   -1    0    0    0    0  0.00000000000E+00  0.00000000000E+00  0.12525980253E-10  0.17130000000E+03  0.17130000000E+03 0. -1.
       11    1    1    2    0    0 -0.10149800108E-02  0.22619247465E-02  0.35369850631E-01  0.35460316479E-01  0.51109989000E-03 0. -1.
     -623    1    1    2    0    0  0.27964675673E-03  0.72807238827E-04  0.29298341000E-03  0.17130000000E+03  0.17130000000E+03 0. -1.
      622    1    1    2    0    0  0.73533325407E-03 -0.23347319853E-02  0.39643371333E+01  0.39645396830E+01  0.40000000000E-01 0. -1.
</event>
<event>
 5   0  0.7212170E+07  0.9118800E+02  0.7818608E-02  0.1180000E+00
       11   -1    0    0    0    0  0.00000000000E+00  0.00000000000E+00  0.39999999673E+01  0.40000000000E+01  0.51109989000E-03 0. -1.
     -623   -1    0    0    0    0  0.00000000000E+00  0.00000000000E+00  0.12525980253E-10  0.17130000000E+03  0.17130000000E+03 0. -1.
       11    1    1    2    0    0  0.54681900902E-03  0.30574430290E-01  0.16945451118E+01  0.16948210797E+01  0.51109989000E-03 0. -1.
     -623    1    1    2    0    0 -0.53190532707E-02 -0.78972150759E-02  0.73977614696E-03  0.17130000027E+03  0.17130000000E+03 0. -1.
      622    1    1    2    0    0  0.47722342621E-02 -0.22677215214E-01  0.23047150796E+01  0.23051786544E+01  0.40000000000E-01 0. -1.
</event>
<event>
 5   0  0.7212170E+07  0.9118800E+02  0.7818608E-02  0.1180000E+00
       11   -1    0    0    0    0  0.00000000000E+00  0.00000000000E+00  0.39999999673E+01  0.40000000000E+01  0.51109989000E-03 0. -1.
     -623   -1    0    0    0    0  0.00000000000E+00  0.00000000000E+00  0.12525980253E-10  0.17130000000E+03  0.17130000000E+03 0. -1.
       11    1    1    2    0    0  0.30854189302E-01  0.68846731570E-02  0.12526839899E+01  0.12530829260E+01  0.51109989000E-03 0. -1.
     -623    1    1    2    0    0 -0.36525164372E-01 -0.10841665105E-01  0.70309834225E-03  0.17130000424E+03  0.17130000000E+03 0. -1.
      622    1    1    2    0    0  0.56709750808E-02  0.39569919516E-02  0.27466128803E+01  0.27469128366E+01  0.40000000000E-01 0. -1.
</event>
<event>
 5   0  0.7212170E+07  0.9118800E+02  0.7818608E-02  0.1180000E+00
       11   -1    0    0    0    0  0.00000000000E+00  0.00000000000E+00  0.39999999673E+01  0.40000000000E+01  0.51109989000E-03 0. -1.
     -623   -1    0    0    0    0  0.00000000000E+00  0.00000000000E+00  0.12525980253E-10  0.17130000000E+03  0.17130000000E+03 0. -1.
       11    1    1    2    0    0  0.25901356077E-02 -0.19679596650E-01  0.25852375030E+01  0.25853137534E+01  0.51109989000E-03 0. -1.
     -623    1    1    2    0    0  0.32744754087E-03  0.10960242242E-02  0.76695544568E-03  0.17130000001E+03  0.17130000000E+03 0. -1.
      622    1    1    2    0    0 -0.29175831486E-02  0.18583572426E-01  0.14139955098E+01  0.14146862420E+01  0.40000000000E-01 0. -1.
</event>
<event>
 5   0  0.7212170E+07  0.9118800E+02  0.7818608E-02  0.1180000E+00
       11   -1    0    0    0    0  0.00000000000E+00  0.00000000000E+00  0.39999999673E+01  0.40000000000E+01  0.51109989000E-03 0. -1.
     -623   -1    0    0    0    0  0.00000000000E+00  0.00000000000E+00  0.12525980253E-10  0.17130000000E+03  0.17130000000E+03 0.  1.
       11    1    1    2    0    0 -0.72836242070E-02 -0.31308523196E-01  0.46957066192E+00  0.47066988704E+00  0.51109989000E-03 0. -1.
     -623    1    1    2    0    0 -0.25620131987E-02  0.51941237091E-02  0.14363309185E-02  0.17130000010E+03  0.17130000000E+03 0.  1.
      622    1    1    2    0    0  0.98456374059E-02  0.26114399487E-01  0.35289929748E+01  0.35293300093E+01  0.40000000000E-01 0. -1.
</event>
<event>
 5   0  0.7212170E+07  0.9118800E+02  0.7818608E-02  0.1180000E+00
       11   -1    0    0    0    0  0.00000000000E+00  0.00000000000E+00  0.39999999673E+01  0.40000000000E+01  0.51109989000E-03 0.  1.
     -623   -1    0    0    0    0  0.00000000000E+00  0.00000000000E+00  0.12525980253E-10  0.17130000000E+03  0.17130000000E+03 0. -1.
       11    1    1    2    0    0  0.60094810445E-02 -0.10614354555E-01  0.94643143553E-01  0.95427271939E-01  0.51109989000E-03 0.  1.
     -623    1    1    2    0    0 -0.73775086992E-02 -0.19865688276E-02  0.10097362464E-02  0.17130000017E+03  0.17130000000E+03 0. -1.
      622    1    1    2    0    0  0.13680276542E-02  0.12600923382E-01  0.39043470873E+01  0.39045725544E+01  0.40000000000E-01 0.  1.
</event>
<event>
 5   0  0.7212170E+07  0.9118800E+02  0.7818608E-02  0.1180000E+00
       11   -1    0    0    0    0  0.00000000000E+00  0.00000000000E+00  0.39999999673E+01  0.40000000000E+01  0.51109989000E-03 0.  1.
     -623   -1    0    0    0    0  0.00000000000E+00  0.00000000000E+00  0.12525980253E-10  0.17130000000E+03  0.17130000000E+03 0.  1.
       11    1    1    2    0    0 -0.85220138303E-03 -0.55602307536E-02  0.53672042356E-01  0.53968433061E-01  0.51109989000E-03 0.  1.
     -623    1    1    2    0    0 -0.15149472841E-02  0.78035968370E-02  0.50063154972E-03  0.17130000019E+03  0.17130000000E+03 0.  1.
      622    1    1    2    0    0  0.23671486673E-02 -0.22433660844E-02  0.39458272939E+01  0.39460313822E+01  0.40000000000E-01 0.  1.
</event>
<event>
 5   0  0.7212170E+07  0.9118800E+02  0.7818608E-02  0.1180000E+00
       11   -1    0    0    0    0  0.00000000000E+00  0.00000000000E+00  0.39999999673E+01  0.40000000000E+01  0.51109989000E-03 0.  1.
     -623   -1    0    0    0    0  0.00000000000E+00  0.00000000000E+00  0.12525980253E-10  0.17130000000E+03  0.17130000000E+03 0. -1.
       11    1    1    2    0    0 -0.56030135651E-03 -0.23269246480E-03  0.87347884093E-02  0.87707374289E-02  0.51109989000E-03 0.  1.
     -623    1    1    2    0    0 -0.10990634436E-02 -0.73128895949E-03  0.23682754276E-03  0.17130000001E+03  0.17130000000E+03 0. -1.
      622    1    1    2    0    0  0.16593648002E-02  0.96398142436E-03  0.39910283518E+01  0.39912292577E+01  0.40000000000E-01 0.  1.
</event>
<event>
 5   0  0.7212170E+07  0.9118800E+02  0.7818608E-02  0.1180000E+00
       11   -1    0    0    0    0  0.00000000000E+00  0.00000000000E+00  0.39999999673E+01  0.40000000000E+01  0.51109989000E-03 0.  1.
     -623   -1    0    0    0    0  0.00000000000E+00  0.00000000000E+00  0.12525980253E-10  0.17130000000E+03  0.17130000000E+03 0.  1.
       11    1    1    2    0    0 -0.39002316646E-01  0.19970536399E-01  0.45705815960E+00  0.45915403244E+00  0.51109989000E-03 0.  1.
     -623    1    1    2    0    0  0.89491875409E-02 -0.21578947584E-01  0.24513073420E-02  0.17130000161E+03  0.17130000000E+03 0.  1.
      622    1    1    2    0    0  0.30053129105E-01  0.16084111854E-02  0.35404905005E+01  0.35408443572E+01  0.40000000000E-01 0.  1.
</event>
<event>
 5   0  0.7212170E+07  0.9118800E+02  0.7818608E-02  0.1180000E+00
       11   -1    0    0    0    0  0.00000000000E+00  0.00000000000E+00  0.39999999673E+01  0.40000000000E+01  0.51109989000E-03 0.  1.
     -623   -1    0    0    0    0  0.00000000000E+00  0.00000000000E+00  0.12525980253E-10  0.17130000000E+03  0.17130000000E+03 0.  1.
       11    1    1    2    0    0 -0.43296746395E-01  0.17605664975E-01  0.22523920843E+01  0.22528770340E+01  0.51109989000E-03 0.  1.
     -623    1    1    2    0    0  0.20460947839E-01  0.10460828165E-01  0.13192319899E-02  0.17130000155E+03  0.17130000000E+03 0.  1.
      622    1    1    2    0    0  0.22835798553E-01 -0.28066493141E-01  0.17462886515E+01  0.17471214200E+01  0.40000000000E-01 0.  1.
</event>
<event>
 5   0  0.7212170E+07  0.9118800E+02  0.7818608E-02  0.1180000E+00
       11   -1    0    0    0    0  0.00000000000E+00  0.00000000000E+00  0.39999999673E+01  0.40000000000E+01  0.51109989000E-03 0. -1.
     -623   -1    0    0    0    0  0.00000000000E+00  0.00000000000E+00  0.12525980253E-10  0.17130000000E+03  0.17130000000E+03 0.  1.
       11    1    1    2    0    0  0.24438435589E-02  0.30540688605E-04  0.32759961482E-02  0.41190627495E-02  0.51109989000E-03 0. -1.
     -623    1    1    2    0    0  0.45881153673E-03 -0.12061157566E-02  0.10444804359E-02  0.17130000001E+03  0.17130000000E+03 0.  1.
      622    1    1    2    0    0 -0.29026550956E-02  0.11755750680E-02  0.39956794909E+01  0.39958809293E+01  0.40000000000E-01 0. -1.
</event>
<event>
 5   0  0.7212170E+07  0.9118800E+02  0.7818608E-02  0.1180000E+00
       11   -1    0    0    0    0  0.00000000000E+00  0.00000000000E+00  0.39999999673E+01  0.40000000000E+01  0.51109989000E-03 0. -1.
     -623   -1    0    0    0    0  0.00000000000E+00  0.00000000000E+00  0.12525980253E-10  0.17130000000E+03  0.17130000000E+03 0. -1.
       11    1    1    2    0    0 -0.21158886127E-01 -0.11766290416E-01  0.48279617258E+00  0.48340309218E+00  0.51109989000E-03 0. -1.
     -623    1    1    2    0    0  0.92625435157E-02 -0.34184920705E-02  0.88758400918E-03  0.17130000029E+03  0.17130000000E+03 0. -1.
      622    1    1    2    0    0  0.11896342611E-01  0.15184782486E-01  0.35163162109E+01  0.35165966211E+01  0.40000000000E-01 0. -1.
</event>
<event>
 5   0  0.7212170E+07  0.9118800E+02  0.7818608E-02  0.1180000E+00
       11   -1    0    0    0    0  0.00000000000E+00  0.00000000000E+00  0.39999999673E+01  0.40000000000E+01  0.51109989000E-03 0. -1.
     -623   -1    0    0    0    0  0.00000000000E+00  0.00000000000E+00  0.12525980253E-10  0.17130000000E+03  0.17130000000E+03 0.  1.
       11    1    1    2    0    0  0.22028018983E-02  0.99475691893E-02  0.62712535918E-01  0.63536838554E-01  0.51109989000E-03 0. -1.
     -623    1    1    2    0    0 -0.33987570247E-02 -0.64169697060E-02  0.10294254261E-02  0.17130000016E+03  0.17130000000E+03 0.  1.
      622    1    1    2    0    0  0.11959551264E-02 -0.35305994833E-02  0.39362580060E+01  0.39364630044E+01  0.40000000000E-01 0.  0.
</event>
<event>
 5   0  0.7212170E+07  0.9118800E+02  0.7818608E-02  0.1180000E+00
       11   -1    0    0    0    0  0.00000000000E+00  0.00000000000E+00  0.39999999673E+01  0.40000000000E+01  0.51109989000E-03 0.  1.
     -623   -1    0    0    0    0  0.00000000000E+00  0.00000000000E+00  0.12525980253E-10  0.17130000000E+03  0.17130000000E+03 0. -1.
       11    1    1    2    0    0 -0.39804144145E-03  0.32554462102E-03  0.13190257555E-01  0.13210167817E-01  0.51109989000E-03 0.  1.
     -623    1    1    2    0    0 -0.36354441177E-03  0.51550622461E-04  0.22063648505E-03  0.17130000000E+03  0.17130000000E+03 0. -1.
      622    1    1    2    0    0  0.76158585324E-03 -0.37709524348E-03  0.39865890736E+01  0.39867898319E+01  0.40000000000E-01 0.  1.
</event>
<event>
 5   0  0.7212170E+07  0.9118800E+02  0.7818608E-02  0.1180000E+00
       11   -1    0    0    0    0  0.00000000000E+00  0.00000000000E+00  0.39999999673E+01  0.40000000000E+01  0.51109989000E-03 0. -1.
     -623   -1    0    0    0    0  0.00000000000E+00  0.00000000000E+00  0.12525980253E-10  0.17130000000E+03  0.17130000000E+03 0. -1.
       11    1    1    2    0    0  0.49817831126E-02 -0.15798897434E-02  0.23446819708E-01  0.24027667221E-01  0.51109989000E-03 0. -1.
     -623    1    1    2    0    0  0.52135439489E-05 -0.17372943448E-03  0.78554495144E-03  0.17130000000E+03  0.17130000000E+03 0. -1.
      622    1    1    2    0    0 -0.49869966565E-02  0.17536191779E-02  0.39757676032E+01  0.39759723314E+01  0.40000000000E-01 0. -1.
</event>
<event>
 5   0  0.7212170E+07  0.9118800E+02  0.7818608E-02  0.1180000E+00
       11   -1    0    0    0    0  0.00000000000E+00  0.00000000000E+00  0.39999999673E+01  0.40000000000E+01  0.51109989000E-03 0. -1.
     -623   -1    0    0    0    0  0.00000000000E+00  0.00000000000E+00  0.12525980253E-10  0.17130000000E+03  0.17130000000E+03 0. -1.
       11    1    1    2    0    0 -0.29987471800E-02 -0.84608408756E-02  0.35168542621E+00  0.35180033903E+00  0.51109989000E-03 0. -1.
     -623    1    1    2    0    0 -0.83406871051E-02 -0.53338180775E-02  0.37816555811E-03  0.17130000029E+03  0.17130000000E+03 0. -1.
      622    1    1    2    0    0  0.11339434286E-01  0.13794658954E-01  0.36479363761E+01  0.36481993749E+01  0.40000000000E-01 0.  0.
</event>
<event>
 5   0  0.7212170E+07  0.9118800E+02  0.7818608E-02  0.1180000E+00
       11   -1    0    0    0    0  0.00000000000E+00  0.00000000000E+00  0.39999999673E+01  0.40000000000E+01  0.51109989000E-03 0.  1.
     -623   -1    0    0    0    0  0.00000000000E+00  0.00000000000E+00  0.12525980253E-10  0.17130000000E+03  0.17130000000E+03 0. -1.
       11    1    1    2    0    0  0.21185813303E-02  0.19422633319E-02  0.20627187551E-01  0.20832735371E-01  0.51109989000E-03 0.  1.
     -623    1    1    2    0    0  0.18062427985E-02  0.35627791562E-02  0.41235834705E-03  0.17130000005E+03  0.17130000000E+03 0. -1.
      622    1    1    2    0    0 -0.39248241290E-02 -0.55050424885E-02  0.39789604219E+01  0.39791672180E+01  0.40000000000E-01 0.  1.
</event>
<event>
 5   0  0.7212170E+07  0.9118800E+02  0.7818608E-02  0.1180000E+00
       11   -1    0    0    0    0  0.00000000000E+00  0.00000000000E+00  0.39999999673E+01  0.40000000000E+01  0.51109989000E-03 0. -1.
     -623   -1    0    0    0    0  0.00000000000E+00  0.00000000000E+00  0.12525980253E-10  0.17130000000E+03  0.17130000000E+03 0.  1.
       11    1    1    2    0    0 -0.16973064992E-01  0.31694404597E-01  0.81497864623E+00  0.81577146018E+00  0.51109989000E-03 0. -1.
     -623    1    1    2    0    0 -0.52415163832E-02 -0.66795913686E-02  0.12200086202E-02  0.17130000021E+03  0.17130000000E+03 0.  1.
      622    1    1    2    0    0  0.22214581375E-01 -0.25014813229E-01  0.31838013123E+01  0.31842283249E+01  0.40000000000E-01 0. -1.
</event>
<event>
 5   0  0.7212170E+07  0.9118800E+02  0.7818608E-02  0.1180000E+00
       11   -1    0    0    0    0  0.00000000000E+00  0.00000000000E+00  0.39999999673E+01  0.40000000000E+01  0.51109989000E-03 0.  1.
     -623   -1    0    0    0    0  0.00000000000E+00  0.00000000000E+00  0.12525980253E-10  0.17130000000E+03  0.17130000000E+03 0.  1.
       11    1    1    2    0    0 -0.29110721810E-02 -0.69269072055E-03  0.11739174056E-01  0.12125328544E-01  0.51109989000E-03 0.  1.
     -623    1    1    2    0    0  0.21392816103E-03  0.17884557668E-02  0.58780816764E-03  0.17130000001E+03  0.17130000000E+03 0.  1.
      622    1    1    2    0    0  0.26971440200E-02 -0.10957650467E-02  0.39876729861E+01  0.39878746619E+01  0.40000000000E-01 0.  1.
</event>
<event>
 5   0  0.7212170E+07  0.9118800E+02  0.7818608E-02  0.1180000E+00
       11   -1    0    0    0    0  0.00000000000E+00  0.00000000000E+00  0.39999999673E+01  0.40000000000E+01  0.51109989000E-03 0.  1.
     -623   -1    0    0    0    0  0.00000000000E+00  0.00000000000E+00  0.12525980253E-10  0.17130000000E+03  0.17130000000E+03 0. -1.
       11    1    1    2    0    0  0.46214185726E-02  0.14064668491E-01  0.24508318170E+00  0.24553044533E+00  0.51109989000E-03 0.  1.
     -623    1    1    2    0    0 -0.21611715772E-02  0.13786514746E-02  0.69290668898E-03  0.17130000002E+03  0.17130000000E+03 0. -1.
      622    1    1    2    0    0 -0.24602469955E-02 -0.15443319965E-01  0.37542238789E+01  0.37544695340E+01  0.40000000000E-01 0.  1.
</event>
<event>
 5   0  0.7212170E+07  0.9118800E+02  0.7818608E-02  0.1180000E+00
       11   -1    0    0    0    0  0.00000000000E+00  0.00000000000E+00  0.39999999673E+01  0.40000000000E+01  0.51109989000E-03 0.  1.
     -623   -1    0    0    0    0  0.00000000000E+00  0.00000000000E+00  0.12525980253E-10  0.17130000000E+03  0.17130000000E+03 0. -1.
       11    1    1    2    0    0  0.64679688716E-03 -0.18558023748E-02  0.16696498872E-01  0.16819531692E-01  0.51109989000E-03 0.  1.
     -623    1    1    2    0    0 -0.54475648111E-03 -0.43367144860E-03  0.32451081266E-03  0.17130000000E+03  0.17130000000E+03 0. -1.
      622    1    1    2    0    0 -0.10204040599E-03  0.22894738235E-02  0.39829789582E+01  0.39831804671E+01  0.40000000000E-01 0.  1.
</event>
<event>
 5   0  0.7212170E+07  0.9118800E+02  0.7818608E-02  0.1180000E+00
       11   -1    0    0    0    0  0.00000000000E+00  0.00000000000E+00  0.39999999673E+01  0.40000000000E+01  0.51109989000E-03 0. -1.
     -623   -1    0    0    0    0  0.00000000000E+00  0.00000000000E+00  0.12525980253E-10  0.17130000000E+03  0.17130000000E+03 0.  1.
       11    1    1    2    0    0  0.37399534368E-02  0.30181981446E-03  0.26593967610E-01  0.26862216648E-01  0.51109989000E-03 0. -1.
     -623    1    1    2    0    0  0.23780132219E-02  0.81062945838E-03  0.47445908411E-03  0.17130000002E+03  0.17130000000E+03 0.  1.
      622    1    1    2    0    0 -0.61179666593E-02 -0.11124492730E-02  0.39729315417E+01  0.39731377653E+01  0.40000000000E-01 0. -1.
</event>
<event>
 5   0  0.7212170E+07  0.9118800E+02  0.7818608E-02  0.1180000E+00
       11   -1    0    0    0    0  0.00000000000E+00  0.00000000000E+00  0.39999999673E+01  0.40000000000E+01  0.51109989000E-03 0. -1.
     -623   -1    0    0    0    0  0.00000000000E+00  0.00000000000E+00  0.12525980253E-10  0.17130000000E+03  0.17130000000E+03 0. -1.
       11    1    1    2    0    0 -0.64315879082E-02  0.41569939234E-02  0.23305269900E-01  0.24536559451E-01  0.51109989000E-03 0. -1.
     -623    1    1    2    0    0  0.10694366644E-01 -0.78844306524E-02  0.14370508135E-02  0.17130000052E+03  0.17130000000E+03 0. -1.
      622    1    1    2    0    0 -0.42627787365E-02  0.37274367295E-02  0.39752576469E+01  0.39754629195E+01  0.40000000000E-01 0. -1.
</event>
<event>
 5   0  0.7212170E+07  0.9118800E+02  0.7818608E-02  0.1180000E+00
       11   -1    0    0    0    0  0.00000000000E+00  0.00000000000E+00  0.39999999673E+01  0.40000000000E+01  0.51109989000E-03 0.  1.
     -623   -1    0    0    0    0  0.00000000000E+00  0.00000000000E+00  0.12525980253E-10  0.17130000000E+03  0.17130000000E+03 0.  1.
       11    1    1    2    0    0  0.66370470607E-02 -0.22028988912E-01  0.31567344439E+01  0.31568183250E+01  0.51109989000E-03 0.  1.
     -623    1    1    2    0    0 -0.28196820823E-02 -0.27166845327E-02  0.14054809462E-02  0.17130000005E+03  0.17130000000E+03 0.  1.
      622    1    1    2    0    0 -0.38173649785E-02  0.24745673444E-01  0.84186004235E+00  0.84318162428E+00  0.40000000000E-01 0.  1.
</event>
<event>
 5   0  0.7212170E+07  0.9118800E+02  0.7818608E-02  0.1180000E+00
       11   -1    0    0    0    0  0.00000000000E+00  0.00000000000E+00  0.39999999673E+01  0.40000000000E+01  0.51109989000E-03 0.  1.
     -623   -1    0    0    0    0  0.00000000000E+00  0.00000000000E+00  0.12525980253E-10  0.17130000000E+03  0.17130000000E+03 0.  1.
       11    1    1    2    0    0 -0.36526620013E-02 -0.32162197595E-01  0.68307718481E+00  0.68384387877E+00  0.51109989000E-03 0.  1.
     -623    1    1    2    0    0  0.17105361731E-01  0.36204761939E-01  0.10423500681E-02  0.17130000468E+03  0.17130000000E+03 0.  1.
      622    1    1    2    0    0 -0.13452699730E-01 -0.40425643430E-02  0.33158804324E+01  0.33161514380E+01  0.40000000000E-01 0.  1.
</event>
<event>
 5   0  0.7212170E+07  0.9118800E+02  0.7818608E-02  0.1180000E+00
       11   -1    0    0    0    0  0.00000000000E+00  0.00000000000E+00  0.39999999673E+01  0.40000000000E+01  0.51109989000E-03 0. -1.
     -623   -1    0    0    0    0  0.00000000000E+00  0.00000000000E+00  0.12525980253E-10  0.17130000000E+03  0.17130000000E+03 0.  1.
       11    1    1    2    0    0  0.56337261890E-05 -0.13734505280E-02  0.65300182452E-01  0.65316624602E-01  0.51109989000E-03 0. -1.
     -623    1    1    2    0    0  0.44954134661E-02  0.55777892122E-02  0.22470571694E-03  0.17130000015E+03  0.17130000000E+03 0.  1.
      622    1    1    2    0    0 -0.45010471949E-02 -0.42043386874E-02  0.39344750815E+01  0.39346832278E+01  0.40000000000E-01 0. -1.
</event>
<event>
 5   0  0.7212170E+07  0.9118800E+02  0.7818608E-02  0.1180000E+00
       11   -1    0    0    0    0  0.00000000000E+00  0.00000000000E+00  0.39999999673E+01  0.40000000000E+01  0.51109989000E-03 0.  1.
     -623   -1    0    0    0    0  0.00000000000E+00  0.00000000000E+00  0.12525980253E-10  0.17130000000E+03  0.17130000000E+03 0.  1.
       11    1    1    2    0    0 -0.88182179062E-03  0.79733471933E-02  0.33425877960E+00  0.33435541694E+00  0.51109989000E-03 0.  1.
     -623    1    1    2    0    0 -0.89569033091E-03 -0.11576460298E-02  0.32162815716E-03  0.17130000001E+03  0.17130000000E+03 0.  1.
      622    1    1    2    0    0  0.17775121216E-02 -0.68157011634E-02  0.36654195600E+01  0.36656445769E+01  0.40000000000E-01 0.  1.
</event>
<event>
 5   0  0.7212170E+07  0.9118800E+02  0.7818608E-02  0.1180000E+00
       11   -1    0    0    0    0  0.00000000000E+00  0.00000000000E+00  0.39999999673E+01  0.40000000000E+01  0.51109989000E-03 0. -1.
     -623   -1    0    0    0    0  0.00000000000E+00  0.00000000000E+00  0.12525980253E-10  0.17130000000E+03  0.17130000000E+03 0.  1.
       11    1    1    2    0    0 -0.31867449169E-02 -0.52714289788E-04  0.62449156691E-02  0.70298162688E-02  0.51109989000E-03 0. -1.
     -623    1    1    2    0    0  0.53667126325E-03  0.27050923871E-02  0.98701057266E-03  0.17130000003E+03  0.17130000000E+03 0.  1.
      622    1    1    2    0    0  0.26500736536E-02 -0.26523780972E-02  0.39927680410E+01  0.39929701586E+01  0.40000000000E-01 0. -1.
</event>
<event>
 5   0  0.7212170E+07  0.9118800E+02  0.7818608E-02  0.1180000E+00
       11   -1    0    0    0    0  0.00000000000E+00  0.00000000000E+00  0.39999999673E+01  0.40000000000E+01  0.51109989000E-03 0.  1.
     -623   -1    0    0    0    0  0.00000000000E+00  0.00000000000E+00  0.12525980253E-10  0.17130000000E+03  0.17130000000E+03 0.  1.
       11    1    1    2    0    0 -0.92462366683E-02  0.53082208152E-02  0.10212443970E+01  0.10213001761E+01  0.51109989000E-03 0.  1.
     -623    1    1    2    0    0 -0.71038211780E-03 -0.16002586464E-03  0.34542543979E-03  0.17130000000E+03  0.17130000000E+03 0.  1.
      622    1    1    2    0    0  0.99566187861E-02 -0.51481949505E-02  0.29784101455E+01  0.29786998226E+01  0.40000000000E-01 0.  1.
</event>
<event>
 5   0  0.7212170E+07  0.9118800E+02  0.7818608E-02  0.1180000E+00
       11   -1    0    0    0    0  0.00000000000E+00  0.00000000000E+00  0.39999999673E+01  0.40000000000E+01  0.51109989000E-03 0.  1.
     -623   -1    0    0    0    0  0.00000000000E+00  0.00000000000E+00  0.12525980253E-10  0.17130000000E+03  0.17130000000E+03 0. -1.
       11    1    1    2    0    0  0.53291853716E-03  0.11354878178E-01  0.14395425505E+01  0.14395875219E+01  0.51109989000E-03 0.  1.
     -623    1    1    2    0    0 -0.36614856709E-02  0.18375799479E-02  0.39335984793E-03  0.17130000005E+03  0.17130000000E+03 0. -1.
      622    1    1    2    0    0  0.31285671346E-02 -0.13192458126E-01  0.25600640580E+01  0.25604124296E+01  0.40000000000E-01 0.  1.
</event>
<event>
 5   0  0.7212170E+07  0.9118800E+02  0.7818608E-02  0.1180000E+00
       11   -1    0    0    0    0  0.00000000000E+00  0.00000000000E+00  0.39999999673E+01  0.40000000000E+01  0.51109989000E-03 0. -1.
     -623   -1    0    0    0    0  0.00000000000E+00  0.00000000000E+00  0.12525980253E-10  0.17130000000E+03  0.17130000000E+03 0. -1.
       11    1    1    2    0    0 -0.24518587652E-01 -0.10415061776E-01  0.81184101852E+00  0.81227811446E+00  0.51109989000E-03 0. -1.
     -623    1    1    2    0    0  0.18976903184E-03  0.13643645375E-02  0.79374133777E-03  0.17130000001E+03  0.17130000000E+03 0. -1.
      622    1    1    2    0    0  0.24328818621E-01  0.90506972386E-02  0.31873652077E+01  0.31877218784E+01  0.40000000000E-01 0. -1.
</event>
<event>
 5   0  0.7212170E+07  0.9118800E+02  0.7818608E-02  0.1180000E+00
       11   -1    0    0    0    0  0.00000000000E+00  0.00000000000E+00  0.39999999673E+01  0.40000000000E+01  0.51109989000E-03 0.  1.
     -623   -1    0    0    0    0  0.00000000000E+00  0.00000000000E+00  0.12525980253E-10  0.17130000000E+03  0.17130000000E+03 0. -1.
       11    1    1    2    0    0  0.19708001295E-04  0.16414718204E-02  0.19550507786E-01  0.19625962293E-01  0.51109989000E-03 0.  1.
     -623    1    1    2    0    0  0.13438216302E-01 -0.44790978820E-02  0.30076288054E-03  0.17130000059E+03  0.17130000000E+03 0. -1.
      622    1    1    2    0    0 -0.13457924304E-01  0.28376260617E-02  0.39801486968E+01  0.39803734519E+01  0.40000000000E-01 0.  1.
</event>
<event>
 5   0  0.7212170E+07  0.9118800E+02  0.7818608E-02  0.1180000E+00
       11   -1    0    0    0    0  0.00000000000E+00  0.00000000000E+00  0.39999999673E+01  0.40000000000E+01  0.51109989000E-03 0.  1.
     -623   -1    0    0    0    0  0.00000000000E+00  0.00000000000E+00  0.12525980253E-10  0.17130000000E+03  0.17130000000E+03 0. -1.
       11    1    1    2    0    0 -0.77061990608E-03 -0.12817550973E-02  0.39113068793E-02  0.42185656058E-02  0.51109989000E-03 0.  1.
     -623    1    1    2    0    0  0.25544913597E-02 -0.79582313838E-03  0.50840225721E-03  0.17130000002E+03  0.17130000000E+03 0. -1.
      622    1    1    2    0    0 -0.17838714537E-02  0.20775782357E-02  0.39955802583E+01  0.39957814128E+01  0.40000000000E-01 0.  1.
</event>
<event>
 5   0  0.7212170E+07  0.9118800E+02  0.7818608E-02  0.1180000E+00
       11   -1    0    0    0    0  0.00000000000E+00  0.00000000000E+00  0.39999999673E+01  0.40000000000E+01  0.51109989000E-03 0. -1.
     -623   -1    0    0    0    0  0.00000000000E+00  0.00000000000E+00  0.12525980253E-10  0.17130000000E+03  0.17130000000E+03 0.  1.
       11    1    1    2    0    0  0.16876922356E-01  0.92949100255E-03  0.28596978784E+01  0.28597478755E+01  0.51109989000E-03 0. -1.
     -623    1    1    2    0    0 -0.22820254709E-02 -0.56159792955E-02  0.85499331399E-03  0.17130000011E+03  0.17130000000E+03 0.  1.
      622    1    1    2    0    0 -0.14594896885E-01  0.46864882931E-02  0.11394470958E+01  0.11402520152E+01  0.40000000000E-01 0.  1.
</event>
<event>
 5   0  0.7212170E+07  0.9118800E+02  0.7818608E-02  0.1180000E+00
       11   -1    0    0    0    0  0.00000000000E+00  0.00000000000E+00  0.39999999673E+01  0.40000000000E+01  0.51109989000E-03 0. -1.
     -623   -1    0    0    0    0  0.00000000000E+00  0.00000000000E+00  0.12525980253E-10  0.17130000000E+03  0.17130000000E+03 0. -1.
       11    1    1    2    0    0 -0.17148958749E-02 -0.35371995698E-02  0.35149168639E+00  0.35151403880E+00  0.51109989000E-03 0. -1.
     -623    1    1    2    0    0  0.10983674986E-02  0.36818827924E-02  0.24169362091E-03  0.17130000004E+03  0.17130000000E+03 0. -1.
      622    1    1    2    0    0  0.61652837609E-03 -0.14468322351E-03  0.36482665883E+01  0.36484859189E+01  0.40000000000E-01 0. -1.
</event>
<event>
 5   0  0.7212170E+07  0.9118800E+02  0.7818608E-02  0.1180000E+00
       11   -1    0    0    0    0  0.00000000000E+00  0.00000000000E+00  0.39999999673E+01  0.40000000000E+01  0.51109989000E-03 0. -1.
     -623   -1    0    0    0    0  0.00000000000E+00  0.00000000000E+00  0.12525980253E-10  0.17130000000E+03  0.17130000000E+03 0. -1.
       11    1    1    2    0    0 -0.29760857977E-02 -0.21940261845E-01  0.25073365866E+01  0.25074343963E+01  0.51109989000E-03 0. -1.
     -623    1    1    2    0    0  0.25458725815E-02 -0.19568120833E-03  0.79816103003E-03  0.17130000002E+03  0.17130000000E+03 0. -1.
      622    1    1    2    0    0  0.43021321620E-03  0.22135943054E-01  0.14918652197E+01  0.14925655827E+01  0.40000000000E-01 0.  1.
</event>
<event>
 5   0  0.7212170E+07  0.9118800E+02  0.7818608E-02  0.1180000E+00
       11   -1    0    0    0    0  0.00000000000E+00  0.00000000000E+00  0.39999999673E+01  0.40000000000E+01  0.51109989000E-03 0.  1.
     -623   -1    0    0    0    0  0.00000000000E+00  0.00000000000E+00  0.12525980253E-10  0.17130000000E+03  0.17130000000E+03 0. -1.
       11    1    1    2    0    0 -0.89445398745E-02  0.50321089230E-04  0.11127044246E+01  0.11127404931E+01  0.51109989000E-03 0.  1.
     -623    1    1    2    0    0  0.27139123839E-02 -0.22877338230E-03  0.31987943318E-03  0.17130000002E+03  0.17130000000E+03 0. -1.
      622    1    1    2    0    0  0.62306274905E-02  0.17845229308E-03  0.28869756635E+01  0.28872594851E+01  0.40000000000E-01 0.  1.
</event>
<event>
 5   0  0.7212170E+07  0.9118800E+02  0.7818608E-02  0.1180000E+00
       11   -1    0    0    0    0  0.00000000000E+00  0.00000000000E+00  0.39999999673E+01  0.40000000000E+01  0.51109989000E-03 0.  1.
     -623   -1    0    0    0    0  0.00000000000E+00  0.00000000000E+00  0.12525980253E-10  0.17130000000E+03  0.17130000000E+03 0. -1.
       11    1    1    2    0    0 -0.30562693280E-03 -0.76646784154E-02  0.72957086164E-01  0.73361013813E-01  0.51109989000E-03 0.  1.
     -623    1    1    2    0    0  0.21138370372E-02  0.19300985614E-01  0.62639744754E-03  0.17130000110E+03  0.17130000000E+03 0. -1.
      622    1    1    2    0    0 -0.18082101045E-02 -0.11636307200E-01  0.39264164840E+01  0.39266378849E+01  0.40000000000E-01 0.  1.
</event>
<event>
 5   0  0.7212170E+07  0.9118800E+02  0.7818608E-02  0.1180000E+00
       11   -1    0    0    0    0  0.00000000000E+00  0.00000000000E+00  0.39999999673E+01  0.40000000000E+01  0.51109989000E-03 0.  1.
     -623   -1    0    0    0    0  0.00000000000E+00  0.00000000000E+00  0.12525980253E-10  0.17130000000E+03  0.17130000000E+03 0. -1.
       11    1    1    2    0    0 -0.24378183469E-01 -0.21621872958E-01  0.19268305730E+01  0.19271061516E+01  0.51109989000E-03 0.  1.
     -623    1    1    2    0    0 -0.11497636904E-01 -0.72525253699E-02  0.11737745405E-02  0.17130000054E+03  0.17130000000E+03 0. -1.
      622    1    1    2    0    0  0.35875820373E-01  0.28874398328E-01  0.20719956197E+01  0.20728933049E+01  0.40000000000E-01 0.  0.
</event>
<event>
 5   0  0.7212170E+07  0.9118800E+02  0.7818608E-02  0.1180000E+00
       11   -1    0    0    0    0  0.00000000000E+00  0.00000000000E+00  0.39999999673E+01  0.40000000000E+01  0.51109989000E-03 0. -1.
     -623   -1    0    0    0    0  0.00000000000E+00  0.00000000000E+00  0.12525980253E-10  0.17130000000E+03  0.17130000000E+03 0.  1.
       11    1    1    2    0    0  0.93551755258E-02 -0.12389985308E-01  0.15317573283E+00  0.15396135033E+00  0.51109989000E-03 0. -1.
     -623    1    1    2    0    0  0.79927994235E-02  0.10718636514E-01  0.10336121397E-02  0.17130000052E+03  0.17130000000E+03 0.  1.
      622    1    1    2    0    0 -0.17347974949E-01  0.16713487933E-02  0.38457906224E+01  0.38460381248E+01  0.40000000000E-01 0. -1.
</event>
<event>
 5   0  0.7212170E+07  0.9118800E+02  0.7818608E-02  0.1180000E+00
       11   -1    0    0    0    0  0.00000000000E+00  0.00000000000E+00  0.39999999673E+01  0.40000000000E+01  0.51109989000E-03 0. -1.
     -623   -1    0    0    0    0  0.00000000000E+00  0.00000000000E+00  0.12525980253E-10  0.17130000000E+03  0.17130000000E+03 0.  1.
       11    1    1    2    0    0  0.36864395426E-01  0.64904513244E-01  0.56913311335E+00  0.57400726600E+00  0.51109989000E-03 0. -1.
     -623    1    1    2    0    0  0.22917906937E-01 -0.11401773721E-01  0.60492077482E-02  0.17130000202E+03  0.17130000000E+03 0.  1.
      622    1    1    2    0    0 -0.59782302363E-01 -0.53502739522E-01  0.34248176462E+01  0.34259907146E+01  0.40000000000E-01 0. -1.
</event>
<event>
 5   0  0.7212170E+07  0.9118800E+02  0.7818608E-02  0.1180000E+00
       11   -1    0    0    0    0  0.00000000000E+00  0.00000000000E+00  0.39999999673E+01  0.40000000000E+01  0.51109989000E-03 0. -1.
     -623   -1    0    0    0    0  0.00000000000E+00  0.00000000000E+00  0.12525980253E-10  0.17130000000E+03  0.17130000000E+03 0.  1.
       11    1    1    2    0    0 -0.10364241239E-01  0.22369771517E-01  0.22559974465E+01  0.22561322133E+01  0.51109989000E-03 0. -1.
     -623    1    1    2    0    0  0.40092401377E-02 -0.17327305203E-02  0.72733193867E-03  0.17130000006E+03  0.17130000000E+03 0.  1.
      622    1    1    2    0    0  0.63550011017E-02 -0.20637040997E-01  0.17432751885E+01  0.17438677290E+01  0.40000000000E-01 0.  0.
</event>
<event>
 5   0  0.7212170E+07  0.9118800E+02  0.7818608E-02  0.1180000E+00
       11   -1    0    0    0    0  0.00000000000E+00  0.00000000000E+00  0.39999999673E+01  0.40000000000E+01  0.51109989000E-03 0.  1.
     -623   -1    0    0    0    0  0.00000000000E+00  0.00000000000E+00  0.12525980253E-10  0.17130000000E+03  0.17130000000E+03 0.  1.
       11    1    1    2    0    0 -0.25283039255E-02 -0.14864573451E-01  0.12136270464E+01  0.12137208151E+01  0.51109989000E-03 0.  1.
     -623    1    1    2    0    0  0.52519985646E-03 -0.14586895162E-03  0.42203067978E-03  0.17130000000E+03  0.17130000000E+03 0.  1.
      622    1    1    2    0    0  0.20031040688E-02  0.15010442403E-01  0.27859508918E+01  0.27862791851E+01  0.40000000000E-01 0.  1.
</event>
<event>
 5   0  0.7212170E+07  0.9118800E+02  0.7818608E-02  0.1180000E+00
       11   -1    0    0    0    0  0.00000000000E+00  0.00000000000E+00  0.39999999673E+01  0.40000000000E+01  0.51109989000E-03 0.  1.
     -623   -1    0    0    0    0  0.00000000000E+00  0.00000000000E+00  0.12525980253E-10  0.17130000000E+03  0.17130000000E+03 0.  1.
       11    1    1    2    0    0  0.21133880126E-03 -0.82655021305E-03  0.60271759396E-02  0.61086759816E-02  0.51109989000E-03 0.  1.
     -623    1    1    2    0    0 -0.80682504777E-02  0.28026765429E-02  0.29020900488E-03  0.17130000021E+03  0.17130000000E+03 0.  1.
      622    1    1    2    0    0  0.78569116769E-02 -0.19761263300E-02  0.39936825826E+01  0.39938911110E+01  0.40000000000E-01 0.  1.
</event>
<event>
 5   0  0.7212170E+07  0.9118800E+02  0.7818608E-02  0.1180000E+00
       11   -1    0    0    0    0  0.00000000000E+00  0.00000000000E+00  0.39999999673E+01  0.40000000000E+01  0.51109989000E-03 0.  1.
     -623   -1    0    0    0    0  0.00000000000E+00  0.00000000000E+00  0.12525980253E-10  0.17130000000E+03  0.17130000000E+03 0.  1.
       11    1    1    2    0    0 -0.32301268646E-02  0.19928919148E-02  0.70145796638E-02  0.79919264701E-02  0.51109989000E-03 0.  1.
     -623    1    1    2    0    0 -0.96534564074E-02 -0.73831738049E-04  0.11992480994E-02  0.17130000028E+03  0.17130000000E+03 0.  1.
      622    1    1    2    0    0  0.12883583272E-01 -0.19190601767E-02  0.39917861397E+01  0.39920077974E+01  0.40000000000E-01 0.  1.
</event>
<event>
 5   0  0.7212170E+07  0.9118800E+02  0.7818608E-02  0.1180000E+00
       11   -1    0    0    0    0  0.00000000000E+00  0.00000000000E+00  0.39999999673E+01  0.40000000000E+01  0.51109989000E-03 0. -1.
     -623   -1    0    0    0    0  0.00000000000E+00  0.00000000000E+00  0.12525980253E-10  0.17130000000E+03  0.17130000000E+03 0.  1.
       11    1    1    2    0    0  0.40594720750E-03  0.39414522072E-03  0.71729307127E-02  0.72133419229E-02  0.51109989000E-03 0. -1.
     -623    1    1    2    0    0 -0.21052236261E-04 -0.17223824400E-03  0.24076989244E-03  0.17130000000E+03  0.17130000000E+03 0.  1.
      622    1    1    2    0    0 -0.38489497123E-03 -0.22190697671E-03  0.39925862669E+01  0.39927866580E+01  0.40000000000E-01 0. -1.
</event>
<event>
 5   0  0.7212170E+07  0.9118800E+02  0.7818608E-02  0.1180000E+00
       11   -1    0    0    0    0  0.00000000000E+00  0.00000000000E+00  0.39999999673E+01  0.40000000000E+01  0.51109989000E-03 0.  1.
     -623   -1    0    0    0    0  0.00000000000E+00  0.00000000000E+00  0.12525980253E-10  0.17130000000E+03  0.17130000000E+03 0.  1.
       11    1    1    2    0    0  0.47566924726E-03 -0.10175372052E-02  0.77440809568E-02  0.78417890918E-02  0.51109989000E-03 0.  1.
     -623    1    1    2    0    0 -0.14168922479E-04  0.35297834928E-03  0.29815600033E-03  0.17130000000E+03  0.17130000000E+03 0.  1.
      622    1    1    2    0    0 -0.46150032477E-03  0.66455885584E-03  0.39919577318E+01  0.39921582117E+01  0.40000000000E-01 0.  1.
</event>
<event>
 5   0  0.7212170E+07  0.9118800E+02  0.7818608E-02  0.1180000E+00
       11   -1    0    0    0    0  0.00000000000E+00  0.00000000000E+00  0.39999999673E+01  0.40000000000E+01  0.51109989000E-03 0.  1.
     -623   -1    0    0    0    0  0.00000000000E+00  0.00000000000E+00  0.12525980253E-10  0.17130000000E+03  0.17130000000E+03 0. -1.
       11    1    1    2    0    0  0.99583272553E-02 -0.87276530719E-02  0.12967736972E+01  0.12968414025E+01  0.51109989000E-03 0.  1.
     -623    1    1    2    0    0 -0.37529595344E-02  0.50859434043E-03  0.38330114027E-03  0.17130000004E+03  0.17130000000E+03 0. -1.
      622    1    1    2    0    0 -0.62053677203E-02  0.82190587314E-02  0.27028429695E+01  0.27031585558E+01  0.40000000000E-01 0.  1.
</event>
<event>
 5   0  0.7212170E+07  0.9118800E+02  0.7818608E-02  0.1180000E+00
       11   -1    0    0    0    0  0.00000000000E+00  0.00000000000E+00  0.39999999673E+01  0.40000000000E+01  0.51109989000E-03 0.  1.
     -623   -1    0    0    0    0  0.00000000000E+00  0.00000000000E+00  0.12525980253E-10  0.17130000000E+03  0.17130000000E+03 0. -1.
       11    1    1    2    0    0  0.65696207419E-03  0.10062747936E-02  0.14683501232E-01  0.14741459211E-01  0.51109989000E-03 0.  1.
     -623    1    1    2    0    0 -0.17484850658E-03  0.11819403337E-03  0.25885832870E-03  0.17130000000E+03  0.17130000000E+03 0. -1.
      622    1    1    2    0    0 -0.48211356755E-03 -0.11244688270E-02  0.39850576092E+01  0.39852585419E+01  0.40000000000E-01 0.  1.
</event>
<event>
 5   0  0.7212170E+07  0.9118800E+02  0.7818608E-02  0.1180000E+00
       11   -1    0    0    0    0  0.00000000000E+00  0.00000000000E+00  0.39999999673E+01  0.40000000000E+01  0.51109989000E-03 0.  1.
     -623   -1    0    0    0    0  0.00000000000E+00  0.00000000000E+00  0.12525980253E-10  0.17130000000E+03  0.17130000000E+03 0.  1.
       11    1    1    2    0    0 -0.43007346300E-02  0.95690626630E-02  0.16206064655E+01  0.16206405031E+01  0.51109989000E-03 0.  1.
     -623    1    1    2    0    0  0.56418062264E-03  0.15178026097E-02  0.39903021962E-03  0.17130000001E+03  0.17130000000E+03 0.  1.
      622    1    1    2    0    0  0.37365540075E-02 -0.11086865272E-01  0.23789944709E+01  0.23793594880E+01  0.40000000000E-01 0.  1.
</event>
<event>
 5   0  0.7212170E+07  0.9118800E+02  0.7818608E-02  0.1180000E+00
       11   -1    0    0    0    0  0.00000000000E+00  0.00000000000E+00  0.39999999673E+01  0.40000000000E+01  0.51109989000E-03 0. -1.
     -623   -1    0    0    0    0  0.00000000000E+00  0.00000000000E+00  0.12525980253E-10  0.17130000000E+03  0.17130000000E+03 0. -1.
       11    1    1    2    0    0  0.37001852885E-02 -0.55810521899E-02  0.48380359371E-01  0.48844241325E-01  0.51109989000E-03 0. -1.
     -623    1    1    2    0    0 -0.12464832961E-02 -0.70717196679E-03  0.67210022615E-03  0.17130000001E+03  0.17130000000E+03 0. -1.
      622    1    1    2    0    0 -0.24537019924E-02  0.62882241567E-02  0.39509475075E+01  0.39511557511E+01  0.40000000000E-01 0. -1.
</event>
<event>
 5   0  0.7212170E+07  0.9118800E+02  0.7818608E-02  0.1180000E+00
       11   -1    0    0    0    0  0.00000000000E+00  0.00000000000E+00  0.39999999673E+01  0.40000000000E+01  0.51109989000E-03 0. -1.
     -623   -1    0    0    0    0  0.00000000000E+00  0.00000000000E+00  0.12525980253E-10  0.17130000000E+03  0.17130000000E+03 0.  1.
       11    1    1    2    0    0  0.17365745762E-01  0.79990920778E-02  0.30659818555E+00  0.30719417834E+00  0.51109989000E-03 0. -1.
     -623    1    1    2    0    0 -0.17017438916E-02 -0.19390038056E-02  0.85082186614E-03  0.17130000002E+03  0.17130000000E+03 0.  1.
      622    1    1    2    0    0 -0.15664001871E-01 -0.60600882720E-02  0.36925509602E+01  0.36928058004E+01  0.40000000000E-01 0.  0.
</event>
<event>
 5   0  0.7212170E+07  0.9118800E+02  0.7818608E-02  0.1180000E+00
       11   -1    0    0    0    0  0.00000000000E+00  0.00000000000E+00  0.39999999673E+01  0.40000000000E+01  0.51109989000E-03 0. -1.
     -623   -1    0    0    0    0  0.00000000000E+00  0.00000000000E+00  0.12525980253E-10  0.17130000000E+03  0.17130000000E+03 0. -1.
       11    1    1    2    0    0 -0.75444989986E-02  0.15753180632E-01  0.17717527572E+00  0.17803488904E+00  0.51109989000E-03 0. -1.
     -623    1    1    2    0    0 -0.72501912404E-03 -0.14320304128E-02  0.11046934678E-02  0.17130000001E+03  0.17130000000E+03 0. -1.
      622    1    1    2    0    0  0.82695181226E-02 -0.14321150219E-01  0.38217199981E+01  0.38219650998E+01  0.40000000000E-01 0. -1.
</event>
<event>
 5   0  0.7212170E+07  0.9118800E+02  0.7818608E-02  0.1180000E+00
       11   -1    0    0    0    0  0.00000000000E+00  0.00000000000E+00  0.39999999673E+01  0.40000000000E+01  0.51109989000E-03 0. -1.
     -623   -1    0    0    0    0  0.00000000000E+00  0.00000000000E+00  0.12525980253E-10  0.17130000000E+03  0.17130000000E+03 0.  1.
       11    1    1    2    0    0  0.32451916933E-02  0.30321865750E-02  0.52520764509E+00  0.52522667212E+00  0.51109989000E-03 0. -1.
     -623    1    1    2    0    0 -0.12040669525E-02  0.90861173679E-03  0.25207403490E-03  0.17130000001E+03  0.17130000000E+03 0.  1.
      622    1    1    2    0    0 -0.20411247409E-02 -0.39407983117E-02  0.34745402479E+01  0.34747733207E+01  0.40000000000E-01 0. -1.
</event>
<event>
 5   0  0.7212170E+07  0.9118800E+02  0.7818608E-02  0.1180000E+00
       11   -1    0    0    0    0  0.00000000000E+00  0.00000000000E+00  0.39999999673E+01  0.40000000000E+01  0.51109989000E-03 0.  1.
     -623   -1    0    0    0    0  0.00000000000E+00  0.00000000000E+00  0.12525980253E-10  0.17130000000E+03  0.17130000000E+03 0. -1.
       11    1    1    2    0    0 -0.41817248644E-03  0.29678097769E-03  0.46953090546E-02  0.47507996583E-02  0.51109989000E-03 0.  1.
     -623    1    1    2    0    0 -0.10543760283E-02 -0.78461936532E-03  0.25600720849E-03  0.17130000001E+03  0.17130000000E+03 0. -1.
      622    1    1    2    0    0  0.14725485147E-02  0.48783838760E-03  0.39950486509E+01  0.39952491949E+01  0.40000000000E-01 0.  1.
</event>
<event>
 5   0  0.7212170E+07  0.9118800E+02  0.7818608E-02  0.1180000E+00
       11   -1    0    0    0    0  0.00000000000E+00  0.00000000000E+00  0.39999999673E+01  0.40000000000E+01  0.51109989000E-03 0.  1.
     -623   -1    0    0    0    0  0.00000000000E+00  0.00000000000E+00  0.12525980253E-10  0.17130000000E+03  0.17130000000E+03 0. -1.
       11    1    1    2    0    0  0.31826867534E-02  0.50689714018E-02  0.20952103380E-01  0.21796234198E-01  0.51109989000E-03 0.  1.
     -623    1    1    2    0    0 -0.50584423519E-02 -0.43690022779E-04  0.10488933291E-02  0.17130000008E+03  0.17130000000E+03 0. -1.
      622    1    1    2    0    0  0.18757555989E-02 -0.50252813790E-02  0.39779989709E+01  0.39782036882E+01  0.40000000000E-01 0.  1.
</event>
<event>
 5   0  0.7212170E+07  0.9118800E+02  0.7818608E-02  0.1180000E+00
       11   -1    0    0    0    0  0.00000000000E+00  0.00000000000E+00  0.39999999673E+01  0.40000000000E+01  0.51109989000E-03 0. -1.
     -623   -1    0    0    0    0  0.00000000000E+00  0.00000000000E+00  0.12525980253E-10  0.17130000000E+03  0.17130000000E+03 0.  1.
       11    1    1    2    0    0  0.26691408906E-03 -0.45720781119E-02  0.41225706620E+00  0.41228282161E+00  0.51109989000E-03 0. -1.
     -623    1    1    2    0    0  0.10107320200E-02  0.17363171557E-03  0.25163984129E-03  0.17130000000E+03  0.17130000000E+03 0.  1.
      622    1    1    2    0    0 -0.12776461092E-02  0.43984463963E-02  0.35874912620E+01  0.35877171758E+01  0.40000000000E-01 0. -1.
</event>
<event>
 5   0  0.7212170E+07  0.9118800E+02  0.7818608E-02  0.1180000E+00
       11   -1    0    0    0    0  0.00000000000E+00  0.00000000000E+00  0.39999999673E+01  0.40000000000E+01  0.51109989000E-03 0. -1.
     -623   -1    0    0    0    0  0.00000000000E+00  0.00000000000E+00  0.12525980253E-10  0.17130000000E+03  0.17130000000E+03 0.  1.
       11    1    1    2    0    0 -0.54503898364E-03  0.88550884479E-02  0.11988656501E+00  0.12021547052E+00  0.51109989000E-03 0. -1.
     -623    1    1    2    0    0 -0.19300507804E-02 -0.52511942871E-03  0.54482022440E-03  0.17130000001E+03  0.17130000000E+03 0.  1.
      622    1    1    2    0    0  0.24750897641E-02 -0.83299690192E-02  0.38795685822E+01  0.38797845170E+01  0.40000000000E-01 0. -1.
</event>
<event>
 5   0  0.7212170E+07  0.9118800E+02  0.7818608E-02  0.1180000E+00
       11   -1    0    0    0    0  0.00000000000E+00  0.00000000000E+00  0.39999999673E+01  0.40000000000E+01  0.51109989000E-03 0.  1.
     -623   -1    0    0    0    0  0.00000000000E+00  0.00000000000E+00  0.12525980253E-10  0.17130000000E+03  0.17130000000E+03 0.  1.
       11    1    1    2    0    0  0.62599123206E-02 -0.31517976642E-02  0.20467477335E+00  0.20479537201E+00  0.51109989000E-03 0.  1.
     -623    1    1    2    0    0  0.35963268175E-02  0.23205884680E-02  0.34430823201E-03  0.17130000005E+03  0.17130000000E+03 0.  1.
      622    1    1    2    0    0 -0.98562391385E-02  0.83120919602E-03  0.37949808862E+01  0.37952045746E+01  0.40000000000E-01 0.  1.
</event>
<event>
 5   0  0.7212170E+07  0.9118800E+02  0.7818608E-02  0.1180000E+00
       11   -1    0    0    0    0  0.00000000000E+00  0.00000000000E+00  0.39999999673E+01  0.40000000000E+01  0.51109989000E-03 0. -1.
     -623   -1    0    0    0    0  0.00000000000E+00  0.00000000000E+00  0.12525980253E-10  0.17130000000E+03  0.17130000000E+03 0.  1.
       11    1    1    2    0    0 -0.14186658077E-02 -0.72127024051E-03  0.80138973076E-02  0.81863677286E-02  0.51109989000E-03 0. -1.
     -623    1    1    2    0    0  0.24215314003E-04  0.46198457916E-03  0.37310599412E-03  0.17130000000E+03  0.17130000000E+03 0.  1.
      622    1    1    2    0    0  0.13944504937E-02  0.25928566115E-03  0.39916129658E+01  0.39918136329E+01  0.40000000000E-01 0. -1.
</event>
<event>
 5   0  0.7212170E+07  0.9118800E+02  0.7818608E-02  0.1180000E+00
       11   -1    0    0    0    0  0.00000000000E+00  0.00000000000E+00  0.39999999673E+01  0.40000000000E+01  0.51109989000E-03 0. -1.
     -623   -1    0    0    0    0  0.00000000000E+00  0.00000000000E+00  0.12525980253E-10  0.17130000000E+03  0.17130000000E+03 0.  1.
       11    1    1    2    0    0 -0.67564895197E-01 -0.88002169289E-02  0.19126796588E+01  0.19138929430E+01  0.51109989000E-03 0. -1.
     -623    1    1    2    0    0  0.28853861473E-01  0.12990889309E-01  0.19631913216E-02  0.17130000293E+03  0.17130000000E+03 0.  1.
      622    1    1    2    0    0  0.38711033722E-01 -0.41906723807E-02  0.20853571174E+01  0.20861041232E+01  0.40000000000E-01 0. -1.
</event>
<event>
 5   0  0.7212170E+07  0.9118800E+02  0.7818608E-02  0.1180000E+00
       11   -1    0    0    0    0  0.00000000000E+00  0.00000000000E+00  0.39999999673E+01  0.40000000000E+01  0.51109989000E-03 0.  1.
     -623   -1    0    0    0    0  0.00000000000E+00  0.00000000000E+00  0.12525980253E-10  0.17130000000E+03  0.17130000000E+03 0. -1.
       11    1    1    2    0    0 -0.16968584613E-02 -0.14130743469E-02  0.59694251333E-01  0.59737266200E-01  0.51109989000E-03 0.  1.
     -623    1    1    2    0    0  0.27480353501E-03  0.34234914614E-02  0.24682374816E-03  0.17130000003E+03  0.17130000000E+03 0. -1.
      622    1    1    2    0    0  0.14220549264E-02 -0.20104171135E-02  0.39400588911E+01  0.39402626980E+01  0.40000000000E-01 0.  1.
</event>
<event>
 5   0  0.7212170E+07  0.9118800E+02  0.7818608E-02  0.1180000E+00
       11   -1    0    0    0    0  0.00000000000E+00  0.00000000000E+00  0.39999999673E+01  0.40000000000E+01  0.51109989000E-03 0.  1.
     -623   -1    0    0    0    0  0.00000000000E+00  0.00000000000E+00  0.12525980253E-10  0.17130000000E+03  0.17130000000E+03 0. -1.
       11    1    1    2    0    0  0.63496657083E-03 -0.10778110096E-02  0.29540130920E-02  0.32484266289E-02  0.51109989000E-03 0.  1.
     -623    1    1    2    0    0 -0.43646381668E-02 -0.28179618612E-02  0.49826705024E-03  0.17130000008E+03  0.17130000000E+03 0. -1.
      622    1    1    2    0    0  0.37296715961E-02  0.38957728709E-02  0.39965476874E+01  0.39967514940E+01  0.40000000000E-01 0.  1.
</event>
<event>
 5   0  0.7212170E+07  0.9118800E+02  0.7818608E-02  0.1180000E+00
       11   -1    0    0    0    0  0.00000000000E+00  0.00000000000E+00  0.39999999673E+01  0.40000000000E+01  0.51109989000E-03 0.  1.
     -623   -1    0    0    0    0  0.00000000000E+00  0.00000000000E+00  0.12525980253E-10  0.17130000000E+03  0.17130000000E+03 0.  1.
       11    1    1    2    0    0  0.92789568575E-02 -0.51429706083E-02  0.81635800059E-01  0.82323837747E-01  0.51109989000E-03 0.  1.
     -623    1    1    2    0    0  0.38432220241E-01 -0.26474049366E-02  0.11948458651E-02  0.17130000434E+03  0.17130000000E+03 0.  1.
      622    1    1    2    0    0 -0.47711177101E-01  0.77903755451E-02  0.39171693217E+01  0.39176718266E+01  0.40000000000E-01 0.  1.
</event>
<event>
 5   0  0.7212170E+07  0.9118800E+02  0.7818608E-02  0.1180000E+00
       11   -1    0    0    0    0  0.00000000000E+00  0.00000000000E+00  0.39999999673E+01  0.40000000000E+01  0.51109989000E-03 0.  1.
     -623   -1    0    0    0    0  0.00000000000E+00  0.00000000000E+00  0.12525980253E-10  0.17130000000E+03  0.17130000000E+03 0. -1.
       11    1    1    2    0    0  0.41507773156E-02  0.16224947220E-02  0.32370138981E-01  0.32679482282E-01  0.51109989000E-03 0.  1.
     -623    1    1    2    0    0 -0.68589047323E-03  0.78848112971E-03  0.51321291749E-03  0.17130000000E+03  0.17130000000E+03 0. -1.
      622    1    1    2    0    0 -0.34648868424E-02 -0.24109758517E-02  0.39671166156E+01  0.39673205139E+01  0.40000000000E-01 0.  1.
</event>
<event>
 5   0  0.7212170E+07  0.9118800E+02  0.7818608E-02  0.1180000E+00
       11   -1    0    0    0    0  0.00000000000E+00  0.00000000000E+00  0.39999999673E+01  0.40000000000E+01  0.51109989000E-03 0.  1.
     -623   -1    0    0    0    0  0.00000000000E+00  0.00000000000E+00  0.12525980253E-10  0.17130000000E+03  0.17130000000E+03 0. -1.
       11    1    1    2    0    0 -0.20344429327E-03  0.66459018020E-03  0.94366791024E-04  0.86786973498E-03  0.51109989000E-03 0.  1.
     -623    1    1    2    0    0 -0.82203065886E-02 -0.30994625226E-02  0.98336042326E-03  0.17130000023E+03  0.17130000000E+03 0. -1.
      622    1    1    2    0    0  0.84237508822E-02  0.24348723425E-02  0.39989222403E+01  0.39991319023E+01  0.40000000000E-01 0.  1.
</event>
<event>
 5   0  0.7212170E+07  0.9118800E+02  0.7818608E-02  0.1180000E+00
       11   -1    0    0    0    0  0.00000000000E+00  0.00000000000E+00  0.39999999673E+01  0.40000000000E+01  0.51109989000E-03 0. -1.
     -623   -1    0    0    0    0  0.00000000000E+00  0.00000000000E+00  0.12525980253E-10  0.17130000000E+03  0.17130000000E+03 0. -1.
       11    1    1    2    0    0  0.30345450537E-01 -0.15409315907E-01  0.59122769218E+00  0.59220666883E+00  0.51109989000E-03 0. -1.
     -623    1    1    2    0    0  0.27706217363E-02  0.89872673042E-03  0.14055575469E-02  0.17130000003E+03  0.17130000000E+03 0. -1.
      622    1    1    2    0    0 -0.33116072273E-01  0.14510589177E-01  0.34073667175E+01  0.34077933005E+01  0.40000000000E-01 0. -1.
</event>
<event>
 5   0  0.7212170E+07  0.9118800E+02  0.7818608E-02  0.1180000E+00
       11   -1    0    0    0    0  0.00000000000E+00  0.00000000000E+00  0.39999999673E+01  0.40000000000E+01  0.51109989000E-03 0. -1.
     -623   -1    0    0    0    0  0.00000000000E+00  0.00000000000E+00  0.12525980253E-10  0.17130000000E+03  0.17130000000E+03 0. -1.
       11    1    1    2    0    0  0.32141868036E-01  0.12678281912E-01  0.27664696952E+00  0.27879678169E+00  0.51109989000E-03 0. -1.
     -623    1    1    2    0    0  0.38538449998E-03 -0.19933835348E-01  0.25151951175E-02  0.17130000118E+03  0.17130000000E+03 0. -1.
      622    1    1    2    0    0 -0.32527252536E-01  0.72555534358E-02  0.37208378027E+01  0.37212020396E+01  0.40000000000E-01 0. -1.
</event>
<event>
 5   0  0.7212170E+07  0.9118800E+02  0.7818608E-02  0.1180000E+00
       11   -1    0    0    0    0  0.00000000000E+00  0.00000000000E+00  0.39999999673E+01  0.40000000000E+01  0.51109989000E-03 0.  1.
     -623   -1    0    0    0    0  0.00000000000E+00  0.00000000000E+00  0.12525980253E-10  0.17130000000E+03  0.17130000000E+03 0. -1.
       11    1    1    2    0    0 -0.37456187165E-02  0.12374391613E-01  0.14058008676E+01  0.14058604112E+01  0.51109989000E-03 0.  1.
     -623    1    1    2    0    0 -0.41064257507E-02 -0.46734703334E-02  0.39134687766E-03  0.17130000011E+03  0.17130000000E+03 0. -1.
      622    1    1    2    0    0  0.78520444672E-02 -0.77009212791E-02  0.25938077529E+01  0.25941394754E+01  0.40000000000E-01 0.  1.
</event>
<event>
 5   0  0.7212170E+07  0.9118800E+02  0.7818608E-02  0.1180000E+00
       11   -1    0    0    0    0  0.00000000000E+00  0.00000000000E+00  0.39999999673E+01  0.40000000000E+01  0.51109989000E-03 0.  1.
     -623   -1    0    0    0    0  0.00000000000E+00  0.00000000000E+00  0.12525980253E-10  0.17130000000E+03  0.17130000000E+03 0. -1.
       11    1    1    2    0    0  0.15986409228E-01 -0.89546254015E-02  0.21062128648E+01  0.21062926301E+01  0.51109989000E-03 0.  1.
     -623    1    1    2    0    0 -0.77485979440E-02  0.38202729131E-02  0.52733393483E-03  0.17130000022E+03  0.17130000000E+03 0. -1.
      622    1    1    2    0    0 -0.82378112827E-02  0.51343524881E-02  0.18932597691E+01  0.18937071517E+01  0.40000000000E-01 0. -1.
</event>
<event>
 5   0  0.7212170E+07  0.9118800E+02  0.7818608E-02  0.1180000E+00
       11   -1    0    0    0    0  0.00000000000E+00  0.00000000000E+00  0.39999999673E+01  0.40000000000E+01  0.51109989000E-03 0.  1.
     -623   -1    0    0    0    0  0.00000000000E+00  0.00000000000E+00  0.12525980253E-10  0.17130000000E+03  0.17130000000E+03 0.  1.
       11    1    1    2    0    0  0.13157325009E-01  0.16719010011E-02  0.19776634149E+01  0.19777079547E+01  0.51109989000E-03 0.  1.
     -623    1    1    2    0    0  0.45875727060E-02  0.31928775370E-02  0.52395067491E-03  0.17130000009E+03  0.17130000000E+03 0.  1.
      622    1    1    2    0    0 -0.17744897715E-01 -0.48647785385E-02  0.20218126024E+01  0.20222919538E+01  0.40000000000E-01 0.  0.
</event>
<event>
 5   0  0.7212170E+07  0.9118800E+02  0.7818608E-02  0.1180000E+00
       11   -1    0    0    0    0  0.00000000000E+00  0.00000000000E+00  0.39999999673E+01  0.40000000000E+01  0.51109989000E-03 0. -1.
     -623   -1    0    0    0    0  0.00000000000E+00  0.00000000000E+00  0.12525980253E-10  0.17130000000E+03  0.17130000000E+03 0.  1.
       11    1    1    2    0    0  0.52712831727E-02 -0.77786466850E-02  0.30512762110E+00  0.30527269801E+00  0.51109989000E-03 0. -1.
     -623    1    1    2    0    0 -0.88808820978E-04  0.76170475426E-03  0.37187598361E-03  0.17130000000E+03  0.17130000000E+03 0.  1.
      622    1    1    2    0    0 -0.51824743517E-02  0.70169419306E-02  0.36945004708E+01  0.36947273004E+01  0.40000000000E-01 0. -1.
</event>
<event>
 5   0  0.7212170E+07  0.9118800E+02  0.7818608E-02  0.1180000E+00
       11   -1    0    0    0    0  0.00000000000E+00  0.00000000000E+00  0.39999999673E+01  0.40000000000E+01  0.51109989000E-03 0. -1.
     -623   -1    0    0    0    0  0.00000000000E+00  0.00000000000E+00  0.12525980253E-10  0.17130000000E+03  0.17130000000E+03 0.  1.
       11    1    1    2    0    0  0.37504176655E-02  0.23681247461E-02  0.15568998402E+00  0.15575399191E+00  0.51109989000E-03 0. -1.
     -623    1    1    2    0    0  0.93937739803E-03 -0.10984461014E-02  0.27516092955E-03  0.17130000001E+03  0.17130000000E+03 0.  1.
      622    1    1    2    0    0 -0.46897950635E-02 -0.12696786448E-02  0.38440348222E+01  0.38442460016E+01  0.40000000000E-01 0. -1.
</event>
<event>
 5   0  0.7212170E+07  0.9118800E+02  0.7818608E-02  0.1180000E+00
       11   -1    0    0    0    0  0.00000000000E+00  0.00000000000E+00  0.39999999673E+01  0.40000000000E+01  0.51109989000E-03 0. -1.
     -623   -1    0    0    0    0  0.00000000000E+00  0.00000000000E+00  0.12525980253E-10  0.17130000000E+03  0.17130000000E+03 0.  1.
       11    1    1    2    0    0  0.45540433373E-03 -0.13112427328E-02  0.32289379459E-02  0.35516213154E-02  0.51109989000E-03 0.  1.
     -623    1    1    2    0    0  0.22663905687E-02  0.25538091277E-02  0.52398838237E-03  0.17130000003E+03  0.17130000000E+03 0.  1.
      622    1    1    2    0    0 -0.27217949026E-02 -0.12425663950E-02  0.39962470412E+01  0.39964483440E+01  0.40000000000E-01 0. -1.
</event>
<event>
 5   0  0.7212170E+07  0.9118800E+02  0.7818608E-02  0.1180000E+00
       11   -1    0    0    0    0  0.00000000000E+00  0.00000000000E+00  0.39999999673E+01  0.40000000000E+01  0.51109989000E-03 0. -1.
     -623   -1    0    0    0    0  0.00000000000E+00  0.00000000000E+00  0.12525980253E-10  0.17130000000E+03  0.17130000000E+03 0. -1.
       11    1    1    2    0    0  0.84906736435E-03  0.19148606253E-02  0.43953725612E-01  0.44006577063E-01  0.51109989000E-03 0. -1.
     -623    1    1    2    0    0  0.21456717549E-02 -0.24864020576E-02  0.25625533783E-03  0.17130000003E+03  0.17130000000E+03 0. -1.
      622    1    1    2    0    0 -0.29947391193E-02  0.57154143237E-03  0.39557899866E+01  0.39559933914E+01  0.40000000000E-01 0. -1.
</event>
<event>
 5   0  0.7212170E+07  0.9118800E+02  0.7818608E-02  0.1180000E+00
       11   -1    0    0    0    0  0.00000000000E+00  0.00000000000E+00  0.39999999673E+01  0.40000000000E+01  0.51109989000E-03 0. -1.
     -623   -1    0    0    0    0  0.00000000000E+00  0.00000000000E+00  0.12525980253E-10  0.17130000000E+03  0.17130000000E+03 0. -1.
       11    1    1    2    0    0 -0.40169939857E-01  0.24361261425E-01  0.13044563128E+00  0.13864854514E+00  0.51109989000E-03 0. -1.
     -623    1    1    2    0    0  0.37480415890E-01 -0.29277757928E-02  0.84748300236E-02  0.17130000434E+03  0.17130000000E+03 0. -1.
      622    1    1    2    0    0  0.26895239661E-02 -0.21433485632E-01  0.38610795061E+01  0.38613471199E+01  0.40000000000E-01 0. -1.
</event>
<event>
 5   0  0.7212170E+07  0.9118800E+02  0.7818608E-02  0.1180000E+00
       11   -1    0    0    0    0  0.00000000000E+00  0.00000000000E+00  0.39999999673E+01  0.40000000000E+01  0.51109989000E-03 0. -1.
     -623   -1    0    0    0    0  0.00000000000E+00  0.00000000000E+00  0.12525980253E-10  0.17130000000E+03  0.17130000000E+03 0. -1.
       11    1    1    2    0    0  0.18637034803E-01 -0.46950165237E-02  0.11259789426E+01  0.11261430738E+01  0.51109989000E-03 0. -1.
     -623    1    1    2    0    0  0.33467716807E-02 -0.36557781369E-04  0.53050552769E-03  0.17130000003E+03  0.17130000000E+03 0. -1.
      622    1    1    2    0    0 -0.21983806484E-01  0.47315743051E-02  0.28734905199E+01  0.28738568933E+01  0.40000000000E-01 0.  0.
</event>
<event>
 5   0  0.7212170E+07  0.9118800E+02  0.7818608E-02  0.1180000E+00
       11   -1    0    0    0    0  0.00000000000E+00  0.00000000000E+00  0.39999999673E+01  0.40000000000E+01  0.51109989000E-03 0.  1.
     -623   -1    0    0    0    0  0.00000000000E+00  0.00000000000E+00  0.12525980253E-10  0.17130000000E+03  0.17130000000E+03 0.  1.
       11    1    1    2    0    0  0.19462328361E-01 -0.55224182226E-02  0.24119145955E+01  0.24119994935E+01  0.51109989000E-03 0.  1.
     -623    1    1    2    0    0 -0.81122956354E-03 -0.15103833448E-02  0.71388006640E-03  0.17130000001E+03  0.17130000000E+03 0.  1.
      622    1    1    2    0    0 -0.18651098798E-01  0.70328015677E-02  0.15873714925E+01  0.15880004972E+01  0.40000000000E-01 0.  1.
</event>
<event>
 5   0  0.7212170E+07  0.9118800E+02  0.7818608E-02  0.1180000E+00
       11   -1    0    0    0    0  0.00000000000E+00  0.00000000000E+00  0.39999999673E+01  0.40000000000E+01  0.51109989000E-03 0.  1.
     -623   -1    0    0    0    0  0.00000000000E+00  0.00000000000E+00  0.12525980253E-10  0.17130000000E+03  0.17130000000E+03 0. -1.
       11    1    1    2    0    0  0.76504110041E-02  0.15915559845E-01  0.68988601744E+00  0.69011217357E+00  0.51109989000E-03 0.  1.
     -623    1    1    2    0    0  0.55004152814E-02 -0.60464089856E-05  0.53228804626E-03  0.17130000009E+03  0.17130000000E+03 0. -1.
      622    1    1    2    0    0 -0.13150826286E-01 -0.15909513436E-01  0.33095816625E+01  0.33098877379E+01  0.40000000000E-01 0.  1.
</event>
<event>
 5   0  0.7212170E+07  0.9118800E+02  0.7818608E-02  0.1180000E+00
       11   -1    0    0    0    0  0.00000000000E+00  0.00000000000E+00  0.39999999673E+01  0.40000000000E+01  0.51109989000E-03 0. -1.
     -623   -1    0    0    0    0  0.00000000000E+00  0.00000000000E+00  0.12525980253E-10  0.17130000000E+03  0.17130000000E+03 0.  1.
       11    1    1    2    0    0 -0.11618391502E-02  0.66482931690E-03  0.48568331627E-02  0.50637851158E-02  0.51109989000E-03 0. -1.
     -623    1    1    2    0    0  0.12980313092E-02 -0.76439087324E-03  0.40718851246E-03  0.17130000001E+03  0.17130000000E+03 0.  1.
      622    1    1    2    0    0 -0.13619215907E-03  0.99561556401E-04  0.39947359460E+01  0.39949362081E+01  0.40000000000E-01 0. -1.
</event>
<event>
 5   0  0.7212170E+07  0.9118800E+02  0.7818608E-02  0.1180000E+00
       11   -1    0    0    0    0  0.00000000000E+00  0.00000000000E+00  0.39999999673E+01  0.40000000000E+01  0.51109989000E-03 0. -1.
     -623   -1    0    0    0    0  0.00000000000E+00  0.00000000000E+00  0.12525980253E-10  0.17130000000E+03  0.17130000000E+03 0.  1.
       11    1    1    2    0    0 -0.11822183767E-03 -0.29906411032E-02  0.25455099214E-01  0.25635545825E-01  0.51109989000E-03 0. -1.
     -623    1    1    2    0    0  0.17512374955E-02  0.17417526518E-02  0.38225908908E-03  0.17130000002E+03  0.17130000000E+03 0.  1.
      622    1    1    2    0    0 -0.16330156583E-02  0.12488884510E-02  0.39741626101E+01  0.39743644370E+01  0.40000000000E-01 0. -1.
</event>
<event>
 5   0  0.7212170E+07  0.9118800E+02  0.7818608E-02  0.1180000E+00
       11   -1    0    0    0    0  0.00000000000E+00  0.00000000000E+00  0.39999999673E+01  0.40000000000E+01  0.51109989000E-03 0.  1.
     -623   -1    0    0    0    0  0.00000000000E+00  0.00000000000E+00  0.12525980253E-10  0.17130000000E+03  0.17130000000E+03 0. -1.
       11    1    1    2    0    0 -0.29190625005E-03 -0.82853169873E-03  0.25938832250E-01  0.25958734862E-01  0.51109989000E-03 0.  1.
     -623    1    1    2    0    0 -0.49786808317E-03  0.19545792543E-02  0.22143152655E-03  0.17130000001E+03  0.17130000000E+03 0. -1.
      622    1    1    2    0    0  0.78977433306E-03 -0.11260475549E-02  0.39738397023E+01  0.39740412518E+01  0.40000000000E-01 0.  1.
</event>
<event>
 5   0  0.7212170E+07  0.9118800E+02  0.7818608E-02  0.1180000E+00
       11   -1    0    0    0    0  0.00000000000E+00  0.00000000000E+00  0.39999999673E+01  0.40000000000E+01  0.51109989000E-03 0.  1.
     -623   -1    0    0    0    0  0.00000000000E+00  0.00000000000E+00  0.12525980253E-10  0.17130000000E+03  0.17130000000E+03 0.  1.
       11    1    1    2    0    0 -0.63836372400E-02 -0.58963030524E-02  0.14678865166E+01  0.14679123285E+01  0.51109989000E-03 0.  1.
     -623    1    1    2    0    0 -0.36045424094E-02 -0.37328289834E-02  0.37983675520E-03  0.17130000008E+03  0.17130000000E+03 0.  1.
      622    1    1    2    0    0  0.99881796496E-02  0.96291320360E-02  0.25317336141E+01  0.25320875927E+01  0.40000000000E-01 0.  0.
</event>
<event>
 5   0  0.7212170E+07  0.9118800E+02  0.7818608E-02  0.1180000E+00
       11   -1    0    0    0    0  0.00000000000E+00  0.00000000000E+00  0.39999999673E+01  0.40000000000E+01  0.51109989000E-03 0. -1.
     -623   -1    0    0    0    0  0.00000000000E+00  0.00000000000E+00  0.12525980253E-10  0.17130000000E+03  0.17130000000E+03 0.  1.
       11    1    1    2    0    0 -0.21358118606E-02  0.13185449856E-02  0.16888397243E-01  0.17081552556E-01  0.51109989000E-03 0. -1.
     -623    1    1    2    0    0  0.16212564126E-02 -0.30263649535E-03  0.39415667949E-03  0.17130000001E+03  0.17130000000E+03 0.  1.
      622    1    1    2    0    0  0.51455544774E-03 -0.10159084902E-02  0.39827174139E+01  0.39829184395E+01  0.40000000000E-01 0. -1.
</event>
<event>
 5   0  0.7212170E+07  0.9118800E+02  0.7818608E-02  0.1180000E+00
       11   -1    0    0    0    0  0.00000000000E+00  0.00000000000E+00  0.39999999673E+01  0.40000000000E+01  0.51109989000E-03 0.  1.
     -623   -1    0    0    0    0  0.00000000000E+00  0.00000000000E+00  0.12525980253E-10  0.17130000000E+03  0.17130000000E+03 0. -1.
       11    1    1    2    0    0  0.16331648850E-03  0.48193889579E-03  0.83605729490E-03  0.11041522869E-02  0.51109989000E-03 0.  1.
     -623    1    1    2    0    0  0.38178720265E-03 -0.61846173103E-03  0.46816424565E-03  0.17130000000E+03  0.17130000000E+03 0. -1.
      622    1    1    2    0    0 -0.54510369124E-03  0.13652283539E-03  0.39986957468E+01  0.39988958465E+01  0.40000000000E-01 0.  1.
</event>
<event>
 5   0  0.7212170E+07  0.9118800E+02  0.7818608E-02  0.1180000E+00
       11   -1    0    0    0    0  0.00000000000E+00  0.00000000000E+00  0.39999999673E+01  0.40000000000E+01  0.51109989000E-03 0.  1.
     -623   -1    0    0    0    0  0.00000000000E+00  0.00000000000E+00  0.12525980253E-10  0.17130000000E+03  0.17130000000E+03 0.  1.
       11    1    1    2    0    0  0.32273428022E-03 -0.15506933052E-02  0.23598554967E-01  0.23657172840E-01  0.51109989000E-03 0.  1.
     -623    1    1    2    0    0 -0.10200769502E-02  0.71971152393E-03  0.25993294991E-03  0.17130000000E+03  0.17130000000E+03 0.  1.
      622    1    1    2    0    0  0.69734267056E-03  0.83098178079E-03  0.39761414818E+01  0.39763428248E+01  0.40000000000E-01 0.  1.
</event>
<event>
 5   0  0.7212170E+07  0.9118800E+02  0.7818608E-02  0.1180000E+00
       11   -1    0    0    0    0  0.00000000000E+00  0.00000000000E+00  0.39999999673E+01  0.40000000000E+01  0.51109989000E-03 0. -1.
     -623   -1    0    0    0    0  0.00000000000E+00  0.00000000000E+00  0.12525980253E-10  0.17130000000E+03  0.17130000000E+03 0. -1.
       11    1    1    2    0    0  0.69967543355E-02 -0.14708359731E-02  0.21018136771E+00  0.21030355794E+00  0.51109989000E-03 0. -1.
     -623    1    1    2    0    0  0.17626990378E-03  0.48511517331E-02  0.34162779922E-03  0.17130000007E+03  0.17130000000E+03 0. -1.
      622    1    1    2    0    0 -0.71730242393E-02 -0.33803157582E-02  0.37894769703E+01  0.37896963714E+01  0.40000000000E-01 0. -1.
</event>
<event>
 5   0  0.7212170E+07  0.9118800E+02  0.7818608E-02  0.1180000E+00
       11   -1    0    0    0    0  0.00000000000E+00  0.00000000000E+00  0.39999999673E+01  0.40000000000E+01  0.51109989000E-03 0. -1.
     -623   -1    0    0    0    0  0.00000000000E+00  0.00000000000E+00  0.12525980253E-10  0.17130000000E+03  0.17130000000E+03 0.  1.
       11    1    1    2    0    0 -0.29925728003E-02 -0.12907493649E-01  0.59337095583E+00  0.59351909096E+00  0.51109989000E-03 0. -1.
     -623    1    1    2    0    0  0.67044683266E-02 -0.93756329988E-04  0.40992350629E-03  0.17130000013E+03  0.17130000000E+03 0.  1.
      622    1    1    2    0    0 -0.37118955277E-02  0.13001249979E-01  0.34062190889E+01  0.34064807782E+01  0.40000000000E-01 0. -1.
</event>
<event>
 5   0  0.7212170E+07  0.9118800E+02  0.7818608E-02  0.1180000E+00
       11   -1    0    0    0    0  0.00000000000E+00  0.00000000000E+00  0.39999999673E+01  0.40000000000E+01  0.51109989000E-03 0.  1.
     -623   -1    0    0    0    0  0.00000000000E+00  0.00000000000E+00  0.12525980253E-10  0.17130000000E+03  0.17130000000E+03 0.  1.
       11    1    1    2    0    0  0.26929896539E-02 -0.54342431048E-01  0.10396682141E+01  0.10410910665E+01  0.51109989000E-03 0.  1.
     -623    1    1    2    0    0  0.24594705334E-01  0.43554270052E-01  0.18460257271E-02  0.17130000731E+03  0.17130000000E+03 0.  1.
      622    1    1    2    0    0 -0.27287694988E-01  0.10788160997E-01  0.29584857275E+01  0.29589016210E+01  0.40000000000E-01 0.  1.
</event>
<event>
 5   0  0.7212170E+07  0.9118800E+02  0.7818608E-02  0.1180000E+00
       11   -1    0    0    0    0  0.00000000000E+00  0.00000000000E+00  0.39999999673E+01  0.40000000000E+01  0.51109989000E-03 0.  1.
     -623   -1    0    0    0    0  0.00000000000E+00  0.00000000000E+00  0.12525980253E-10  0.17130000000E+03  0.17130000000E+03 0. -1.
       11    1    1    2    0    0 -0.38015909338E-02 -0.10983356328E-01  0.17722596938E+01  0.17722978784E+01  0.51109989000E-03 0.  1.
     -623    1    1    2    0    0 -0.39901169452E-04  0.11315845987E-02  0.42240014783E-03  0.17130000000E+03  0.17130000000E+03 0. -1.
      622    1    1    2    0    0  0.38414921032E-02  0.98517717295E-02  0.22273178734E+01  0.22277021174E+01  0.40000000000E-01 0. -1.
</event>
<event>
 5   0  0.7212170E+07  0.9118800E+02  0.7818608E-02  0.1180000E+00
       11   -1    0    0    0    0  0.00000000000E+00  0.00000000000E+00  0.39999999673E+01  0.40000000000E+01  0.51109989000E-03 0.  1.
     -623   -1    0    0    0    0  0.00000000000E+00  0.00000000000E+00  0.12525980253E-10  0.17130000000E+03  0.17130000000E+03 0. -1.
       11    1    1    2    0    0  0.32953941680E-03 -0.22113140496E-03  0.27949946085E-02  0.28689219726E-02  0.51109989000E-03 0. -1.
     -623    1    1    2    0    0  0.57320584824E-03 -0.56413545053E-03  0.27422447804E-03  0.17130000000E+03  0.17130000000E+03 0. -1.
      622    1    1    2    0    0 -0.90274526513E-03  0.78526685558E-03  0.39969307489E+01  0.39971310765E+01  0.40000000000E-01 0.  1.
</event>
<event>
 5   0  0.7212170E+07  0.9118800E+02  0.7818608E-02  0.1180000E+00
       11   -1    0    0    0    0  0.00000000000E+00  0.00000000000E+00  0.39999999673E+01  0.40000000000E+01  0.51109989000E-03 0. -1.
     -623   -1    0    0    0    0  0.00000000000E+00  0.00000000000E+00  0.12525980253E-10  0.17130000000E+03  0.17130000000E+03 0. -1.
       11    1    1    2    0    0  0.13221957084E-02  0.97873673230E-03  0.70307060575E+00  0.70307271603E+00  0.51109989000E-03 0. -1.
     -623    1    1    2    0    0 -0.45714780957E-03 -0.96474720523E-03  0.24485377139E-03  0.17130000000E+03  0.17130000000E+03 0. -1.
      622    1    1    2    0    0 -0.86504789865E-03 -0.13989526591E-04  0.32966845098E+01  0.32969272825E+01  0.40000000000E-01 0. -1.
</event>
<event>
 5   0  0.7212170E+07  0.9118800E+02  0.7818608E-02  0.1180000E+00
       11   -1    0    0    0    0  0.00000000000E+00  0.00000000000E+00  0.39999999673E+01  0.40000000000E+01  0.51109989000E-03 0.  1.
     -623   -1    0    0    0    0  0.00000000000E+00  0.00000000000E+00  0.12525980253E-10  0.17130000000E+03  0.17130000000E+03 0. -1.
       11    1    1    2    0    0  0.37121480610E-02  0.54209616585E-03  0.57123279927E-01  0.57248617837E-01  0.51109989000E-03 0.  1.
     -623    1    1    2    0    0 -0.34307989307E-02 -0.35281102380E-03  0.32826410225E-03  0.17130000004E+03  0.17130000000E+03 0. -1.
      622    1    1    2    0    0 -0.28134912925E-03 -0.18928514194E-03  0.39425484246E+01  0.39427513484E+01  0.40000000000E-01 0.  1.
</event>
<event>
 5   0  0.7212170E+07  0.9118800E+02  0.7818608E-02  0.1180000E+00
       11   -1    0    0    0    0  0.00000000000E+00  0.00000000000E+00  0.39999999673E+01  0.40000000000E+01  0.51109989000E-03 0.  1.
     -623   -1    0    0    0    0  0.00000000000E+00  0.00000000000E+00  0.12525980253E-10  0.17130000000E+03  0.17130000000E+03 0.  1.
       11    1    1    2    0    0  0.14052677658E-01  0.67408995475E-02  0.32067838789E+00  0.32105732691E+00  0.51109989000E-03 0.  1.
     -623    1    1    2    0    0  0.13323088892E-02 -0.63582187053E-02  0.62868214542E-03  0.17130000012E+03  0.17130000000E+03 0.  1.
      622    1    1    2    0    0 -0.15384986547E-01 -0.38268084204E-03  0.36786928974E+01  0.36789425488E+01  0.40000000000E-01 0.  1.
</event>
<event>
 5   0  0.7212170E+07  0.9118800E+02  0.7818608E-02  0.1180000E+00
       11   -1    0    0    0    0  0.00000000000E+00  0.00000000000E+00  0.39999999673E+01  0.40000000000E+01  0.51109989000E-03 0. -1.
     -623   -1    0    0    0    0  0.00000000000E+00  0.00000000000E+00  0.12525980253E-10  0.17130000000E+03  0.17130000000E+03 0. -1.
       11    1    1    2    0    0  0.11727574537E-01  0.37707455376E-02  0.35657640681E+00  0.35678950327E+00  0.51109989000E-03 0. -1.
     -623    1    1    2    0    0 -0.83791186207E-03 -0.53220519546E-03  0.45037572913E-03  0.17130000000E+03  0.17130000000E+03 0. -1.
      622    1    1    2    0    0 -0.10889662674E-01 -0.32385403421E-02  0.36429731848E+01  0.36432104933E+01  0.40000000000E-01 0.  0.
</event>
<event>
 5   0  0.7212170E+07  0.9118800E+02  0.7818608E-02  0.1180000E+00
       11   -1    0    0    0    0  0.00000000000E+00  0.00000000000E+00  0.39999999673E+01  0.40000000000E+01  0.51109989000E-03 0. -1.
     -623   -1    0    0    0    0  0.00000000000E+00  0.00000000000E+00  0.12525980253E-10  0.17130000000E+03  0.17130000000E+03 0. -1.
       11    1    1    2    0    0  0.21652413773E-02 -0.13054481419E-02  0.17385065660E-01  0.17575386089E-01  0.51109989000E-03 0. -1.
     -623    1    1    2    0    0 -0.34263082720E-02 -0.23275234499E-03  0.39170712835E-03  0.17130000003E+03  0.17130000000E+03 0. -1.
      622    1    1    2    0    0  0.12610668949E-02  0.15382004868E-02  0.39822231947E+01  0.39824245792E+01  0.40000000000E-01 0. -1.
</event>
<event>
 5   0  0.7212170E+07  0.9118800E+02  0.7818608E-02  0.1180000E+00
       11   -1    0    0    0    0  0.00000000000E+00  0.00000000000E+00  0.39999999673E+01  0.40000000000E+01  0.51109989000E-03 0. -1.
     -623   -1    0    0    0    0  0.00000000000E+00  0.00000000000E+00  0.12525980253E-10  0.17130000000E+03  0.17130000000E+03 0. -1.
       11    1    1    2    0    0  0.17433937608E-02 -0.33706820440E-02  0.12221704925E+00  0.12227701856E+00  0.51109989000E-03 0. -1.
     -623    1    1    2    0    0  0.19505833133E-02 -0.38208374558E-03  0.26983612906E-03  0.17130000001E+03  0.17130000000E+03 0. -1.
      622    1    1    2    0    0 -0.36939770747E-02  0.37527657897E-02  0.38775130831E+01  0.38777229708E+01  0.40000000000E-01 0. -1.
</event>
<event>
 5   0  0.7212170E+07  0.9118800E+02  0.7818608E-02  0.1180000E+00
       11   -1    0    0    0    0  0.00000000000E+00  0.00000000000E+00  0.39999999673E+01  0.40000000000E+01  0.51109989000E-03 0.  1.
     -623   -1    0    0    0    0  0.00000000000E+00  0.00000000000E+00  0.12525980253E-10  0.17130000000E+03  0.17130000000E+03 0. -1.
       11    1    1    2    0    0  0.15378448740E-01  0.54166373383E-02  0.11124915745E+01  0.11126111635E+01  0.51109989000E-03 0.  1.
     -623    1    1    2    0    0 -0.11937576804E-02  0.23648305363E-02  0.44198996656E-03  0.17130000002E+03  0.17130000000E+03 0. -1.
      622    1    1    2    0    0 -0.14184691060E-01 -0.77814678746E-02  0.28870664030E+01  0.28873888156E+01  0.40000000000E-01 0.  1.
</event>
<event>
 5   0  0.7212170E+07  0.9118800E+02  0.7818608E-02  0.1180000E+00
       11   -1    0    0    0    0  0.00000000000E+00  0.00000000000E+00  0.39999999673E+01  0.40000000000E+01  0.51109989000E-03 0.  1.
     -623   -1    0    0    0    0  0.00000000000E+00  0.00000000000E+00  0.12525980253E-10  0.17130000000E+03  0.17130000000E+03 0. -1.
       11    1    1    2    0    0 -0.51059220921E-02 -0.80103810456E-02  0.99991060762E-01  0.10044257116E+00  0.51109989000E-03 0.  1.
     -623    1    1    2    0    0 -0.16582636380E-01 -0.40194490417E-02  0.73636027797E-03  0.17130000085E+03  0.17130000000E+03 0. -1.
      622    1    1    2    0    0  0.21688558472E-01  0.12029830087E-01  0.38992725464E+01  0.38995565776E+01  0.40000000000E-01 0.  1.
</event>
<event>
 5   0  0.7212170E+07  0.9118800E+02  0.7818608E-02  0.1180000E+00
       11   -1    0    0    0    0  0.00000000000E+00  0.00000000000E+00  0.39999999673E+01  0.40000000000E+01  0.51109989000E-03 0.  1.
     -623   -1    0    0    0    0  0.00000000000E+00  0.00000000000E+00  0.12525980253E-10  0.17130000000E+03  0.17130000000E+03 0. -1.
       11    1    1    2    0    0  0.81459892660E-03  0.12375599754E-03  0.22750886030E-01  0.22771537612E-01  0.51109989000E-03 0.  1.
     -623    1    1    2    0    0 -0.18071467618E-02 -0.62992926730E-03  0.22193602555E-03  0.17130000001E+03  0.17130000000E+03 0. -1.
      622    1    1    2    0    0  0.99254783551E-03  0.50617326988E-03  0.39770271461E+01  0.39772284523E+01  0.40000000000E-01 0.  1.
</event>
<event>
 5   0  0.7212170E+07  0.9118800E+02  0.7818608E-02  0.1180000E+00
       11   -1    0    0    0    0  0.00000000000E+00  0.00000000000E+00  0.39999999673E+01  0.40000000000E+01  0.51109989000E-03 0. -1.
     -623   -1    0    0    0    0  0.00000000000E+00  0.00000000000E+00  0.12525980253E-10  0.17130000000E+03  0.17130000000E+03 0. -1.
       11    1    1    2    0    0 -0.76143376388E-02 -0.42002036846E-02  0.36646505069E+00  0.36656856718E+00  0.51109989000E-03 0. -1.
     -623    1    1    2    0    0  0.71671483867E-02 -0.36971677657E-02  0.33246887469E-03  0.17130000019E+03  0.17130000000E+03 0. -1.
      622    1    1    2    0    0  0.44718925036E-03  0.78973714513E-02  0.36332024488E+01  0.36334312436E+01  0.40000000000E-01 0. -1.
</event>
<event>
 5   0  0.7212170E+07  0.9118800E+02  0.7818608E-02  0.1180000E+00
       11   -1    0    0    0    0  0.00000000000E+00  0.00000000000E+00  0.39999999673E+01  0.40000000000E+01  0.51109989000E-03 0.  1.
     -623   -1    0    0    0    0  0.00000000000E+00  0.00000000000E+00  0.12525980253E-10  0.17130000000E+03  0.17130000000E+03 0. -1.
       11    1    1    2    0    0 -0.46481960332E-02  0.56949438017E-02  0.10542555087E+00  0.10568276166E+00  0.51109989000E-03 0.  1.
     -623    1    1    2    0    0  0.17055296759E-02  0.90680741335E-02  0.49195641490E-03  0.17130000025E+03  0.17130000000E+03 0. -1.
      622    1    1    2    0    0  0.29426663573E-02 -0.14763017935E-01  0.38940824601E+01  0.38943169891E+01  0.40000000000E-01 0.  1.
</event>
<event>
 5   0  0.7212170E+07  0.9118800E+02  0.7818608E-02  0.1180000E+00
       11   -1    0    0    0    0  0.00000000000E+00  0.00000000000E+00  0.39999999673E+01  0.40000000000E+01  0.51109989000E-03 0. -1.
     -623   -1    0    0    0    0  0.00000000000E+00  0.00000000000E+00  0.12525980253E-10  0.17130000000E+03  0.17130000000E+03 0.  1.
       11    1    1    2    0    0 -0.10813106931E-01 -0.35905903313E-01  0.23080065008E+00  0.23382762555E+00  0.51109989000E-03 0. -1.
     -623    1    1    2    0    0  0.14874651499E-02  0.32700862701E-04  0.34218154012E-02  0.17130000004E+03  0.17130000000E+03 0.  1.
      622    1    1    2    0    0  0.93256417808E-02  0.35873202450E-01  0.37657775020E+01  0.37661723339E+01  0.40000000000E-01 0. -1.
</event>
<event>
 5   0  0.7212170E+07  0.9118800E+02  0.7818608E-02  0.1180000E+00
       11   -1    0    0    0    0  0.00000000000E+00  0.00000000000E+00  0.39999999673E+01  0.40000000000E+01  0.51109989000E-03 0.  1.
     -623   -1    0    0    0    0  0.00000000000E+00  0.00000000000E+00  0.12525980253E-10  0.17130000000E+03  0.17130000000E+03 0.  1.
       11    1    1    2    0    0  0.41212587140E-02  0.22043770118E-03  0.15929850198E-01  0.16463739448E-01  0.51109989000E-03 0.  1.
     -623    1    1    2    0    0 -0.20511879720E-02 -0.27893021145E-02  0.73609105869E-03  0.17130000004E+03  0.17130000000E+03 0.  1.
      622    1    1    2    0    0 -0.20700707419E-02  0.25688644134E-02  0.39833340262E+01  0.39835362241E+01  0.40000000000E-01 0.  1.
</event>
<event>
 5   0  0.7212170E+07  0.9118800E+02  0.7818608E-02  0.1180000E+00
       11   -1    0    0    0    0  0.00000000000E+00  0.00000000000E+00  0.39999999673E+01  0.40000000000E+01  0.51109989000E-03 0.  1.
     -623   -1    0    0    0    0  0.00000000000E+00  0.00000000000E+00  0.12525980253E-10  0.17130000000E+03  0.17130000000E+03 0.  1.
       11    1    1    2    0    0 -0.65919624297E-02 -0.11611520873E-01  0.92901327470E-01  0.93857334580E-01  0.51109989000E-03 0.  1.
     -623    1    1    2    0    0 -0.30982250473E-02  0.83804522397E-03  0.11876977359E-02  0.17130000003E+03  0.17130000000E+03 0.  1.
      622    1    1    2    0    0  0.96901874771E-02  0.10773475649E-01  0.39059109423E+01  0.39061426314E+01  0.40000000000E-01 0.  1.
</event>
<event>
 5   0  0.7212170E+07  0.9118800E+02  0.7818608E-02  0.1180000E+00
       11   -1    0    0    0    0  0.00000000000E+00  0.00000000000E+00  0.39999999673E+01  0.40000000000E+01  0.51109989000E-03 0.  1.
     -623   -1    0    0    0    0  0.00000000000E+00  0.00000000000E+00  0.12525980253E-10  0.17130000000E+03  0.17130000000E+03 0. -1.
       11    1    1    2    0    0 -0.62220033845E-02 -0.34256377651E-03  0.34099206387E+00  0.34104937988E+00  0.51109989000E-03 0.  1.
     -623    1    1    2    0    0  0.13915908370E-02  0.22913972789E-02  0.27966072561E-03  0.17130000002E+03  0.17130000000E+03 0. -1.
      622    1    1    2    0    0  0.48304125476E-02 -0.19488335021E-02  0.36587282424E+01  0.36589505985E+01  0.40000000000E-01 0.  1.
</event>
<event>
 5   0  0.7212170E+07  0.9118800E+02  0.7818608E-02  0.1180000E+00
       11   -1    0    0    0    0  0.00000000000E+00  0.00000000000E+00  0.39999999673E+01  0.40000000000E+01  0.51109989000E-03 0. -1.
     -623   -1    0    0    0    0  0.00000000000E+00  0.00000000000E+00  0.12525980253E-10  0.17130000000E+03  0.17130000000E+03 0. -1.
       11    1    1    2    0    0 -0.47422967957E-03  0.78319211133E-03  0.13965702587E-01  0.14005011800E-01  0.51109989000E-03 0. -1.
     -623    1    1    2    0    0 -0.76033513470E-03 -0.66393860000E-03  0.24018046136E-03  0.17130000000E+03  0.17130000000E+03 0. -1.
      622    1    1    2    0    0  0.12345648144E-02 -0.11925351121E-03  0.39857940850E+01  0.39859949858E+01  0.40000000000E-01 0. -1.
</event>
<event>
 5   0  0.7212170E+07  0.9118800E+02  0.7818608E-02  0.1180000E+00
       11   -1    0    0    0    0  0.00000000000E+00  0.00000000000E+00  0.39999999673E+01  0.40000000000E+01  0.51109989000E-03 0. -1.
     -623   -1    0    0    0    0  0.00000000000E+00  0.00000000000E+00  0.12525980253E-10  0.17130000000E+03  0.17130000000E+03 0.  1.
       11    1    1    2    0    0  0.11077686107E-01  0.25367687480E-02  0.10293008346E+01  0.10293636965E+01  0.51109989000E-03 0. -1.
     -623    1    1    2    0    0 -0.83160345884E-02 -0.46360604913E-02  0.33443461007E-03  0.17130000026E+03  0.17130000000E+03 0.  1.
      622    1    1    2    0    0 -0.27616515196E-02  0.20992917429E-02  0.29703646979E+01  0.29706360383E+01  0.40000000000E-01 0. -1.
</event>
<event>
 5   0  0.7212170E+07  0.9118800E+02  0.7818608E-02  0.1180000E+00
       11   -1    0    0    0    0  0.00000000000E+00  0.00000000000E+00  0.39999999673E+01  0.40000000000E+01  0.51109989000E-03 0.  1.
     -623   -1    0    0    0    0  0.00000000000E+00  0.00000000000E+00  0.12525980253E-10  0.17130000000E+03  0.17130000000E+03 0.  1.
       11    1    1    2    0    0  0.21536992874E-02 -0.40614566154E-03  0.27193895173E-01  0.27286856409E-01  0.51109989000E-03 0.  1.
     -623    1    1    2    0    0 -0.90883036560E-02  0.59080081351E-02  0.30451336643E-03  0.17130000034E+03  0.17130000000E+03 0.  1.
      622    1    1    2    0    0  0.69346043699E-02 -0.55018624743E-02  0.39725015594E+01  0.39727128009E+01  0.40000000000E-01 0.  1.
</event>
<event>
 5   0  0.7212170E+07  0.9118800E+02  0.7818608E-02  0.1180000E+00
       11   -1    0    0    0    0  0.00000000000E+00  0.00000000000E+00  0.39999999673E+01  0.40000000000E+01  0.51109989000E-03 0.  1.
     -623   -1    0    0    0    0  0.00000000000E+00  0.00000000000E+00  0.12525980253E-10  0.17130000000E+03  0.17130000000E+03 0.  1.
       11    1    1    2    0    0  0.18356848476E-02  0.11586091913E-02  0.62935610988E-02  0.66769939733E-02  0.51109989000E-03 0.  1.
     -623    1    1    2    0    0  0.90705278470E-03 -0.59738692843E-04  0.58483622347E-03  0.17130000000E+03  0.17130000000E+03 0.  1.
      622    1    1    2    0    0 -0.27427376323E-02 -0.10988704984E-02  0.39931215701E+01  0.39933230027E+01  0.40000000000E-01 0.  1.
</event>
<event>
 5   0  0.7212170E+07  0.9118800E+02  0.7818608E-02  0.1180000E+00
       11   -1    0    0    0    0  0.00000000000E+00  0.00000000000E+00  0.39999999673E+01  0.40000000000E+01  0.51109989000E-03 0. -1.
     -623   -1    0    0    0    0  0.00000000000E+00  0.00000000000E+00  0.12525980253E-10  0.17130000000E+03  0.17130000000E+03 0.  1.
       11    1    1    2    0    0  0.19805704214E-02 -0.11795219389E-01  0.24748609601E+00  0.24777546044E+00  0.51109989000E-03 0. -1.
     -623    1    1    2    0    0 -0.51966816958E-02  0.13484937540E-02  0.51855145728E-03  0.17130000008E+03  0.17130000000E+03 0.  1.
      622    1    1    2    0    0  0.32161112752E-02  0.10446725635E-01  0.37519953205E+01  0.37522244553E+01  0.40000000000E-01 0. -1.
</event>
<event>
 5   0  0.7212170E+07  0.9118800E+02  0.7818608E-02  0.1180000E+00
       11   -1    0    0    0    0  0.00000000000E+00  0.00000000000E+00  0.39999999673E+01  0.40000000000E+01  0.51109989000E-03 0.  1.
     -623   -1    0    0    0    0  0.00000000000E+00  0.00000000000E+00  0.12525980253E-10  0.17130000000E+03  0.17130000000E+03 0. -1.
       11    1    1    2    0    0  0.19429170427E-02  0.57934578899E-03  0.29597670549E+00  0.29598409076E+00  0.51109989000E-03 0.  1.
     -623    1    1    2    0    0  0.54742071605E-02  0.33186664639E-02  0.23293838149E-03  0.17130000012E+03  0.17130000000E+03 0. -1.
      622    1    1    2    0    0 -0.74171242029E-02 -0.38980122526E-02  0.37037903232E+01  0.37040157892E+01  0.40000000000E-01 0.  0.
</event>
<event>
 5   0  0.7212170E+07  0.9118800E+02  0.7818608E-02  0.1180000E+00
       11   -1    0    0    0    0  0.00000000000E+00  0.00000000000E+00  0.39999999673E+01  0.40000000000E+01  0.51109989000E-03 0.  1.
     -623   -1    0    0    0    0  0.00000000000E+00  0.00000000000E+00  0.12525980253E-10  0.17130000000E+03  0.17130000000E+03 0. -1.
       11    1    1    2    0    0  0.25679262343E-03 -0.28769672933E-03  0.38565435675E-02  0.39093302809E-02  0.51109989000E-03 0.  1.
     -623    1    1    2    0    0 -0.34629028022E-03  0.27768139838E-03  0.25295652262E-03  0.17130000000E+03  0.17130000000E+03 0. -1.
      622    1    1    2    0    0  0.89497656813E-04  0.10015330935E-04  0.39958904676E+01  0.39960906693E+01  0.40000000000E-01 0.  1.
</event>
<event>
 5   0  0.7212170E+07  0.9118800E+02  0.7818608E-02  0.1180000E+00
       11   -1    0    0    0    0  0.00000000000E+00  0.00000000000E+00  0.39999999673E+01  0.40000000000E+01  0.51109989000E-03 0.  1.
     -623   -1    0    0    0    0  0.00000000000E+00  0.00000000000E+00  0.12525980253E-10  0.17130000000E+03  0.17130000000E+03 0. -1.
       11    1    1    2    0    0 -0.57669768842E-02 -0.76428034081E-02  0.59282016181E+00  0.59289769432E+00  0.51109989000E-03 0.  1.
     -623    1    1    2    0    0 -0.72186918139E-02  0.42228103547E-03  0.34486451776E-03  0.17130000015E+03  0.17130000000E+03 0. -1.
      622    1    1    2    0    0  0.12985668700E-01  0.72205223725E-02  0.34068349423E+01  0.34071021539E+01  0.40000000000E-01 0.  1.
</event>
<event>
 5   0  0.7212170E+07  0.9118800E+02  0.7818608E-02  0.1180000E+00
       11   -1    0    0    0    0  0.00000000000E+00  0.00000000000E+00  0.39999999673E+01  0.40000000000E+01  0.51109989000E-03 0.  1.
     -623   -1    0    0    0    0  0.00000000000E+00  0.00000000000E+00  0.12525980253E-10  0.17130000000E+03  0.17130000000E+03 0. -1.
       11    1    1    2    0    0  0.10989998184E-02 -0.50055928535E-02  0.56212242813E-01  0.56447685742E-01  0.51109989000E-03 0.  1.
     -623    1    1    2    0    0 -0.30800322459E-02  0.19082583808E-02  0.44003119799E-03  0.17130000004E+03  0.17130000000E+03 0. -1.
      622    1    1    2    0    0  0.19810324275E-02  0.30973344727E-02  0.39433476934E+01  0.39435522754E+01  0.40000000000E-01 0.  1.
</event>
<event>
 5   0  0.7212170E+07  0.9118800E+02  0.7818608E-02  0.1180000E+00
       11   -1    0    0    0    0  0.00000000000E+00  0.00000000000E+00  0.39999999673E+01  0.40000000000E+01  0.51109989000E-03 0. -1.
     -623   -1    0    0    0    0  0.00000000000E+00  0.00000000000E+00  0.12525980253E-10  0.17130000000E+03  0.17130000000E+03 0.  1.
       11    1    1    2    0    0  0.11924327695E-01 -0.42971629159E-02  0.27707379363E+00  0.27736402712E+00  0.51109989000E-03 0. -1.
     -623    1    1    2    0    0  0.14334079093E-02  0.45810958308E-02  0.52915432661E-03  0.17130000007E+03  0.17130000000E+03 0.  1.
      622    1    1    2    0    0 -0.13357735604E-01 -0.28393291517E-03  0.37223970197E+01  0.37226359051E+01  0.40000000000E-01 0. -1.
</event>
<event>
 5   0  0.7212170E+07  0.9118800E+02  0.7818608E-02  0.1180000E+00
       11   -1    0    0    0    0  0.00000000000E+00  0.00000000000E+00  0.39999999673E+01  0.40000000000E+01  0.51109989000E-03 0.  1.
     -623   -1    0    0    0    0  0.00000000000E+00  0.00000000000E+00  0.12525980253E-10  0.17130000000E+03  0.17130000000E+03 0. -1.
       11    1    1    2    0    0  0.16130516644E-02  0.91050052281E-03  0.38275046728E-01  0.38323248453E-01  0.51109989000E-03 0.  1.
     -623    1    1    2    0    0  0.40069160208E-03  0.96529389105E-04  0.25074943065E-03  0.17130000000E+03  0.17130000000E+03 0. -1.
      622    1    1    2    0    0 -0.20137432667E-02 -0.10070299120E-02  0.39614741732E+01  0.39616767528E+01  0.40000000000E-01 0.  1.
</event>
<event>
 5   0  0.7212170E+07  0.9118800E+02  0.7818608E-02  0.1180000E+00
       11   -1    0    0    0    0  0.00000000000E+00  0.00000000000E+00  0.39999999673E+01  0.40000000000E+01  0.51109989000E-03 0. -1.
     -623   -1    0    0    0    0  0.00000000000E+00  0.00000000000E+00  0.12525980253E-10  0.17130000000E+03  0.17130000000E+03 0.  1.
       11    1    1    2    0    0 -0.24211920824E-02  0.21053050538E-02  0.16144208848E-01  0.16467883376E-01  0.51109989000E-03 0. -1.
     -623    1    1    2    0    0  0.10459725214E-02  0.10687883117E-02  0.52598310603E-03  0.17130000001E+03  0.17130000000E+03 0.  1.
      622    1    1    2    0    0  0.13752195611E-02 -0.31740933653E-02  0.39833297749E+01  0.39835321088E+01  0.40000000000E-01 0. -1.
</event>
<event>
 5   0  0.7212170E+07  0.9118800E+02  0.7818608E-02  0.1180000E+00
       11   -1    0    0    0    0  0.00000000000E+00  0.00000000000E+00  0.39999999673E+01  0.40000000000E+01  0.51109989000E-03 0. -1.
     -623   -1    0    0    0    0  0.00000000000E+00  0.00000000000E+00  0.12525980253E-10  0.17130000000E+03  0.17130000000E+03 0.  1.
       11    1    1    2    0    0 -0.10189342731E-01  0.49026249556E-02  0.92832424134E+00  0.92839324466E+00  0.51109989000E-03 0. -1.
     -623    1    1    2    0    0  0.35660661646E-01 -0.16984288523E-01  0.46337163810E-03  0.17130000455E+03  0.17130000000E+03 0.  1.
      622    1    1    2    0    0 -0.25471318927E-01  0.12081663573E-01  0.30712123557E+01  0.30716022022E+01  0.40000000000E-01 0.  0.
</event>
<event>
 5   0  0.7212170E+07  0.9118800E+02  0.7818608E-02  0.1180000E+00
       11   -1    0    0    0    0  0.00000000000E+00  0.00000000000E+00  0.39999999673E+01  0.40000000000E+01  0.51109989000E-03 0. -1.
     -623   -1    0    0    0    0  0.00000000000E+00  0.00000000000E+00  0.12525980253E-10  0.17130000000E+03  0.17130000000E+03 0.  1.
       11    1    1    2    0    0  0.52609949719E-02 -0.10874554758E-02  0.80769712984E-01  0.80949789290E-01  0.51109989000E-03 0. -1.
     -623    1    1    2    0    0 -0.37290722946E-01 -0.66803054196E-02  0.52696493529E-03  0.17130000419E+03  0.17130000000E+03 0.  1.
      622    1    1    2    0    0  0.32029727984E-01  0.77677608972E-02  0.39187032906E+01  0.39190460218E+01  0.40000000000E-01 0. -1.
</event>
<event>
 5   0  0.7212170E+07  0.9118800E+02  0.7818608E-02  0.1180000E+00
       11   -1    0    0    0    0  0.00000000000E+00  0.00000000000E+00  0.39999999673E+01  0.40000000000E+01  0.51109989000E-03 0.  1.
     -623   -1    0    0    0    0  0.00000000000E+00  0.00000000000E+00  0.12525980253E-10  0.17130000000E+03  0.17130000000E+03 0.  1.
       11    1    1    2    0    0  0.14210957740E-02  0.63902523414E-02  0.10586925832E+00  0.10607269167E+00  0.51109989000E-03 0.  1.
     -623    1    1    2    0    0  0.13893271094E-02 -0.66417747958E-02  0.41001151411E-03  0.17130000013E+03  0.17130000000E+03 0.  1.
      622    1    1    2    0    0 -0.28104228834E-02  0.25152245431E-03  0.38937206974E+01  0.38939271734E+01  0.40000000000E-01 0.  1.
</event>
<event>
 5   0  0.7212170E+07  0.9118800E+02  0.7818608E-02  0.1180000E+00
       11   -1    0    0    0    0  0.00000000000E+00  0.00000000000E+00  0.39999999673E+01  0.40000000000E+01  0.51109989000E-03 0.  1.
     -623   -1    0    0    0    0  0.00000000000E+00  0.00000000000E+00  0.12525980253E-10  0.17130000000E+03  0.17130000000E+03 0. -1.
       11    1    1    2    0    0 -0.26515456176E-01 -0.26720255717E-01  0.86617516507E+00  0.86699291767E+00  0.51109989000E-03 0.  1.
     -623    1    1    2    0    0  0.43276739152E-03  0.13481341940E-01  0.12101678095E-02  0.17130000054E+03  0.17130000000E+03 0. -1.
      622    1    1    2    0    0  0.26082688784E-01  0.13238913776E-01  0.31326146346E+01  0.31330065471E+01  0.40000000000E-01 0.  1.
</event>
<event>
 5   0  0.7212170E+07  0.9118800E+02  0.7818608E-02  0.1180000E+00
       11   -1    0    0    0    0  0.00000000000E+00  0.00000000000E+00  0.39999999673E+01  0.40000000000E+01  0.51109989000E-03 0.  1.
     -623   -1    0    0    0    0  0.00000000000E+00  0.00000000000E+00  0.12525980253E-10  0.17130000000E+03  0.17130000000E+03 0.  1.
       11    1    1    2    0    0 -0.32465261733E-03  0.15636100093E-02  0.50645092684E-01  0.50672841954E-01  0.51109989000E-03 0.  1.
     -623    1    1    2    0    0  0.16741804645E-03 -0.44308016469E-03  0.23045088565E-03  0.17130000000E+03  0.17130000000E+03 0.  1.
      622    1    1    2    0    0  0.15723457087E-03 -0.11205298446E-02  0.39491244239E+01  0.39493271574E+01  0.40000000000E-01 0.  1.
</event>
<event>
 5   0  0.7212170E+07  0.9118800E+02  0.7818608E-02  0.1180000E+00
       11   -1    0    0    0    0  0.00000000000E+00  0.00000000000E+00  0.39999999673E+01  0.40000000000E+01  0.51109989000E-03 0.  1.
     -623   -1    0    0    0    0  0.00000000000E+00  0.00000000000E+00  0.12525980253E-10  0.17130000000E+03  0.17130000000E+03 0.  1.
       11    1    1    2    0    0  0.21682072964E-01 -0.13001799399E-01  0.97131920402E+00  0.97164829872E+00  0.51109989000E-03 0.  1.
     -623    1    1    2    0    0  0.72943578560E-02  0.30551109264E-01  0.78562602248E-03  0.17130000288E+03  0.17130000000E+03 0.  1.
      622    1    1    2    0    0 -0.28976430820E-01 -0.17549309868E-01  0.30278951376E+01  0.30283488201E+01  0.40000000000E-01 0.  1.
</event>
<event>
 5   0  0.7212170E+07  0.9118800E+02  0.7818608E-02  0.1180000E+00
       11   -1    0    0    0    0  0.00000000000E+00  0.00000000000E+00  0.39999999673E+01  0.40000000000E+01  0.51109989000E-03 0. -1.
     -623   -1    0    0    0    0  0.00000000000E+00  0.00000000000E+00  0.12525980253E-10  0.17130000000E+03  0.17130000000E+03 0. -1.
       11    1    1    2    0    0  0.84270735023E-03  0.51640583807E-03  0.52763230082E-03  0.12314420856E-02  0.51109989000E-03 0. -1.
     -623    1    1    2    0    0 -0.15970990286E-02 -0.57706419175E-03  0.90392616722E-03  0.17130000001E+03  0.17130000000E+03 0. -1.
      622    1    1    2    0    0  0.75439167829E-03  0.60658353658E-04  0.39985684087E+01  0.39987685469E+01  0.40000000000E-01 0. -1.
</event>
<event>
 5   0  0.7212170E+07  0.9118800E+02  0.7818608E-02  0.1180000E+00
       11   -1    0    0    0    0  0.00000000000E+00  0.00000000000E+00  0.39999999673E+01  0.40000000000E+01  0.51109989000E-03 0. -1.
     -623   -1    0    0    0    0  0.00000000000E+00  0.00000000000E+00  0.12525980253E-10  0.17130000000E+03  0.17130000000E+03 0. -1.
       11    1    1    2    0    0  0.11804289256E-02  0.38868361735E-03  0.51231314624E-01  0.51248934707E-01  0.51109989000E-03 0. -1.
     -623    1    1    2    0    0 -0.10947391047E-02  0.54035305735E-04  0.22021774114E-03  0.17130000000E+03  0.17130000000E+03 0. -1.
      622    1    1    2    0    0 -0.85689820485E-04 -0.44271892311E-03  0.39485484366E+01  0.39487510633E+01  0.40000000000E-01 0. -1.
</event>
<event>
 5   0  0.7212170E+07  0.9118800E+02  0.7818608E-02  0.1180000E+00
       11   -1    0    0    0    0  0.00000000000E+00  0.00000000000E+00  0.39999999673E+01  0.40000000000E+01  0.51109989000E-03 0. -1.
     -623   -1    0    0    0    0  0.00000000000E+00  0.00000000000E+00  0.12525980253E-10  0.17130000000E+03  0.17130000000E+03 0.  1.
       11    1    1    2    0    0  0.26188578818E-02 -0.93026514945E-02  0.11258043596E+00  0.11299563498E+00  0.51109989000E-03 0. -1.
     -623    1    1    2    0    0  0.19862946135E-02 -0.16257486221E-02  0.63909799142E-03  0.17130000002E+03  0.17130000000E+03 0.  1.
      622    1    1    2    0    0 -0.46051524956E-02  0.10928400117E-01  0.38867804339E+01  0.38870043451E+01  0.40000000000E-01 0. -1.
</event>
<event>
 5   0  0.7212170E+07  0.9118800E+02  0.7818608E-02  0.1180000E+00
       11   -1    0    0    0    0  0.00000000000E+00  0.00000000000E+00  0.39999999673E+01  0.40000000000E+01  0.51109989000E-03 0.  1.
     -623   -1    0    0    0    0  0.00000000000E+00  0.00000000000E+00  0.12525980253E-10  0.17130000000E+03  0.17130000000E+03 0. -1.
       11    1    1    2    0    0 -0.38334457419E-02 -0.13149659865E-02  0.15688876254E-01  0.16211924716E-01  0.51109989000E-03 0.  1.
     -623    1    1    2    0    0 -0.60224984919E-02  0.27482254797E-03  0.73627075186E-03  0.17130000011E+03  0.17130000000E+03 0. -1.
      622    1    1    2    0    0  0.98559442338E-02  0.10401434386E-02  0.39835748203E+01  0.39837879676E+01  0.40000000000E-01 0.  1.
</event>
<event>
 5   0  0.7212170E+07  0.9118800E+02  0.7818608E-02  0.1180000E+00
       11   -1    0    0    0    0  0.00000000000E+00  0.00000000000E+00  0.39999999673E+01  0.40000000000E+01  0.51109989000E-03 0.  1.
     -623   -1    0    0    0    0  0.00000000000E+00  0.00000000000E+00  0.12525980253E-10  0.17130000000E+03  0.17130000000E+03 0. -1.
       11    1    1    2    0    0 -0.16765726162E-01  0.18004884817E-01  0.99361400170E+00  0.99391866421E+00  0.51109989000E-03 0.  1.
     -623    1    1    2    0    0  0.26573002887E-02 -0.61118374021E-02  0.62753910083E-03  0.17130000013E+03  0.17130000000E+03 0. -1.
      622    1    1    2    0    0  0.14108425873E-01 -0.11893047415E-01  0.30057584269E+01  0.30060812053E+01  0.40000000000E-01 0.  0.
</event>
<event>
 5   0  0.7212170E+07  0.9118800E+02  0.7818608E-02  0.1180000E+00
       11   -1    0    0    0    0  0.00000000000E+00  0.00000000000E+00  0.39999999673E+01  0.40000000000E+01  0.51109989000E-03 0. -1.
     -623   -1    0    0    0    0  0.00000000000E+00  0.00000000000E+00  0.12525980253E-10  0.17130000000E+03  0.17130000000E+03 0.  1.
       11    1    1    2    0    0 -0.20809042836E-02  0.97753820312E-03  0.51705371604E-02  0.56816741548E-02  0.51109989000E-03 0. -1.
     -623    1    1    2    0    0  0.49618925875E-02  0.47922266155E-02  0.71674071085E-03  0.17130000014E+03  0.17130000000E+03 0.  1.
      622    1    1    2    0    0 -0.28809883038E-02 -0.57697648186E-02  0.39941126894E+01  0.39943181854E+01  0.40000000000E-01 0. -1.
</event>
<event>
 5   0  0.7212170E+07  0.9118800E+02  0.7818608E-02  0.1180000E+00
       11   -1    0    0    0    0  0.00000000000E+00  0.00000000000E+00  0.39999999673E+01  0.40000000000E+01  0.51109989000E-03 0.  1.
     -623   -1    0    0    0    0  0.00000000000E+00  0.00000000000E+00  0.12525980253E-10  0.17130000000E+03  0.17130000000E+03 0. -1.
       11    1    1    2    0    0  0.50481743428E-02  0.38695774049E-02  0.25945080154E-01  0.26718272788E-01  0.51109989000E-03 0.  1.
     -623    1    1    2    0    0  0.55591272866E-02 -0.25198077107E-01  0.10478655222E-02  0.17130000195E+03  0.17130000000E+03 0. -1.
      622    1    1    2    0    0 -0.10607301629E-01  0.21328499702E-01  0.39730070218E+01  0.39732797806E+01  0.40000000000E-01 0.  1.
</event>
<event>
 5   0  0.7212170E+07  0.9118800E+02  0.7818608E-02  0.1180000E+00
       11   -1    0    0    0    0  0.00000000000E+00  0.00000000000E+00  0.39999999673E+01  0.40000000000E+01  0.51109989000E-03 0.  1.
     -623   -1    0    0    0    0  0.00000000000E+00  0.00000000000E+00  0.12525980253E-10  0.17130000000E+03  0.17130000000E+03 0.  1.
       11    1    1    2    0    0  0.56971135035E-01  0.17095382690E-01  0.12625533096E+01  0.12639537504E+01  0.51109989000E-03 0.  1.
     -623    1    1    2    0    0 -0.11375263616E-01  0.19229428586E-03  0.21278293522E-02  0.17130000039E+03  0.17130000000E+03 0.  1.
      622    1    1    2    0    0 -0.45595871419E-01 -0.17287676976E-01  0.27353188285E+01  0.27360458587E+01  0.40000000000E-01 0.  1.
</event>
<event>
 5   0  0.7212170E+07  0.9118800E+02  0.7818608E-02  0.1180000E+00
       11   -1    0    0    0    0  0.00000000000E+00  0.00000000000E+00  0.39999999673E+01  0.40000000000E+01  0.51109989000E-03 0. -1.
     -623   -1    0    0    0    0  0.00000000000E+00  0.00000000000E+00  0.12525980253E-10  0.17130000000E+03  0.17130000000E+03 0.  1.
       11    1    1    2    0    0 -0.19004415377E-02 -0.49221523918E-02  0.40703705425E-01  0.41047437443E-01  0.51109989000E-03 0. -1.
     -623    1    1    2    0    0 -0.29896706667E-03  0.92131443186E-03  0.54841446574E-03  0.17130000000E+03  0.17130000000E+03 0.  1.
      622    1    1    2    0    0  0.21994086044E-02  0.40008379599E-02  0.39587478479E+01  0.39589525594E+01  0.40000000000E-01 0. -1.
</event>
<event>
 5   0  0.7212170E+07  0.9118800E+02  0.7818608E-02  0.1180000E+00
       11   -1    0    0    0    0  0.00000000000E+00  0.00000000000E+00  0.39999999673E+01  0.40000000000E+01  0.51109989000E-03 0.  1.
     -623   -1    0    0    0    0  0.00000000000E+00  0.00000000000E+00  0.12525980253E-10  0.17130000000E+03  0.17130000000E+03 0.  1.
       11    1    1    2    0    0 -0.60202693464E-01  0.30737678692E-01  0.21756333708E+00  0.22782281725E+00  0.51109989000E-03 0.  1.
     -623    1    1    2    0    0  0.98598223465E-02  0.36482839859E-03  0.10936378392E-01  0.17130000063E+03  0.17130000000E+03 0.  1.
      622    1    1    2    0    0  0.50342871118E-01 -0.31102507091E-01  0.37715002519E+01  0.37721765496E+01  0.40000000000E-01 0.  1.
</event>
<event>
 5   0  0.7212170E+07  0.9118800E+02  0.7818608E-02  0.1180000E+00
       11   -1    0    0    0    0  0.00000000000E+00  0.00000000000E+00  0.39999999673E+01  0.40000000000E+01  0.51109989000E-03 0.  1.
     -623   -1    0    0    0    0  0.00000000000E+00  0.00000000000E+00  0.12525980253E-10  0.17130000000E+03  0.17130000000E+03 0. -1.
       11    1    1    2    0    0  0.18056452256E-02  0.24465087447E-02  0.13946126976E-01  0.14282907283E-01  0.51109989000E-03 0.  1.
     -623    1    1    2    0    0 -0.14695838318E-02 -0.56816831005E-03  0.53793430792E-03  0.17130000001E+03  0.17130000000E+03 0. -1.
      622    1    1    2    0    0 -0.33606139379E-03 -0.18783404347E-02  0.39855159062E+01  0.39857170848E+01  0.40000000000E-01 0.  1.
</event>
<event>
 5   0  0.7212170E+07  0.9118800E+02  0.7818608E-02  0.1180000E+00
       11   -1    0    0    0    0  0.00000000000E+00  0.00000000000E+00  0.39999999673E+01  0.40000000000E+01  0.51109989000E-03 0. -1.
     -623   -1    0    0    0    0  0.00000000000E+00  0.00000000000E+00  0.12525980253E-10  0.17130000000E+03  0.17130000000E+03 0.  1.
       11    1    1    2    0    0 -0.16016535158E-03 -0.23978497516E-02  0.77568455116E-02  0.81366585131E-02  0.51109989000E-03 0. -1.
     -623    1    1    2    0    0  0.32764919834E-03  0.62171951479E-02  0.58213793422E-03  0.17130000011E+03  0.17130000000E+03 0.  1.
      622    1    1    2    0    0 -0.16748384678E-03 -0.38193453967E-02  0.39916609841E+01  0.39918632276E+01  0.40000000000E-01 0. -1.
</event>
<event>
 5   0  0.7212170E+07  0.9118800E+02  0.7818608E-02  0.1180000E+00
       11   -1    0    0    0    0  0.00000000000E+00  0.00000000000E+00  0.39999999673E+01  0.40000000000E+01  0.51109989000E-03 0.  1.
     -623   -1    0    0    0    0  0.00000000000E+00  0.00000000000E+00  0.12525980253E-10  0.17130000000E+03  0.17130000000E+03 0.  1.
       11    1    1    2    0    0 -0.93115203164E-03 -0.19193566321E-02  0.12089928057E-02  0.25047675918E-02  0.51109989000E-03 0.  1.
     -623    1    1    2    0    0  0.21127904026E-02 -0.39767675401E-02  0.15004613672E-02  0.17130000007E+03  0.17130000000E+03 0.  1.
      622    1    1    2    0    0 -0.11816383712E-02  0.58961241726E-02  0.39972905137E+01  0.39974951671E+01  0.40000000000E-01 0.  1.
</event>
<event>
 5   0  0.7212170E+07  0.9118800E+02  0.7818608E-02  0.1180000E+00
       11   -1    0    0    0    0  0.00000000000E+00  0.00000000000E+00  0.39999999673E+01  0.40000000000E+01  0.51109989000E-03 0. -1.
     -623   -1    0    0    0    0  0.00000000000E+00  0.00000000000E+00  0.12525980253E-10  0.17130000000E+03  0.17130000000E+03 0.  1.
       11    1    1    2    0    0 -0.27981526487E-03  0.13689071250E-01  0.24739716942E+00  0.24777628948E+00  0.51109989000E-03 0. -1.
     -623    1    1    2    0    0  0.76603254510E-03 -0.32641966195E-01  0.64331466285E-03  0.17130000311E+03  0.17130000000E+03 0.  1.
      622    1    1    2    0    0 -0.48621728010E-03  0.18952894940E-01  0.37519594826E+01  0.37522205969E+01  0.40000000000E-01 0. -1.
</event>
<event>
 5   0  0.7212170E+07  0.9118800E+02  0.7818608E-02  0.1180000E+00
       11   -1    0    0    0    0  0.00000000000E+00  0.00000000000E+00  0.39999999673E+01  0.40000000000E+01  0.51109989000E-03 0.  1.
     -623   -1    0    0    0    0  0.00000000000E+00  0.00000000000E+00  0.12525980253E-10  0.17130000000E+03  0.17130000000E+03 0. -1.
       11    1    1    2    0    0 -0.43094237479E-02 -0.10487701908E-01  0.26584503757E+00  0.26608721925E+00  0.51109989000E-03 0.  1.
     -623    1    1    2    0    0  0.35507411678E-03 -0.91433989503E-03  0.47591507759E-03  0.17130000000E+03  0.17130000000E+03 0. -1.
      622    1    1    2    0    0  0.39543496312E-02  0.11402041803E-01  0.37336790142E+01  0.37339127768E+01  0.40000000000E-01 0.  1.
</event>
<event>
 5   0  0.7212170E+07  0.9118800E+02  0.7818608E-02  0.1180000E+00
       11   -1    0    0    0    0  0.00000000000E+00  0.00000000000E+00  0.39999999673E+01  0.40000000000E+01  0.51109989000E-03 0.  1.
     -623   -1    0    0    0    0  0.00000000000E+00  0.00000000000E+00  0.12525980253E-10  0.17130000000E+03  0.17130000000E+03 0. -1.
       11    1    1    2    0    0  0.11985873699E-02  0.32660944853E-02  0.50842427808E-01  0.50963885972E-01  0.51109989000E-03 0.  1.
     -623    1    1    2    0    0  0.18781860617E-02 -0.15100422366E-01  0.34361999115E-03  0.17130000068E+03  0.17130000000E+03 0. -1.
      622    1    1    2    0    0 -0.30767734317E-02  0.11834327881E-01  0.39488139197E+01  0.39490354380E+01  0.40000000000E-01 0.  1.
</event>
<event>
 5   0  0.7212170E+07  0.9118800E+02  0.7818608E-02  0.1180000E+00
       11   -1    0    0    0    0  0.00000000000E+00  0.00000000000E+00  0.39999999673E+01  0.40000000000E+01  0.51109989000E-03 0. -1.
     -623   -1    0    0    0    0  0.00000000000E+00  0.00000000000E+00  0.12525980253E-10  0.17130000000E+03  0.17130000000E+03 0. -1.
       11    1    1    2    0    0 -0.88449043521E-03 -0.46253939838E-03  0.10926359258E+00  0.10926934681E+00  0.51109989000E-03 0. -1.
     -623    1    1    2    0    0  0.93641212590E-03 -0.77810188917E-03  0.21154654774E-03  0.17130000000E+03  0.17130000000E+03 0. -1.
      622    1    1    2    0    0 -0.51921690946E-04  0.12406412878E-02  0.38905248293E+01  0.38907306498E+01  0.40000000000E-01 0. -1.
</event>
<event>
 5   0  0.7212170E+07  0.9118800E+02  0.7818608E-02  0.1180000E+00
       11   -1    0    0    0    0  0.00000000000E+00  0.00000000000E+00  0.39999999673E+01  0.40000000000E+01  0.51109989000E-03 0.  1.
     -623   -1    0    0    0    0  0.00000000000E+00  0.00000000000E+00  0.12525980253E-10  0.17130000000E+03  0.17130000000E+03 0.  1.
       11    1    1    2    0    0  0.44331665596E-03  0.76623318509E-03  0.39290314297E-02  0.40598219203E-02  0.51109989000E-03 0.  1.
     -623    1    1    2    0    0 -0.79789127886E-03 -0.15995772917E-02  0.33107834278E-03  0.17130000001E+03  0.17130000000E+03 0.  1.
      622    1    1    2    0    0  0.35457462292E-03  0.83334410663E-03  0.39957398577E+01  0.39959401686E+01  0.40000000000E-01 0.  1.
</event>
<event>
 5   0  0.7212170E+07  0.9118800E+02  0.7818608E-02  0.1180000E+00
       11   -1    0    0    0    0  0.00000000000E+00  0.00000000000E+00  0.39999999673E+01  0.40000000000E+01  0.51109989000E-03 0. -1.
     -623   -1    0    0    0    0  0.00000000000E+00  0.00000000000E+00  0.12525980253E-10  0.17130000000E+03  0.17130000000E+03 0.  1.
       11    1    1    2    0    0 -0.43771003812E-03 -0.27966867760E-03  0.43703876220E-01  0.43709951091E-01  0.51109989000E-03 0. -1.
     -623    1    1    2    0    0  0.57282718228E-03 -0.13179380632E-03  0.20828188222E-03  0.17130000000E+03  0.17130000000E+03 0.  1.
      622    1    1    2    0    0 -0.13511714452E-03  0.41146248401E-03  0.39560878118E+01  0.39562900504E+01  0.40000000000E-01 0. -1.
</event>
<event>
 5   0  0.7212170E+07  0.9118800E+02  0.7818608E-02  0.1180000E+00
       11   -1    0    0    0    0  0.00000000000E+00  0.00000000000E+00  0.39999999673E+01  0.40000000000E+01  0.51109989000E-03 0.  1.
     -623   -1    0    0    0    0  0.00000000000E+00  0.00000000000E+00  0.12525980253E-10  0.17130000000E+03  0.17130000000E+03 0.  1.
       11    1    1    2    0    0 -0.30231674496E-02 -0.58428317990E-02  0.47942820811E+00  0.47947361364E+00  0.51109989000E-03 0.  1.
     -623    1    1    2    0    0  0.13035356813E-02  0.12692601603E-03  0.27768467463E-03  0.17130000001E+03  0.17130000000E+03 0.  1.
      622    1    1    2    0    0  0.17196317679E-02  0.57159057829E-02  0.35202940758E+01  0.35205263823E+01  0.40000000000E-01 0.  1.
</event>
<event>
 5   0  0.7212170E+07  0.9118800E+02  0.7818608E-02  0.1180000E+00
       11   -1    0    0    0    0  0.00000000000E+00  0.00000000000E+00  0.39999999673E+01  0.40000000000E+01  0.51109989000E-03 0.  1.
     -623   -1    0    0    0    0  0.00000000000E+00  0.00000000000E+00  0.12525980253E-10  0.17130000000E+03  0.17130000000E+03 0. -1.
       11    1    1    2    0    0  0.78680726756E-03 -0.44059878384E-03  0.49607010252E-01  0.49617838347E-01  0.51109989000E-03 0.  1.
     -623    1    1    2    0    0  0.81577121569E-04  0.12959486062E-03  0.21342059300E-03  0.17130000000E+03  0.17130000000E+03 0. -1.
      622    1    1    2    0    0 -0.86838438910E-03  0.31100392327E-03  0.39501795351E+01  0.39503821600E+01  0.40000000000E-01 0.  1.
</event>
<event>
 5   0  0.7212170E+07  0.9118800E+02  0.7818608E-02  0.1180000E+00
       11   -1    0    0    0    0  0.00000000000E+00  0.00000000000E+00  0.39999999673E+01  0.40000000000E+01  0.51109989000E-03 0.  1.
     -623   -1    0    0    0    0  0.00000000000E+00  0.00000000000E+00  0.12525980253E-10  0.17130000000E+03  0.17130000000E+03 0. -1.
       11    1    1    2    0    0 -0.36437991043E-01  0.20016453799E-02  0.76856130013E+00  0.76942736308E+00  0.51109989000E-03 0.  1.
     -623    1    1    2    0    0  0.43715479783E-02 -0.11368075101E-01  0.12868524110E-02  0.17130000044E+03  0.17130000000E+03 0. -1.
      622    1    1    2    0    0  0.32066443064E-01  0.93664297223E-02  0.32301518152E+01  0.32305721995E+01  0.40000000000E-01 0.  1.
</event>
<event>
 5   0  0.7212170E+07  0.9118800E+02  0.7818608E-02  0.1180000E+00
       11   -1    0    0    0    0  0.00000000000E+00  0.00000000000E+00  0.39999999673E+01  0.40000000000E+01  0.51109989000E-03 0. -1.
     -623   -1    0    0    0    0  0.00000000000E+00  0.00000000000E+00  0.12525980253E-10  0.17130000000E+03  0.17130000000E+03 0. -1.
       11    1    1    2    0    0 -0.24309487602E-03  0.93402731699E-03  0.69491369722E-01  0.69499951015E-01  0.51109989000E-03 0. -1.
     -623    1    1    2    0    0  0.31207746472E-03  0.26800185932E-03  0.21227540952E-03  0.17130000000E+03  0.17130000000E+03 0. -1.
      622    1    1    2    0    0 -0.68982588689E-04 -0.12020291763E-02  0.39302963222E+01  0.39305000483E+01  0.40000000000E-01 0. -1.
</event>
<event>
 5   0  0.7212170E+07  0.9118800E+02  0.7818608E-02  0.1180000E+00
       11   -1    0    0    0    0  0.00000000000E+00  0.00000000000E+00  0.39999999673E+01  0.40000000000E+01  0.51109989000E-03 0.  1.
     -623   -1    0    0    0    0  0.00000000000E+00  0.00000000000E+00  0.12525980253E-10  0.17130000000E+03  0.17130000000E+03 0. -1.
       11    1    1    2    0    0  0.66499565343E-02 -0.25789973677E-01  0.19291442648E+01  0.19293281733E+01  0.51109989000E-03 0.  1.
     -623    1    1    2    0    0  0.11034208830E-02 -0.77577033794E-03  0.75523848192E-03  0.17130000001E+03  0.17130000000E+03 0. -1.
      622    1    1    2    0    0 -0.77533774172E-02  0.26565744015E-01  0.20701004640E+01  0.20706718196E+01  0.40000000000E-01 0. -1.
</event>
<event>
 5   0  0.7212170E+07  0.9118800E+02  0.7818608E-02  0.1180000E+00
       11   -1    0    0    0    0  0.00000000000E+00  0.00000000000E+00  0.39999999673E+01  0.40000000000E+01  0.51109989000E-03 0. -1.
     -623   -1    0    0    0    0  0.00000000000E+00  0.00000000000E+00  0.12525980253E-10  0.17130000000E+03  0.17130000000E+03 0. -1.
       11    1    1    2    0    0 -0.10627910155E-01 -0.60305114490E-02  0.30840283600E+00  0.30864524946E+00  0.51109989000E-03 0. -1.
     -623    1    1    2    0    0  0.20035379586E-02 -0.53123805537E-02  0.48670852811E-03  0.17130000009E+03  0.17130000000E+03 0. -1.
      622    1    1    2    0    0  0.86243721963E-02  0.11342892003E-01  0.36911104229E+01  0.36913546559E+01  0.40000000000E-01 0. -1.
</event>
<event>
 5   0  0.7212170E+07  0.9118800E+02  0.7818608E-02  0.1180000E+00
       11   -1    0    0    0    0  0.00000000000E+00  0.00000000000E+00  0.39999999673E+01  0.40000000000E+01  0.51109989000E-03 0. -1.
     -623   -1    0    0    0    0  0.00000000000E+00  0.00000000000E+00  0.12525980253E-10  0.17130000000E+03  0.17130000000E+03 0. -1.
       11    1    1    2    0    0 -0.47927062363E-02  0.11719997988E-01  0.50094679217E-01  0.51672686159E-01  0.51109989000E-03 0. -1.
     -623    1    1    2    0    0  0.67447369560E-04 -0.57297792256E-02  0.17880740874E-02  0.17130000011E+03  0.17130000000E+03 0. -1.
      622    1    1    2    0    0  0.47252588668E-02 -0.59902187625E-02  0.39481172142E+01  0.39483272088E+01  0.40000000000E-01 0. -1.
</event>
<event>
 5   0  0.7212170E+07  0.9118800E+02  0.7818608E-02  0.1180000E+00
       11   -1    0    0    0    0  0.00000000000E+00  0.00000000000E+00  0.39999999673E+01  0.40000000000E+01  0.51109989000E-03 0.  1.
     -623   -1    0    0    0    0  0.00000000000E+00  0.00000000000E+00  0.12525980253E-10  0.17130000000E+03  0.17130000000E+03 0. -1.
       11    1    1    2    0    0  0.95141694980E-02 -0.23062560067E-02  0.62854450325E-01  0.63614317466E-01  0.51109989000E-03 0.  1.
     -623    1    1    2    0    0  0.25157472837E-02 -0.37601225298E-02  0.98619237272E-03  0.17130000006E+03  0.17130000000E+03 0. -1.
      622    1    1    2    0    0 -0.12029916782E-01  0.60663785366E-02  0.39361593249E+01  0.39363856202E+01  0.40000000000E-01 0.  1.
</event>
<event>
 5   0  0.7212170E+07  0.9118800E+02  0.7818608E-02  0.1180000E+00
       11   -1    0    0    0    0  0.00000000000E+00  0.00000000000E+00  0.39999999673E+01  0.40000000000E+01  0.51109989000E-03 0.  1.
     -623   -1    0    0    0    0  0.00000000000E+00  0.00000000000E+00  0.12525980253E-10  0.17130000000E+03  0.17130000000E+03 0. -1.
       11    1    1    2    0    0 -0.80050725180E-02 -0.15076653007E-01  0.16323536977E+01  0.16324430288E+01  0.51109989000E-03 0.  1.
     -623    1    1    2    0    0  0.11851274958E-02 -0.38698608712E-02  0.51291899711E-03  0.17130000005E+03  0.17130000000E+03 0. -1.
      622    1    1    2    0    0  0.68199450223E-02  0.18946513878E-01  0.23671333506E+01  0.23675569226E+01  0.40000000000E-01 0.  1.
</event>
<event>
 5   0  0.7212170E+07  0.9118800E+02  0.7818608E-02  0.1180000E+00
       11   -1    0    0    0    0  0.00000000000E+00  0.00000000000E+00  0.39999999673E+01  0.40000000000E+01  0.51109989000E-03 0.  1.
     -623   -1    0    0    0    0  0.00000000000E+00  0.00000000000E+00  0.12525980253E-10  0.17130000000E+03  0.17130000000E+03 0. -1.
       11    1    1    2    0    0 -0.13443259906E-02 -0.11441507178E-02  0.60740455202E-01  0.60768251698E-01  0.51109989000E-03 0.  1.
     -623    1    1    2    0    0  0.32706337935E-03  0.88673293044E-03  0.23099690544E-03  0.17130000000E+03  0.17130000000E+03 0. -1.
      622    1    1    2    0    0  0.10172626113E-02  0.25741778734E-03  0.39390285156E+01  0.39392317459E+01  0.40000000000E-01 0.  1.
</event>
<event>
 5   0  0.7212170E+07  0.9118800E+02  0.7818608E-02  0.1180000E+00
       11   -1    0    0    0    0  0.00000000000E+00  0.00000000000E+00  0.39999999673E+01  0.40000000000E+01  0.51109989000E-03 0.  1.
     -623   -1    0    0    0    0  0.00000000000E+00  0.00000000000E+00  0.12525980253E-10  0.17130000000E+03  0.17130000000E+03 0.  1.
       11    1    1    2    0    0  0.10226708652E-02 -0.40466461605E-02  0.32910143688E-01  0.33177703078E-01  0.51109989000E-03 0.  1.
     -623    1    1    2    0    0 -0.40800355204E-02  0.69882203588E-04  0.47242562867E-03  0.17130000005E+03  0.17130000000E+03 0.  1.
      622    1    1    2    0    0  0.30573646557E-02  0.39767639569E-02  0.39666173986E+01  0.39668222482E+01  0.40000000000E-01 0.  1.
</event>
<event>
 5   0  0.7212170E+07  0.9118800E+02  0.7818608E-02  0.1180000E+00
       11   -1    0    0    0    0  0.00000000000E+00  0.00000000000E+00  0.39999999673E+01  0.40000000000E+01  0.51109989000E-03 0. -1.
     -623   -1    0    0    0    0  0.00000000000E+00  0.00000000000E+00  0.12525980253E-10  0.17130000000E+03  0.17130000000E+03 0. -1.
       11    1    1    2    0    0 -0.55037452718E-02  0.96413363826E-02  0.12900184333E+00  0.12947966398E+00  0.51109989000E-03 0. -1.
     -623    1    1    2    0    0 -0.31181435067E-02 -0.86893775202E-02  0.69445484395E-03  0.17130000025E+03  0.17130000000E+03 0. -1.
      622    1    1    2    0    0  0.86218887792E-02 -0.95195886071E-03  0.38703036700E+01  0.38705200866E+01  0.40000000000E-01 0. -1.
</event>
<event>
 5   0  0.7212170E+07  0.9118800E+02  0.7818608E-02  0.1180000E+00
       11   -1    0    0    0    0  0.00000000000E+00  0.00000000000E+00  0.39999999673E+01  0.40000000000E+01  0.51109989000E-03 0. -1.
     -623   -1    0    0    0    0  0.00000000000E+00  0.00000000000E+00  0.12525980253E-10  0.17130000000E+03  0.17130000000E+03 0. -1.
       11    1    1    2    0    0  0.66249044281E-02  0.10589830086E-01  0.68885275765E-01  0.70010544207E-01  0.51109989000E-03 0. -1.
     -623    1    1    2    0    0 -0.18354027985E-02  0.10495540034E-01  0.13886271302E-02  0.17130000034E+03  0.17130000000E+03 0. -1.
      622    1    1    2    0    0 -0.47895016296E-02 -0.21085370121E-01  0.39297260646E+01  0.39299891189E+01  0.40000000000E-01 0. -1.
</event>
<event>
 5   0  0.7212170E+07  0.9118800E+02  0.7818608E-02  0.1180000E+00
       11   -1    0    0    0    0  0.00000000000E+00  0.00000000000E+00  0.39999999673E+01  0.40000000000E+01  0.51109989000E-03 0.  1.
     -623   -1    0    0    0    0  0.00000000000E+00  0.00000000000E+00  0.12525980253E-10  0.17130000000E+03  0.17130000000E+03 0. -1.
       11    1    1    2    0    0  0.13727931652E-01  0.81470616036E-02  0.42592365936E+00  0.42622301151E+00  0.51109989000E-03 0.  1.
     -623    1    1    2    0    0  0.95869585528E-03 -0.42035018044E-03  0.56171660993E-03  0.17130000000E+03  0.17130000000E+03 0. -1.
      622    1    1    2    0    0 -0.14686627508E-01 -0.77267114230E-02  0.35735145923E+01  0.35737769852E+01  0.40000000000E-01 0.  1.
</event>
<event>
 5   0  0.7212170E+07  0.9118800E+02  0.7818608E-02  0.1180000E+00
       11   -1    0    0    0    0  0.00000000000E+00  0.00000000000E+00  0.39999999673E+01  0.40000000000E+01  0.51109989000E-03 0.  1.
     -623   -1    0    0    0    0  0.00000000000E+00  0.00000000000E+00  0.12525980253E-10  0.17130000000E+03  0.17130000000E+03 0. -1.
       11    1    1    2    0    0 -0.19527611299E-02  0.82399591351E-02  0.35413764700E+00  0.35423924747E+00  0.51109989000E-03 0.  1.
     -623    1    1    2    0    0  0.81890150263E-04 -0.49193426849E-03  0.32972209240E-03  0.17130000000E+03  0.17130000000E+03 0. -1.
      622    1    1    2    0    0  0.18708709796E-02 -0.77480248666E-02  0.36455325983E+01  0.36457607515E+01  0.40000000000E-01 0.  0.
</event>
<event>
 5   0  0.7212170E+07  0.9118800E+02  0.7818608E-02  0.1180000E+00
       11   -1    0    0    0    0  0.00000000000E+00  0.00000000000E+00  0.39999999673E+01  0.40000000000E+01  0.51109989000E-03 0.  1.
     -623   -1    0    0    0    0  0.00000000000E+00  0.00000000000E+00  0.12525980253E-10  0.17130000000E+03  0.17130000000E+03 0. -1.
       11    1    1    2    0    0  0.22961301591E-02  0.43639473505E-02  0.18199964649E+00  0.18206715463E+00  0.51109989000E-03 0.  1.
     -623    1    1    2    0    0  0.34984085819E-02 -0.19540809839E-01  0.31273380508E-03  0.17130000115E+03  0.17130000000E+03 0. -1.
      622    1    1    2    0    0 -0.57945387406E-02  0.15176862486E-01  0.38176875866E+01  0.38179316944E+01  0.40000000000E-01 0.  1.
</event>
<event>
 5   0  0.7212170E+07  0.9118800E+02  0.7818608E-02  0.1180000E+00
       11   -1    0    0    0    0  0.00000000000E+00  0.00000000000E+00  0.39999999673E+01  0.40000000000E+01  0.51109989000E-03 0. -1.
     -623   -1    0    0    0    0  0.00000000000E+00  0.00000000000E+00  0.12525980253E-10  0.17130000000E+03  0.17130000000E+03 0. -1.
       11    1    1    2    0    0 -0.10916123850E-02 -0.50826829491E-02  0.45773276169E-02  0.69453894614E-02  0.51109989000E-03 0. -1.
     -623    1    1    2    0    0  0.12367099447E-01 -0.10963032513E-01  0.26173609140E-02  0.17130000082E+03  0.17130000000E+03 0. -1.
      622    1    1    2    0    0 -0.11275487062E-01  0.16045715462E-01  0.39928052789E+01  0.39930537934E+01  0.40000000000E-01 0. -1.
</event>
<event>
 5   0  0.7212170E+07  0.9118800E+02  0.7818608E-02  0.1180000E+00
       11   -1    0    0    0    0  0.00000000000E+00  0.00000000000E+00  0.39999999673E+01  0.40000000000E+01  0.51109989000E-03 0.  1.
     -623   -1    0    0    0    0  0.00000000000E+00  0.00000000000E+00  0.12525980253E-10  0.17130000000E+03  0.17130000000E+03 0.  1.
       11    1    1    2    0    0 -0.76128231995E-04  0.82380802000E-02  0.20946493973E-01  0.22514186500E-01  0.51109989000E-03 0.  1.
     -623    1    1    2    0    0 -0.44732584233E-02  0.21832937441E-02  0.17851337666E-02  0.17130000008E+03  0.17130000000E+03 0.  1.
      622    1    1    2    0    0  0.45493866555E-02 -0.10421373944E-01  0.39772683398E+01  0.39774857321E+01  0.40000000000E-01 0.  1.
</event>
<event>
 5   0  0.7212170E+07  0.9118800E+02  0.7818608E-02  0.1180000E+00
       11   -1    0    0    0    0  0.00000000000E+00  0.00000000000E+00  0.39999999673E+01  0.40000000000E+01  0.51109989000E-03 0.  1.
     -623   -1    0    0    0    0  0.00000000000E+00  0.00000000000E+00  0.12525980253E-10  0.17130000000E+03  0.17130000000E+03 0.  1.
       11    1    1    2    0    0  0.22986573417E-02 -0.57514526311E-02  0.19905911904E+01  0.19906008921E+01  0.51109989000E-03 0.  1.
     -623    1    1    2    0    0  0.43918514676E-02  0.21183514635E-02  0.42233310731E-03  0.17130000007E+03  0.17130000000E+03 0.  1.
      622    1    1    2    0    0 -0.66905088088E-02  0.36331011679E-02  0.20089864434E+01  0.20093990375E+01  0.40000000000E-01 0. -1.
</event>
<event>
 5   0  0.7212170E+07  0.9118800E+02  0.7818608E-02  0.1180000E+00
       11   -1    0    0    0    0  0.00000000000E+00  0.00000000000E+00  0.39999999673E+01  0.40000000000E+01  0.51109989000E-03 0. -1.
     -623   -1    0    0    0    0  0.00000000000E+00  0.00000000000E+00  0.12525980253E-10  0.17130000000E+03  0.17130000000E+03 0. -1.
       11    1    1    2    0    0  0.74894907550E-02  0.89464181593E-02  0.53173449062E+00  0.53186272722E+00  0.51109989000E-03 0. -1.
     -623    1    1    2    0    0 -0.27034953231E-02  0.70307959236E-03  0.37563370334E-03  0.17130000002E+03  0.17130000000E+03 0. -1.
      622    1    1    2    0    0 -0.47859954312E-02 -0.96494977519E-02  0.34678898441E+01  0.34681372506E+01  0.40000000000E-01 0. -1.
</event>
<event>
 5   0  0.7212170E+07  0.9118800E+02  0.7818608E-02  0.1180000E+00
       11   -1    0    0    0    0  0.00000000000E+00  0.00000000000E+00  0.39999999673E+01  0.40000000000E+01  0.51109989000E-03 0. -1.
     -623   -1    0    0    0    0  0.00000000000E+00  0.00000000000E+00  0.12525980253E-10  0.17130000000E+03  0.17130000000E+03 0.  1.
       11    1    1    2    0    0 -0.20211855918E-01  0.12927725204E-01  0.86467150983E+00  0.86500446607E+00  0.51109989000E-03 0. -1.
     -623    1    1    2    0    0  0.38915873453E-02 -0.63264818806E-02  0.63771472313E-03  0.17130000016E+03  0.17130000000E+03 0.  1.
      622    1    1    2    0    0  0.16320268573E-01 -0.66012433237E-02  0.31346907429E+01  0.31349953718E+01  0.40000000000E-01 0.  0.
</event>
<event>
 5   0  0.7212170E+07  0.9118800E+02  0.7818608E-02  0.1180000E+00
       11   -1    0    0    0    0  0.00000000000E+00  0.00000000000E+00  0.39999999673E+01  0.40000000000E+01  0.51109989000E-03 0. -1.
     -623   -1    0    0    0    0  0.00000000000E+00  0.00000000000E+00  0.12525980253E-10  0.17130000000E+03  0.17130000000E+03 0. -1.
       11    1    1    2    0    0 -0.33490943664E-02 -0.86775058355E-03  0.79018676903E-01  0.79096029905E-01  0.51109989000E-03 0. -1.
     -623    1    1    2    0    0 -0.34617382116E-04  0.86650591317E-03  0.28282281675E-03  0.17130000000E+03  0.17130000000E+03 0. -1.
      622    1    1    2    0    0  0.33837117485E-02  0.12446702157E-05  0.39206984684E+01  0.39209039684E+01  0.40000000000E-01 0. -1.
</event>
<event>
 5   0  0.7212170E+07  0.9118800E+02  0.7818608E-02  0.1180000E+00
       11   -1    0    0    0    0  0.00000000000E+00  0.00000000000E+00  0.39999999673E+01  0.40000000000E+01  0.51109989000E-03 0.  1.
     -623   -1    0    0    0    0  0.00000000000E+00  0.00000000000E+00  0.12525980253E-10  0.17130000000E+03  0.17130000000E+03 0.  1.
       11    1    1    2    0    0  0.20764136483E-02  0.90925628980E-03  0.12970753748E-01  0.13177249961E-01  0.51109989000E-03 0.  1.
     -623    1    1    2    0    0 -0.43379211315E-02  0.64205443485E-03  0.40812955817E-03  0.17130000006E+03  0.17130000000E+03 0.  1.
      622    1    1    2    0    0  0.22615074845E-02 -0.15513107249E-02  0.39866210854E+01  0.39868226947E+01  0.40000000000E-01 0.  1.
</event>
<event>
 5   0  0.7212170E+07  0.9118800E+02  0.7818608E-02  0.1180000E+00
       11   -1    0    0    0    0  0.00000000000E+00  0.00000000000E+00  0.39999999673E+01  0.40000000000E+01  0.51109989000E-03 0.  1.
     -623   -1    0    0    0    0  0.00000000000E+00  0.00000000000E+00  0.12525980253E-10  0.17130000000E+03  0.17130000000E+03 0. -1.
       11    1    1    2    0    0  0.31344437111E-03 -0.19122438917E-02  0.33775689939E-02  0.39273552782E-02  0.51109989000E-03 0.  1.
     -623    1    1    2    0    0 -0.17415438997E-02  0.15529033364E-02  0.75024410964E-03  0.17130000002E+03  0.17130000000E+03 0. -1.
      622    1    1    2    0    0  0.14280995287E-02  0.35934055525E-03  0.39958721544E+01  0.39960726273E+01  0.40000000000E-01 0.  1.
</event>
<event>
 5   0  0.7212170E+07  0.9118800E+02  0.7818608E-02  0.1180000E+00
       11   -1    0    0    0    0  0.00000000000E+00  0.00000000000E+00  0.39999999673E+01  0.40000000000E+01  0.51109989000E-03 0.  1.
     -623   -1    0    0    0    0  0.00000000000E+00  0.00000000000E+00  0.12525980253E-10  0.17130000000E+03  0.17130000000E+03 0. -1.
       11    1    1    2    0    0 -0.36973337275E-02 -0.31178310347E-02  0.27132118816E-01  0.27564546823E-01  0.51109989000E-03 0.  1.
     -623    1    1    2    0    0 -0.31268289916E-02  0.50457702633E-02  0.64022202741E-03  0.17130000010E+03  0.17130000000E+03 0. -1.
      622    1    1    2    0    0  0.68241627195E-02 -0.19279392293E-02  0.39722276270E+01  0.39724353496E+01  0.40000000000E-01 0.  1.
</event>
<event>
 5   0  0.7212170E+07  0.9118800E+02  0.7818608E-02  0.1180000E+00
       11   -1    0    0    0    0  0.00000000000E+00  0.00000000000E+00  0.39999999673E+01  0.40000000000E+01  0.51109989000E-03 0. -1.
     -623   -1    0    0    0    0  0.00000000000E+00  0.00000000000E+00  0.12525980253E-10  0.17130000000E+03  0.17130000000E+03 0.  1.
       11    1    1    2    0    0 -0.13301663638E-01  0.12364467635E-01  0.53588308490E+00  0.53619096992E+00  0.51109989000E-03 0. -1.
     -623    1    1    2    0    0 -0.13408452696E-02 -0.28296154017E-03  0.59084877742E-03  0.17130000001E+03  0.17130000000E+03 0.  1.
      622    1    1    2    0    0  0.14642508907E-01 -0.12081506095E-01  0.34635260337E+01  0.34638090236E+01  0.40000000000E-01 0. -1.
</event>
<event>
 5   0  0.7212170E+07  0.9118800E+02  0.7818608E-02  0.1180000E+00
       11   -1    0    0    0    0  0.00000000000E+00  0.00000000000E+00  0.39999999673E+01  0.40000000000E+01  0.51109989000E-03 0. -1.
     -623   -1    0    0    0    0  0.00000000000E+00  0.00000000000E+00  0.12525980253E-10  0.17130000000E+03  0.17130000000E+03 0. -1.
       11    1    1    2    0    0 -0.22863235390E-02  0.20646324247E-01  0.57126319820E+00  0.57164097195E+00  0.51109989000E-03 0. -1.
     -623    1    1    2    0    0 -0.91354466726E-02 -0.20477396762E-02  0.68083357509E-03  0.17130000026E+03  0.17130000000E+03 0. -1.
      622    1    1    2    0    0  0.11421770212E-01 -0.18598584570E-01  0.34280559356E+01  0.34283587708E+01  0.40000000000E-01 0. -1.
</event>
<event>
 5   0  0.7212170E+07  0.9118800E+02  0.7818608E-02  0.1180000E+00
       11   -1    0    0    0    0  0.00000000000E+00  0.00000000000E+00  0.39999999673E+01  0.40000000000E+01  0.51109989000E-03 0. -1.
     -623   -1    0    0    0    0  0.00000000000E+00  0.00000000000E+00  0.12525980253E-10  0.17130000000E+03  0.17130000000E+03 0.  1.
       11    1    1    2    0    0 -0.11460787636E-02  0.53836605296E-03  0.73223015553E-02  0.74485339298E-02  0.51109989000E-03 0. -1.
     -623    1    1    2    0    0  0.24648390640E-02 -0.21917253275E-02  0.32717011448E-03  0.17130000003E+03  0.17130000000E+03 0.  1.
      622    1    1    2    0    0 -0.13187603011E-02  0.16533592753E-02  0.39923504969E+01  0.39925514352E+01  0.40000000000E-01 0. -1.
</event>
<event>
 5   0  0.7212170E+07  0.9118800E+02  0.7818608E-02  0.1180000E+00
       11   -1    0    0    0    0  0.00000000000E+00  0.00000000000E+00  0.39999999673E+01  0.40000000000E+01  0.51109989000E-03 0. -1.
     -623   -1    0    0    0    0  0.00000000000E+00  0.00000000000E+00  0.12525980253E-10  0.17130000000E+03  0.17130000000E+03 0.  1.
       11    1    1    2    0    0 -0.12327771483E-02  0.86053336749E-03  0.27576196599E-02  0.31821292338E-02  0.51109989000E-03 0. -1.
     -623    1    1    2    0    0  0.13746911421E-02 -0.14047433402E-02  0.62469316600E-03  0.17130000001E+03  0.17130000000E+03 0.  1.
      622    1    1    2    0    0 -0.14191399370E-03  0.54420997266E-03  0.39966176545E+01  0.39968178583E+01  0.40000000000E-01 0. -1.
</event>
<event>
 5   0  0.7212170E+07  0.9118800E+02  0.7818608E-02  0.1180000E+00
       11   -1    0    0    0    0  0.00000000000E+00  0.00000000000E+00  0.39999999673E+01  0.40000000000E+01  0.51109989000E-03 0.  1.
     -623   -1    0    0    0    0  0.00000000000E+00  0.00000000000E+00  0.12525980253E-10  0.17130000000E+03  0.17130000000E+03 0. -1.
       11    1    1    2    0    0  0.11797821780E-01  0.89118965336E-02  0.13012470206E+00  0.13096300932E+00  0.51109989000E-03 0.  1.
     -623    1    1    2    0    0 -0.46509202469E-03 -0.14886730912E-02  0.10687801460E-02  0.17130000001E+03  0.17130000000E+03 0. -1.
      622    1    1    2    0    0 -0.11332729755E-01 -0.74232234423E-02  0.38688064857E+01  0.38690369808E+01  0.40000000000E-01 0.  1.
</event>
<event>
 5   0  0.7212170E+07  0.9118800E+02  0.7818608E-02  0.1180000E+00
       11   -1    0    0    0    0  0.00000000000E+00  0.00000000000E+00  0.39999999673E+01  0.40000000000E+01  0.51109989000E-03 0.  1.
     -623   -1    0    0    0    0  0.00000000000E+00  0.00000000000E+00  0.12525980253E-10  0.17130000000E+03  0.17130000000E+03 0. -1.
       11    1    1    2    0    0  0.10553460543E-01  0.50774812156E-02  0.40497436802E+00  0.40514399456E+00  0.51109989000E-03 0.  1.
     -623    1    1    2    0    0 -0.13473765298E-01 -0.56825118826E-02  0.39400278362E-03  0.17130000062E+03  0.17130000000E+03 0. -1.
      622    1    1    2    0    0  0.29203047548E-02  0.60503066692E-03  0.35946315964E+01  0.35948553807E+01  0.40000000000E-01 0.  1.
</event>
<event>
 5   0  0.7212170E+07  0.9118800E+02  0.7818608E-02  0.1180000E+00
       11   -1    0    0    0    0  0.00000000000E+00  0.00000000000E+00  0.39999999673E+01  0.40000000000E+01  0.51109989000E-03 0.  1.
     -623   -1    0    0    0    0  0.00000000000E+00  0.00000000000E+00  0.12525980253E-10  0.17130000000E+03  0.17130000000E+03 0. -1.
       11    1    1    2    0    0 -0.91371478311E-03  0.10382655115E-02  0.71761460348E+00  0.71761611828E+00  0.51109989000E-03 0.  1.
     -623    1    1    2    0    0  0.25008501810E-03 -0.70790353941E-03  0.24530205233E-03  0.17130000000E+03  0.17130000000E+03 0. -1.
      622    1    1    2    0    0  0.66362976494E-03 -0.33036197191E-03  0.32821400630E+01  0.32823838810E+01  0.40000000000E-01 0.  1.
</event>
<event>
 5   0  0.7212170E+07  0.9118800E+02  0.7818608E-02  0.1180000E+00
       11   -1    0    0    0    0  0.00000000000E+00  0.00000000000E+00  0.39999999673E+01  0.40000000000E+01  0.51109989000E-03 0. -1.
     -623   -1    0    0    0    0  0.00000000000E+00  0.00000000000E+00  0.12525980253E-10  0.17130000000E+03  0.17130000000E+03 0.  1.
       11    1    1    2    0    0 -0.91974769516E-02 -0.11598535080E-01  0.66181031743E-02  0.16222826850E-01  0.51109989000E-03 0. -1.
     -623    1    1    2    0    0  0.14559058991E-01 -0.14301659844E-02  0.98313314585E-02  0.17130000091E+03  0.17130000000E+03 0.  1.
      622    1    1    2    0    0 -0.53615820397E-02  0.13028701065E-01  0.39835505328E+01  0.39837762664E+01  0.40000000000E-01 0. -1.
</event>
<event>
 5   0  0.7212170E+07  0.9118800E+02  0.7818608E-02  0.1180000E+00
       11   -1    0    0    0    0  0.00000000000E+00  0.00000000000E+00  0.39999999673E+01  0.40000000000E+01  0.51109989000E-03 0. -1.
     -623   -1    0    0    0    0  0.00000000000E+00  0.00000000000E+00  0.12525980253E-10  0.17130000000E+03  0.17130000000E+03 0. -1.
       11    1    1    2    0    0  0.50129195610E-02 -0.23636773080E-02  0.14833707679E+01  0.14833812095E+01  0.51109989000E-03 0. -1.
     -623    1    1    2    0    0  0.72336676382E-03 -0.22467099820E-02  0.33909443449E-03  0.17130000002E+03  0.17130000000E+03 0. -1.
      622    1    1    2    0    0 -0.57362863246E-02  0.46103872893E-02  0.25162901037E+01  0.25166187726E+01  0.40000000000E-01 0.  0.
</event>
<event>
 5   0  0.7212170E+07  0.9118800E+02  0.7818608E-02  0.1180000E+00
       11   -1    0    0    0    0  0.00000000000E+00  0.00000000000E+00  0.39999999673E+01  0.40000000000E+01  0.51109989000E-03 0. -1.
     -623   -1    0    0    0    0  0.00000000000E+00  0.00000000000E+00  0.12525980253E-10  0.17130000000E+03  0.17130000000E+03 0. -1.
       11    1    1    2    0    0 -0.26480502473E-01  0.18292045853E-02  0.16180950049E+01  0.16183127847E+01  0.51109989000E-03 0. -1.
     -623    1    1    2    0    0  0.25967480234E-03  0.65616538595E-03  0.69932897144E-03  0.17130000000E+03  0.17130000000E+03 0. -1.
      622    1    1    2    0    0  0.26220827670E-01 -0.24853699712E-02  0.23812056330E+01  0.23816872119E+01  0.40000000000E-01 0. -1.
</event>
<event>
 5   0  0.7212170E+07  0.9118800E+02  0.7818608E-02  0.1180000E+00
       11   -1    0    0    0    0  0.00000000000E+00  0.00000000000E+00  0.39999999673E+01  0.40000000000E+01  0.51109989000E-03 0. -1.
     -623   -1    0    0    0    0  0.00000000000E+00  0.00000000000E+00  0.12525980253E-10  0.17130000000E+03  0.17130000000E+03 0. -1.
       11    1    1    2    0    0 -0.25806135346E-02  0.18764609695E-02  0.82670274367E-01  0.82733404130E-01  0.51109989000E-03 0. -1.
     -623    1    1    2    0    0 -0.38048760941E-03 -0.17872849381E-02  0.26845667836E-03  0.17130000001E+03  0.17130000000E+03 0. -1.
      622    1    1    2    0    0  0.29611011442E-02 -0.89176030687E-04  0.39170612380E+01  0.39172665876E+01  0.40000000000E-01 0. -1.
</event>
<event>
 5   0  0.7212170E+07  0.9118800E+02  0.7818608E-02  0.1180000E+00
       11   -1    0    0    0    0  0.00000000000E+00  0.00000000000E+00  0.39999999673E+01  0.40000000000E+01  0.51109989000E-03 0. -1.
     -623   -1    0    0    0    0  0.00000000000E+00  0.00000000000E+00  0.12525980253E-10  0.17130000000E+03  0.17130000000E+03 0.  1.
       11    1    1    2    0    0 -0.55068369572E-03 -0.10612500245E-01  0.18026457999E+00  0.18057826125E+00  0.51109989000E-03 0. -1.
     -623    1    1    2    0    0  0.14915464282E-01  0.44056397174E-02  0.55587517473E-03  0.17130000071E+03  0.17130000000E+03 0.  1.
      622    1    1    2    0    0 -0.14364780588E-01  0.62068605273E-02  0.38191795127E+01  0.38194210324E+01  0.40000000000E-01 0. -1.
</event>
<event>
 5   0  0.7212170E+07  0.9118800E+02  0.7818608E-02  0.1180000E+00
       11   -1    0    0    0    0  0.00000000000E+00  0.00000000000E+00  0.39999999673E+01  0.40000000000E+01  0.51109989000E-03 0. -1.
     -623   -1    0    0    0    0  0.00000000000E+00  0.00000000000E+00  0.12525980253E-10  0.17130000000E+03  0.17130000000E+03 0.  1.
       11    1    1    2    0    0  0.40068959083E-03  0.11773040000E-02  0.46094148738E-02  0.48015128275E-02  0.51109989000E-03 0. -1.
     -623    1    1    2    0    0 -0.24724260349E-03 -0.89389648241E-04  0.39246242428E-03  0.17130000000E+03  0.17130000000E+03 0.  1.
      622    1    1    2    0    0 -0.15344698732E-03 -0.10879143517E-02  0.39949980903E+01  0.39951984868E+01  0.40000000000E-01 0. -1.
</event>
<event>
 5   0  0.7212170E+07  0.9118800E+02  0.7818608E-02  0.1180000E+00
       11   -1    0    0    0    0  0.00000000000E+00  0.00000000000E+00  0.39999999673E+01  0.40000000000E+01  0.51109989000E-03 0.  1.
     -623   -1    0    0    0    0  0.00000000000E+00  0.00000000000E+00  0.12525980253E-10  0.17130000000E+03  0.17130000000E+03 0.  1.
       11    1    1    2    0    0 -0.49815344910E-03  0.16644337912E-01  0.12052398721E+01  0.12053550069E+01  0.51109989000E-03 0.  1.
     -623    1    1    2    0    0  0.96095014502E-02  0.72710155128E-02  0.51899913834E-03  0.17130000042E+03  0.17130000000E+03 0.  1.
      622    1    1    2    0    0 -0.91113480027E-02 -0.23915353426E-01  0.27942410968E+01  0.27946445691E+01  0.40000000000E-01 0.  0.
</event>
<event>
 5   0  0.7212170E+07  0.9118800E+02  0.7818608E-02  0.1180000E+00
       11   -1    0    0    0    0  0.00000000000E+00  0.00000000000E+00  0.39999999673E+01  0.40000000000E+01  0.51109989000E-03 0.  1.
     -623   -1    0    0    0    0  0.00000000000E+00  0.00000000000E+00  0.12525980253E-10  0.17130000000E+03  0.17130000000E+03 0.  1.
       11    1    1    2    0    0 -0.18333772410E-02 -0.28630126296E-02  0.31798168287E-02  0.46830088177E-02  0.51109989000E-03 0.  1.
     -623    1    1    2    0    0  0.10612719410E-01 -0.11953850736E-01  0.17412760534E-02  0.17130000075E+03  0.17130000000E+03 0.  1.
      622    1    1    2    0    0 -0.87793421685E-02  0.14816863365E-01  0.39950788744E+01  0.39953162364E+01  0.40000000000E-01 0.  1.
</event>
<event>
 5   0  0.7212170E+07  0.9118800E+02  0.7818608E-02  0.1180000E+00
       11   -1    0    0    0    0  0.00000000000E+00  0.00000000000E+00  0.39999999673E+01  0.40000000000E+01  0.51109989000E-03 0. -1.
     -623   -1    0    0    0    0  0.00000000000E+00  0.00000000000E+00  0.12525980253E-10  0.17130000000E+03  0.17130000000E+03 0. -1.
       11    1    1    2    0    0 -0.97998277749E-03  0.25621577866E-02  0.24482658064E-01  0.24641160438E-01  0.51109989000E-03 0. -1.
     -623    1    1    2    0    0 -0.28382209944E-02 -0.10912238250E-02  0.36184776503E-03  0.17130000003E+03  0.17130000000E+03 0. -1.
      622    1    1    2    0    0  0.38182037721E-02 -0.14709339615E-02  0.39751554619E+01  0.39753588126E+01  0.40000000000E-01 0. -1.
</event>
<event>
 5   0  0.7212170E+07  0.9118800E+02  0.7818608E-02  0.1180000E+00
       11   -1    0    0    0    0  0.00000000000E+00  0.00000000000E+00  0.39999999673E+01  0.40000000000E+01  0.51109989000E-03 0. -1.
     -623   -1    0    0    0    0  0.00000000000E+00  0.00000000000E+00  0.12525980253E-10  0.17130000000E+03  0.17130000000E+03 0. -1.
       11    1    1    2    0    0 -0.58077406283E-01  0.79418125313E-02  0.20266518098E+01  0.20274994147E+01  0.51109989000E-03 0. -1.
     -623    1    1    2    0    0  0.59597380079E-01 -0.88223454383E-02  0.12645742932E-02  0.17130001060E+03  0.17130000000E+03 0. -1.
      622    1    1    2    0    0 -0.15199737991E-02  0.88053290758E-03  0.19720835835E+01  0.19724899863E+01  0.40000000000E-01 0. -1.
</event>
<event>
 5   0  0.7212170E+07  0.9118800E+02  0.7818608E-02  0.1180000E+00
       11   -1    0    0    0    0  0.00000000000E+00  0.00000000000E+00  0.39999999673E+01  0.40000000000E+01  0.51109989000E-03 0. -1.
     -623   -1    0    0    0    0  0.00000000000E+00  0.00000000000E+00  0.12525980253E-10  0.17130000000E+03  0.17130000000E+03 0. -1.
       11    1    1    2    0    0  0.14197052975E-02  0.41955040724E-03  0.44156997157E+00  0.44157274893E+00  0.51109989000E-03 0. -1.
     -623    1    1    2    0    0 -0.43988518264E-04 -0.24468986447E-03  0.22784082511E-03  0.17130000000E+03  0.17130000000E+03 0. -1.
      622    1    1    2    0    0 -0.13757167792E-02 -0.17486054265E-03  0.35582021571E+01  0.35584272529E+01  0.40000000000E-01 0. -1.
</event>
<event>
 5   0  0.7212170E+07  0.9118800E+02  0.7818608E-02  0.1180000E+00
       11   -1    0    0    0    0  0.00000000000E+00  0.00000000000E+00  0.39999999673E+01  0.40000000000E+01  0.51109989000E-03 0.  1.
     -623   -1    0    0    0    0  0.00000000000E+00  0.00000000000E+00  0.12525980253E-10  0.17130000000E+03  0.17130000000E+03 0.  1.
       11    1    1    2    0    0  0.75157674589E-01 -0.24998210093E-01  0.24337527360E+01  0.24350413195E+01  0.51109989000E-03 0.  1.
     -623    1    1    2    0    0 -0.89795751210E-02  0.40788024705E-02  0.33404783604E-02  0.17130000032E+03  0.17130000000E+03 0.  1.
      622    1    1    2    0    0 -0.66178099468E-01  0.20919407623E-01  0.15629067532E+01  0.15649583642E+01  0.40000000000E-01 0. -1.
</event>
<event>
 5   0  0.7212170E+07  0.9118800E+02  0.7818608E-02  0.1180000E+00
       11   -1    0    0    0    0  0.00000000000E+00  0.00000000000E+00  0.39999999673E+01  0.40000000000E+01  0.51109989000E-03 0. -1.
     -623   -1    0    0    0    0  0.00000000000E+00  0.00000000000E+00  0.12525980253E-10  0.17130000000E+03  0.17130000000E+03 0.  1.
       11    1    1    2    0    0  0.56157797420E-02 -0.82418443394E-03  0.30325859377E+00  0.30331213655E+00  0.51109989000E-03 0. -1.
     -623    1    1    2    0    0 -0.10086940027E-02 -0.17210157546E-03  0.27293496847E-03  0.17130000000E+03  0.17130000000E+03 0.  1.
      622    1    1    2    0    0 -0.46070857396E-02  0.99628600936E-03  0.36964684375E+01  0.36966878591E+01  0.40000000000E-01 0. -1.
</event>
<event>
 5   0  0.7212170E+07  0.9118800E+02  0.7818608E-02  0.1180000E+00
       11   -1    0    0    0    0  0.00000000000E+00  0.00000000000E+00  0.39999999673E+01  0.40000000000E+01  0.51109989000E-03 0. -1.
     -623   -1    0    0    0    0  0.00000000000E+00  0.00000000000E+00  0.12525980253E-10  0.17130000000E+03  0.17130000000E+03 0. -1.
       11    1    1    2    0    0  0.45658873839E-01 -0.63828692705E-01  0.20318092667E+01  0.20333243696E+01  0.51109989000E-03 0. -1.
     -623    1    1    2    0    0 -0.37059948149E-02  0.10093990051E-01  0.31044087748E-02  0.17130000037E+03  0.17130000000E+03 0. -1.
      622    1    1    2    0    0 -0.41952879024E-01  0.53734702655E-01  0.19650862919E+01  0.19666752648E+01  0.40000000000E-01 0.  0.
</event>
<event>
 5   0  0.7212170E+07  0.9118800E+02  0.7818608E-02  0.1180000E+00
       11   -1    0    0    0    0  0.00000000000E+00  0.00000000000E+00  0.39999999673E+01  0.40000000000E+01  0.51109989000E-03 0. -1.
     -623   -1    0    0    0    0  0.00000000000E+00  0.00000000000E+00  0.12525980253E-10  0.17130000000E+03  0.17130000000E+03 0. -1.
       11    1    1    2    0    0 -0.89940104402E-02  0.63458034112E-02  0.44197355855E+00  0.44211090139E+00  0.51109989000E-03 0. -1.
     -623    1    1    2    0    0  0.10723427409E-03  0.45248137316E-03  0.37976544078E-03  0.17130000000E+03  0.17130000000E+03 0. -1.
      622    1    1    2    0    0  0.88867761661E-02 -0.67982847843E-02  0.35576466427E+01  0.35578890968E+01  0.40000000000E-01 0. -1.
</event>
<event>
 5   0  0.7212170E+07  0.9118800E+02  0.7818608E-02  0.1180000E+00
       11   -1    0    0    0    0  0.00000000000E+00  0.00000000000E+00  0.39999999673E+01  0.40000000000E+01  0.51109989000E-03 0.  1.
     -623   -1    0    0    0    0  0.00000000000E+00  0.00000000000E+00  0.12525980253E-10  0.17130000000E+03  0.17130000000E+03 0. -1.
       11    1    1    2    0    0 -0.34702149452E-02  0.17758446837E-02  0.70235083551E+00  0.70236183936E+00  0.51109989000E-03 0.  1.
     -623    1    1    2    0    0  0.67718575796E-04 -0.43270668524E-03  0.25560777687E-03  0.17130000000E+03  0.17130000000E+03 0. -1.
      622    1    1    2    0    0  0.34024963693E-02 -0.13431379982E-02  0.32973935262E+01  0.32976381620E+01  0.40000000000E-01 0.  1.
</event>
<event>
 5   0  0.7212170E+07  0.9118800E+02  0.7818608E-02  0.1180000E+00
       11   -1    0    0    0    0  0.00000000000E+00  0.00000000000E+00  0.39999999673E+01  0.40000000000E+01  0.51109989000E-03 0.  1.
     -623   -1    0    0    0    0  0.00000000000E+00  0.00000000000E+00  0.12525980253E-10  0.17130000000E+03  0.17130000000E+03 0.  1.
       11    1    1    2    0    0  0.10175860698E-01 -0.73826444768E-02  0.21226344012E+00  0.21263602897E+00  0.51109989000E-03 0.  1.
     -623    1    1    2    0    0 -0.72387051283E-02  0.44922770740E-03  0.59143110020E-03  0.17130000015E+03  0.17130000000E+03 0.  1.
      622    1    1    2    0    0 -0.29371555684E-02  0.69334167694E-02  0.37871450968E+01  0.37873638172E+01  0.40000000000E-01 0.  1.
</event>
<event>
 5   0  0.7212170E+07  0.9118800E+02  0.7818608E-02  0.1180000E+00
       11   -1    0    0    0    0  0.00000000000E+00  0.00000000000E+00  0.39999999673E+01  0.40000000000E+01  0.51109989000E-03 0.  1.
     -623   -1    0    0    0    0  0.00000000000E+00  0.00000000000E+00  0.12525980253E-10  0.17130000000E+03  0.17130000000E+03 0.  1.
       11    1    1    2    0    0 -0.48269665966E-03  0.52430317737E-03  0.34429165764E-02  0.35528562505E-02  0.51109989000E-03 0. -1.
     -623    1    1    2    0    0 -0.12545797328E-02 -0.14362050670E-02  0.31058240907E-03  0.17130000001E+03  0.17130000000E+03 0.  1.
      622    1    1    2    0    0  0.17372763923E-02  0.91190188956E-03  0.39962464681E+01  0.39964471325E+01  0.40000000000E-01 0.  1.
</event>
<event>
 5   0  0.7212170E+07  0.9118800E+02  0.7818608E-02  0.1180000E+00
       11   -1    0    0    0    0  0.00000000000E+00  0.00000000000E+00  0.39999999673E+01  0.40000000000E+01  0.51109989000E-03 0. -1.
     -623   -1    0    0    0    0  0.00000000000E+00  0.00000000000E+00  0.12525980253E-10  0.17130000000E+03  0.17130000000E+03 0. -1.
       11    1    1    2    0    0  0.13010248737E-02  0.19377475843E-02  0.21294027017E-01  0.21427653654E-01  0.51109989000E-03 0. -1.
     -623    1    1    2    0    0 -0.89661996637E-03 -0.23064955986E-02  0.33473207726E-03  0.17130000002E+03  0.17130000000E+03 0. -1.
      622    1    1    2    0    0 -0.40440490726E-03  0.36874801454E-03  0.39783712087E+01  0.39785723286E+01  0.40000000000E-01 0. -1.
</event>
<event>
 5   0  0.7212170E+07  0.9118800E+02  0.7818608E-02  0.1180000E+00
       11   -1    0    0    0    0  0.00000000000E+00  0.00000000000E+00  0.39999999673E+01  0.40000000000E+01  0.51109989000E-03 0. -1.
     -623   -1    0    0    0    0  0.00000000000E+00  0.00000000000E+00  0.12525980253E-10  0.17130000000E+03  0.17130000000E+03 0.  1.
       11    1    1    2    0    0  0.12197224938E-01  0.23135033820E-01  0.16998194472E+01  0.17000207106E+01  0.51109989000E-03 0. -1.
     -623    1    1    2    0    0 -0.52297558793E-02 -0.29160047145E-03  0.67318395592E-03  0.17130000008E+03  0.17130000000E+03 0.  1.
      622    1    1    2    0    0 -0.69674690597E-02 -0.22843433349E-01  0.22995073358E+01  0.22999792076E+01  0.40000000000E-01 0. -1.
</event>
<event>
 5   0  0.7212170E+07  0.9118800E+02  0.7818608E-02  0.1180000E+00
       11   -1    0    0    0    0  0.00000000000E+00  0.00000000000E+00  0.39999999673E+01  0.40000000000E+01  0.51109989000E-03 0.  1.
     -623   -1    0    0    0    0  0.00000000000E+00  0.00000000000E+00  0.12525980253E-10  0.17130000000E+03  0.17130000000E+03 0.  1.
       11    1    1    2    0    0  0.77209374608E-03  0.15108085097E-01  0.65459674028E+00  0.65477171898E+00  0.51109989000E-03 0.  1.
     -623    1    1    2    0    0  0.74606763382E-02 -0.13463168528E-02  0.45271010652E-03  0.17130000017E+03  0.17130000000E+03 0.  1.
      622    1    1    2    0    0 -0.82327700860E-02 -0.13761768244E-01  0.33449505179E+01  0.33452281136E+01  0.40000000000E-01 0.  1.
</event>
<event>
 5   0  0.7212170E+07  0.9118800E+02  0.7818608E-02  0.1180000E+00
       11   -1    0    0    0    0  0.00000000000E+00  0.00000000000E+00  0.39999999673E+01  0.40000000000E+01  0.51109989000E-03 0. -1.
     -623   -1    0    0    0    0  0.00000000000E+00  0.00000000000E+00  0.12525980253E-10  0.17130000000E+03  0.17130000000E+03 0.  1.
       11    1    1    2    0    0 -0.28188128374E-02  0.39792674637E-02  0.14230189608E+00  0.14238634460E+00  0.51109989000E-03 0. -1.
     -623    1    1    2    0    0  0.39215926609E-02 -0.18170685928E-02  0.29262194605E-03  0.17130000005E+03  0.17130000000E+03 0.  1.
      622    1    1    2    0    0 -0.11027798241E-02 -0.21621988706E-02  0.38574054499E+01  0.38576136012E+01  0.40000000000E-01 0. -1.
</event>
<event>
 5   0  0.7212170E+07  0.9118800E+02  0.7818608E-02  0.1180000E+00
       11   -1    0    0    0    0  0.00000000000E+00  0.00000000000E+00  0.39999999673E+01  0.40000000000E+01  0.51109989000E-03 0. -1.
     -623   -1    0    0    0    0  0.00000000000E+00  0.00000000000E+00  0.12525980253E-10  0.17130000000E+03  0.17130000000E+03 0.  1.
       11    1    1    2    0    0  0.36611509728E-02  0.40510859789E-02  0.48402161022E-01  0.48711864455E-01  0.51109989000E-03 0. -1.
     -623    1    1    2    0    0 -0.21099954309E-02 -0.11417968829E-01  0.51970828093E-03  0.17130000039E+03  0.17130000000E+03 0.  1.
      622    1    1    2    0    0 -0.15511555419E-02  0.73668828497E-02  0.39510780980E+01  0.39512877412E+01  0.40000000000E-01 0. -1.
</event>
<event>
 5   0  0.7212170E+07  0.9118800E+02  0.7818608E-02  0.1180000E+00
       11   -1    0    0    0    0  0.00000000000E+00  0.00000000000E+00  0.39999999673E+01  0.40000000000E+01  0.51109989000E-03 0. -1.
     -623   -1    0    0    0    0  0.00000000000E+00  0.00000000000E+00  0.12525980253E-10  0.17130000000E+03  0.17130000000E+03 0.  1.
       11    1    1    2    0    0  0.13613809002E-01  0.28386882078E-02  0.34589366615E+00  0.34617348750E+00  0.51109989000E-03 0. -1.
     -623    1    1    2    0    0 -0.18408935476E-01 -0.12903491910E-01  0.51722959176E-03  0.17130000148E+03  0.17130000000E+03 0.  1.
      622    1    1    2    0    0  0.47951264705E-02  0.10064803700E-01  0.36535890710E+01  0.36538250359E+01  0.40000000000E-01 0. -1.
</event>
<event>
 5   0  0.7212170E+07  0.9118800E+02  0.7818608E-02  0.1180000E+00
       11   -1    0    0    0    0  0.00000000000E+00  0.00000000000E+00  0.39999999673E+01  0.40000000000E+01  0.51109989000E-03 0. -1.
     -623   -1    0    0    0    0  0.00000000000E+00  0.00000000000E+00  0.12525980253E-10  0.17130000000E+03  0.17130000000E+03 0. -1.
       11    1    1    2    0    0 -0.11229031453E-01 -0.94399082102E-02  0.16252157111E+01  0.16252819976E+01  0.51109989000E-03 0. -1.
     -623    1    1    2    0    0  0.55585656762E-03  0.65333719448E-03  0.44340934532E-03  0.17130000000E+03  0.17130000000E+03 0. -1.
      622    1    1    2    0    0  0.10673174885E-01  0.87865710157E-02  0.23743408469E+01  0.23747179996E+01  0.40000000000E-01 0.  1.
</event>
<event>
 5   0  0.7212170E+07  0.9118800E+02  0.7818608E-02  0.1180000E+00
       11   -1    0    0    0    0  0.00000000000E+00  0.00000000000E+00  0.39999999673E+01  0.40000000000E+01  0.51109989000E-03 0. -1.
     -623   -1    0    0    0    0  0.00000000000E+00  0.00000000000E+00  0.12525980253E-10  0.17130000000E+03  0.17130000000E+03 0.  1.
       11    1    1    2    0    0 -0.31455909681E-01  0.19736616684E-01  0.24994006724E+01  0.24996765773E+01  0.51109989000E-03 0. -1.
     -623    1    1    2    0    0 -0.49554737289E-04 -0.27261854531E-02  0.12366485763E-02  0.17130000003E+03  0.17130000000E+03 0.  1.
      622    1    1    2    0    0  0.31505464418E-01 -0.17010431230E-01  0.14993626465E+01  0.15003233967E+01  0.40000000000E-01 0.  1.
</event>
<event>
 5   0  0.7212170E+07  0.9118800E+02  0.7818608E-02  0.1180000E+00
       11   -1    0    0    0    0  0.00000000000E+00  0.00000000000E+00  0.39999999673E+01  0.40000000000E+01  0.51109989000E-03 0. -1.
     -623   -1    0    0    0    0  0.00000000000E+00  0.00000000000E+00  0.12525980253E-10  0.17130000000E+03  0.17130000000E+03 0. -1.
       11    1    1    2    0    0 -0.74254653416E-02 -0.49839572617E-02  0.14330235925E+00  0.14358204886E+00  0.51109989000E-03 0. -1.
     -623    1    1    2    0    0  0.17947002355E-02 -0.82824785870E-02  0.51425053891E-03  0.17130000021E+03  0.17130000000E+03 0. -1.
      622    1    1    2    0    0  0.56307651059E-02  0.13266435850E-01  0.38561833581E+01  0.38564177412E+01  0.40000000000E-01 0. -1.
</event>
<event>
 5   0  0.7212170E+07  0.9118800E+02  0.7818608E-02  0.1180000E+00
       11   -1    0    0    0    0  0.00000000000E+00  0.00000000000E+00  0.39999999673E+01  0.40000000000E+01  0.51109989000E-03 0. -1.
     -623   -1    0    0    0    0  0.00000000000E+00  0.00000000000E+00  0.12525980253E-10  0.17130000000E+03  0.17130000000E+03 0.  1.
       11    1    1    2    0    0  0.43318109103E-02  0.25676574211E-02  0.65925060922E-02  0.83114264762E-02  0.51109989000E-03 0. -1.
     -623    1    1    2    0    0 -0.37303063336E-02  0.56337381837E-02  0.19279244489E-02  0.17130000014E+03  0.17130000000E+03 0.  1.
      622    1    1    2    0    0 -0.60150457659E-03 -0.82013956051E-02  0.39914795370E+01  0.39916884296E+01  0.40000000000E-01 0. -1.
</event>
<event>
 5   0  0.7212170E+07  0.9118800E+02  0.7818608E-02  0.1180000E+00
       11   -1    0    0    0    0  0.00000000000E+00  0.00000000000E+00  0.39999999673E+01  0.40000000000E+01  0.51109989000E-03 0. -1.
     -623   -1    0    0    0    0  0.00000000000E+00  0.00000000000E+00  0.12525980253E-10  0.17130000000E+03  0.17130000000E+03 0. -1.
       11    1    1    2    0    0  0.11440525286E-02 -0.11021124188E-02  0.10427806597E-01  0.10560486802E-01  0.51109989000E-03 0.  1.
     -623    1    1    2    0    0 -0.88212276586E-03 -0.61677851136E-02  0.33992853103E-03  0.17130000011E+03  0.17130000000E+03 0. -1.
      622    1    1    2    0    0 -0.26192976277E-03  0.72698975325E-02  0.39892322323E+01  0.39894393996E+01  0.40000000000E-01 0. -1.
</event>
<event>
 5   0  0.7212170E+07  0.9118800E+02  0.7818608E-02  0.1180000E+00
       11   -1    0    0    0    0  0.00000000000E+00  0.00000000000E+00  0.39999999673E+01  0.40000000000E+01  0.51109989000E-03 0.  1.
     -623   -1    0    0    0    0  0.00000000000E+00  0.00000000000E+00  0.12525980253E-10  0.17130000000E+03  0.17130000000E+03 0.  1.
       11    1    1    2    0    0  0.28046274051E-01 -0.19133473878E-02  0.61934812338E+00  0.61998597850E+00  0.51109989000E-03 0.  1.
     -623    1    1    2    0    0 -0.15775659459E-02  0.99171597605E-03  0.97830113762E-03  0.17130000001E+03  0.17130000000E+03 0.  1.
      622    1    1    2    0    0 -0.26468708105E-01  0.92163141173E-03  0.33796735430E+01  0.33800140088E+01  0.40000000000E-01 0.  1.
</event>
<event>
 5   0  0.7212170E+07  0.9118800E+02  0.7818608E-02  0.1180000E+00
       11   -1    0    0    0    0  0.00000000000E+00  0.00000000000E+00  0.39999999673E+01  0.40000000000E+01  0.51109989000E-03 0.  1.
     -623   -1    0    0    0    0  0.00000000000E+00  0.00000000000E+00  0.12525980253E-10  0.17130000000E+03  0.17130000000E+03 0.  1.
       11    1    1    2    0    0 -0.28800133258E-02  0.39087302393E-02  0.15079561133E-01  0.15850143088E-01  0.51109989000E-03 0.  1.
     -623    1    1    2    0    0  0.18529269823E-02 -0.70892078748E-03  0.97278168471E-03  0.17130000001E+03  0.17130000000E+03 0.  1.
      622    1    1    2    0    0  0.10270863434E-02 -0.31998094518E-02  0.39839476246E+01  0.39841498427E+01  0.40000000000E-01 0.  0.
</event>
<event>
 5   0  0.7212170E+07  0.9118800E+02  0.7818608E-02  0.1180000E+00
       11   -1    0    0    0    0  0.00000000000E+00  0.00000000000E+00  0.39999999673E+01  0.40000000000E+01  0.51109989000E-03 0. -1.
     -623   -1    0    0    0    0  0.00000000000E+00  0.00000000000E+00  0.12525980253E-10  0.17130000000E+03  0.17130000000E+03 0.  1.
       11    1    1    2    0    0  0.21219575859E-02 -0.61392500740E-02  0.17061637152E+01  0.17061761566E+01  0.51109989000E-03 0. -1.
     -623    1    1    2    0    0 -0.11810005554E-02  0.18640899479E-02  0.36539010011E-03  0.17130000001E+03  0.17130000000E+03 0.  1.
      622    1    1    2    0    0 -0.94095703027E-03  0.42751601258E-02  0.22934708628E+01  0.22938238295E+01  0.40000000000E-01 0. -1.
</event>
<event>
 5   0  0.7212170E+07  0.9118800E+02  0.7818608E-02  0.1180000E+00
       11   -1    0    0    0    0  0.00000000000E+00  0.00000000000E+00  0.39999999673E+01  0.40000000000E+01  0.51109989000E-03 0. -1.
     -623   -1    0    0    0    0  0.00000000000E+00  0.00000000000E+00  0.12525980253E-10  0.17130000000E+03  0.17130000000E+03 0. -1.
       11    1    1    2    0    0  0.28960169258E-05 -0.37016451620E-02  0.25705001295E-01  0.25975190085E-01  0.51109989000E-03 0. -1.
     -623    1    1    2    0    0 -0.16505367411E-02  0.28154929278E-02  0.47194061889E-03  0.17130000003E+03  0.17130000000E+03 0. -1.
      622    1    1    2    0    0  0.16476407245E-02  0.88615223368E-03  0.39738230261E+01  0.39740247788E+01  0.40000000000E-01 0. -1.
</event>
<event>
 5   0  0.7212170E+07  0.9118800E+02  0.7818608E-02  0.1180000E+00
       11   -1    0    0    0    0  0.00000000000E+00  0.00000000000E+00  0.39999999673E+01  0.40000000000E+01  0.51109989000E-03 0.  1.
     -623   -1    0    0    0    0  0.00000000000E+00  0.00000000000E+00  0.12525980253E-10  0.17130000000E+03  0.17130000000E+03 0.  1.
       11    1    1    2    0    0 -0.45714907939E-02 -0.68640019844E-02  0.37427219578E+00  0.37436339406E+00  0.51109989000E-03 0.  1.
     -623    1    1    2    0    0 -0.92151980996E-03  0.82211944289E-03  0.32102386223E-03  0.17130000000E+03  0.17130000000E+03 0.  1.
      622    1    1    2    0    0  0.54930106036E-02  0.60418825417E-02  0.36254067466E+01  0.36256366001E+01  0.40000000000E-01 0.  1.
</event>
<event>
 5   0  0.7212170E+07  0.9118800E+02  0.7818608E-02  0.1180000E+00
       11   -1    0    0    0    0  0.00000000000E+00  0.00000000000E+00  0.39999999673E+01  0.40000000000E+01  0.51109989000E-03 0. -1.
     -623   -1    0    0    0    0  0.00000000000E+00  0.00000000000E+00  0.12525980253E-10  0.17130000000E+03  0.17130000000E+03 0.  1.
       11    1    1    2    0    0  0.49395285218E-03  0.12544063833E-02  0.47908975949E-02  0.50031437774E-02  0.51109989000E-03 0. -1.
     -623    1    1    2    0    0  0.10657597003E-02 -0.16871616955E-02  0.41280907788E-03  0.17130000001E+03  0.17130000000E+03 0.  1.
      622    1    1    2    0    0 -0.15597125527E-02  0.43275531251E-03  0.39947962614E+01  0.39949968448E+01  0.40000000000E-01 0. -1.
</event>
<event>
 5   0  0.7212170E+07  0.9118800E+02  0.7818608E-02  0.1180000E+00
       11   -1    0    0    0    0  0.00000000000E+00  0.00000000000E+00  0.39999999673E+01  0.40000000000E+01  0.51109989000E-03 0.  1.
     -623   -1    0    0    0    0  0.00000000000E+00  0.00000000000E+00  0.12525980253E-10  0.17130000000E+03  0.17130000000E+03 0. -1.
       11    1    1    2    0    0  0.20562701869E-02  0.63223560109E-02  0.18537002046E-01  0.19699799506E-01  0.51109989000E-03 0.  1.
     -623    1    1    2    0    0 -0.21712529802E-02  0.18056186014E-02  0.13720894892E-02  0.17130000003E+03  0.17130000000E+03 0. -1.
      622    1    1    2    0    0  0.11498279330E-03 -0.81279746123E-02  0.39800908759E+01  0.39803001718E+01  0.40000000000E-01 0.  1.
</event>
<event>
 5   0  0.7212170E+07  0.9118800E+02  0.7818608E-02  0.1180000E+00
       11   -1    0    0    0    0  0.00000000000E+00  0.00000000000E+00  0.39999999673E+01  0.40000000000E+01  0.51109989000E-03 0. -1.
     -623   -1    0    0    0    0  0.00000000000E+00  0.00000000000E+00  0.12525980253E-10  0.17130000000E+03  0.17130000000E+03 0. -1.
       11    1    1    2    0    0 -0.14688110995E-01 -0.19133690273E-01  0.11254127789E+01  0.11256713654E+01  0.51109989000E-03 0. -1.
     -623    1    1    2    0    0 -0.83290082930E-02  0.56129478181E-02  0.66116270452E-03  0.17130000030E+03  0.17130000000E+03 0. -1.
      622    1    1    2    0    0  0.23017119288E-01  0.13520742455E-01  0.28739260258E+01  0.28743283390E+01  0.40000000000E-01 0. -1.
</event>
<event>
 5   0  0.7212170E+07  0.9118800E+02  0.7818608E-02  0.1180000E+00
       11   -1    0    0    0    0  0.00000000000E+00  0.00000000000E+00  0.39999999673E+01  0.40000000000E+01  0.51109989000E-03 0.  1.
     -623   -1    0    0    0    0  0.00000000000E+00  0.00000000000E+00  0.12525980253E-10  0.17130000000E+03  0.17130000000E+03 0.  1.
       11    1    1    2    0    0 -0.95508972909E-02  0.18043266808E-01  0.22268227603E+00  0.22361671762E+00  0.51109989000E-03 0.  1.
     -623    1    1    2    0    0 -0.62857541695E-02 -0.23296036497E-01  0.11848231428E-02  0.17130000170E+03  0.17130000000E+03 0.  1.
      622    1    1    2    0    0  0.15836651460E-01  0.52527696883E-02  0.37761328680E+01  0.37763815787E+01  0.40000000000E-01 0.  1.
</event>
<event>
 5   0  0.7212170E+07  0.9118800E+02  0.7818608E-02  0.1180000E+00
       11   -1    0    0    0    0  0.00000000000E+00  0.00000000000E+00  0.39999999673E+01  0.40000000000E+01  0.51109989000E-03 0.  1.
     -623   -1    0    0    0    0  0.00000000000E+00  0.00000000000E+00  0.12525980253E-10  0.17130000000E+03  0.17130000000E+03 0. -1.
       11    1    1    2    0    0  0.36080604908E-03  0.40663033121E-03  0.76675627643E-02  0.77037829067E-02  0.51109989000E-03 0.  1.
     -623    1    1    2    0    0 -0.75227593648E-03 -0.28262349414E-03  0.23660163248E-03  0.17130000000E+03  0.17130000000E+03 0. -1.
      622    1    1    2    0    0  0.39146988737E-03 -0.12400683707E-03  0.39920958028E+01  0.39922962149E+01  0.40000000000E-01 0.  1.
</event>
<event>
 5   0  0.7212170E+07  0.9118800E+02  0.7818608E-02  0.1180000E+00
       11   -1    0    0    0    0  0.00000000000E+00  0.00000000000E+00  0.39999999673E+01  0.40000000000E+01  0.51109989000E-03 0.  1.
     -623   -1    0    0    0    0  0.00000000000E+00  0.00000000000E+00  0.12525980253E-10  0.17130000000E+03  0.17130000000E+03 0. -1.
       11    1    1    2    0    0  0.31188547039E-02  0.14565430757E-01  0.91645582938E+00  0.91657701665E+00  0.51109989000E-03 0.  1.
     -623    1    1    2    0    0 -0.65474818025E-03  0.11272978253E-02  0.42154442379E-03  0.17130000001E+03  0.17130000000E+03 0. -1.
      622    1    1    2    0    0 -0.24641065235E-02 -0.15692728583E-01  0.30831225946E+01  0.30834229789E+01  0.40000000000E-01 0.  0.
</event>
<event>
 5   0  0.7212170E+07  0.9118800E+02  0.7818608E-02  0.1180000E+00
       11   -1    0    0    0    0  0.00000000000E+00  0.00000000000E+00  0.39999999673E+01  0.40000000000E+01  0.51109989000E-03 0.  1.
     -623   -1    0    0    0    0  0.00000000000E+00  0.00000000000E+00  0.12525980253E-10  0.17130000000E+03  0.17130000000E+03 0. -1.
       11    1    1    2    0    0 -0.11293104280E-02  0.69566547129E-03  0.12003157504E-01  0.12087030473E-01  0.51109989000E-03 0.  1.
     -623    1    1    2    0    0  0.13822182845E-03  0.17138144652E-03  0.28466935723E-03  0.17130000000E+03  0.17130000000E+03 0. -1.
      622    1    1    2    0    0  0.99108859953E-03 -0.86704691783E-03  0.39877121409E+01  0.39879129696E+01  0.40000000000E-01 0.  1.
</event>
<event>
 5   0  0.7212170E+07  0.9118800E+02  0.7818608E-02  0.1180000E+00
       11   -1    0    0    0    0  0.00000000000E+00  0.00000000000E+00  0.39999999673E+01  0.40000000000E+01  0.51109989000E-03 0.  1.
     -623   -1    0    0    0    0  0.00000000000E+00  0.00000000000E+00  0.12525980253E-10  0.17130000000E+03  0.17130000000E+03 0. -1.
       11    1    1    2    0    0 -0.33562673409E-02  0.31819420704E-03  0.91055293436E-01  0.91119116896E-01  0.51109989000E-03 0.  1.
     -623    1    1    2    0    0  0.63209682273E-02 -0.12191516039E-01  0.28816716692E-03  0.17130000055E+03  0.17130000000E+03 0. -1.
      622    1    1    2    0    0 -0.29647008850E-02  0.11873321829E-01  0.39086565059E+01  0.39088803315E+01  0.40000000000E-01 0.  1.
</event>
<event>
 5   0  0.7212170E+07  0.9118800E+02  0.7818608E-02  0.1180000E+00
       11   -1    0    0    0    0  0.00000000000E+00  0.00000000000E+00  0.39999999673E+01  0.40000000000E+01  0.51109989000E-03 0.  1.
     -623   -1    0    0    0    0  0.00000000000E+00  0.00000000000E+00  0.12525980253E-10  0.17130000000E+03  0.17130000000E+03 0.  1.
       11    1    1    2    0    0  0.20648766043E-03 -0.29088235656E-02  0.69497541118E-01  0.69560573145E-01  0.51109989000E-03 0.  1.
     -623    1    1    2    0    0 -0.11860944868E-01  0.96177205020E-04  0.28524129764E-03  0.17130000041E+03  0.17130000000E+03 0.  1.
      622    1    1    2    0    0  0.11654457212E-01  0.28126463605E-02  0.39302171863E+01  0.39304390174E+01  0.40000000000E-01 0.  1.
</event>
<event>
 5   0  0.7212170E+07  0.9118800E+02  0.7818608E-02  0.1180000E+00
       11   -1    0    0    0    0  0.00000000000E+00  0.00000000000E+00  0.39999999673E+01  0.40000000000E+01  0.51109989000E-03 0.  1.
     -623   -1    0    0    0    0  0.00000000000E+00  0.00000000000E+00  0.12525980253E-10  0.17130000000E+03  0.17130000000E+03 0.  1.
       11    1    1    2    0    0 -0.10625457841E-02  0.21674503818E-02  0.55488711908E+00  0.55489260491E+00  0.51109989000E-03 0.  1.
     -623    1    1    2    0    0 -0.16029410374E-02  0.12757281186E-02  0.24043876935E-03  0.17130000001E+03  0.17130000000E+03 0.  1.
      622    1    1    2    0    0  0.26654868217E-02 -0.34431785006E-02  0.34448724101E+01  0.34451073833E+01  0.40000000000E-01 0.  1.
</event>
<event>
 5   0  0.7212170E+07  0.9118800E+02  0.7818608E-02  0.1180000E+00
       11   -1    0    0    0    0  0.00000000000E+00  0.00000000000E+00  0.39999999673E+01  0.40000000000E+01  0.51109989000E-03 0. -1.
     -623   -1    0    0    0    0  0.00000000000E+00  0.00000000000E+00  0.12525980253E-10  0.17130000000E+03  0.17130000000E+03 0. -1.
       11    1    1    2    0    0  0.40729056057E-02  0.84954733002E-02  0.17582367119E+01  0.17582620276E+01  0.51109989000E-03 0. -1.
     -623    1    1    2    0    0  0.59667026718E-02  0.73232933996E-02  0.46074598522E-03  0.17130000026E+03  0.17130000000E+03 0. -1.
      622    1    1    2    0    0 -0.10039608279E-01 -0.15818766701E-01  0.22413025102E+01  0.22417377120E+01  0.40000000000E-01 0.  0.
</event>
<event>
 5   0  0.7212170E+07  0.9118800E+02  0.7818608E-02  0.1180000E+00
       11   -1    0    0    0    0  0.00000000000E+00  0.00000000000E+00  0.39999999673E+01  0.40000000000E+01  0.51109989000E-03 0.  1.
     -623   -1    0    0    0    0  0.00000000000E+00  0.00000000000E+00  0.12525980253E-10  0.17130000000E+03  0.17130000000E+03 0. -1.
       11    1    1    2    0    0 -0.24363210930E-03 -0.90367522278E-03  0.83278461784E-02  0.83958460313E-02  0.51109989000E-03 0.  1.
     -623    1    1    2    0    0  0.23490328716E-03 -0.10218758278E-03  0.26852007372E-03  0.17130000000E+03  0.17130000000E+03 0. -1.
      622    1    1    2    0    0  0.87288220471E-05  0.10058628056E-02  0.39914036026E+01  0.39916041551E+01  0.40000000000E-01 0.  1.
</event>
<event>
 5   0  0.7212170E+07  0.9118800E+02  0.7818608E-02  0.1180000E+00
       11   -1    0    0    0    0  0.00000000000E+00  0.00000000000E+00  0.39999999673E+01  0.40000000000E+01  0.51109989000E-03 0. -1.
     -623   -1    0    0    0    0  0.00000000000E+00  0.00000000000E+00  0.12525980253E-10  0.17130000000E+03  0.17130000000E+03 0. -1.
       11    1    1    2    0    0 -0.15643708420E-01 -0.22025127200E-01  0.96869418867E+00  0.96907095933E+00  0.51109989000E-03 0. -1.
     -623    1    1    2    0    0  0.10530900438E-01  0.82728853294E-03  0.71946959416E-03  0.17130000033E+03  0.17130000000E+03 0. -1.
      622    1    1    2    0    0  0.51128079808E-02  0.21197838667E-01  0.30305863096E+01  0.30309287139E+01  0.40000000000E-01 0. -1.
</event>
<event>
 5   0  0.7212170E+07  0.9118800E+02  0.7818608E-02  0.1180000E+00
       11   -1    0    0    0    0  0.00000000000E+00  0.00000000000E+00  0.39999999673E+01  0.40000000000E+01  0.51109989000E-03 0. -1.
     -623   -1    0    0    0    0  0.00000000000E+00  0.00000000000E+00  0.12525980253E-10  0.17130000000E+03  0.17130000000E+03 0.  1.
       11    1    1    2    0    0  0.23287950735E-02 -0.17872763255E-03  0.46440922179E-02  0.52234132219E-02  0.51109989000E-03 0. -1.
     -623    1    1    2    0    0 -0.35368532907E-02 -0.17154449481E-02  0.78023354589E-03  0.17130000005E+03  0.17130000000E+03 0.  1.
      622    1    1    2    0    0  0.12080582179E-02  0.18941725809E-02  0.39945756423E+01  0.39947765406E+01  0.40000000000E-01 0. -1.
</event>
<event>
 5   0  0.7212170E+07  0.9118800E+02  0.7818608E-02  0.1180000E+00
       11   -1    0    0    0    0  0.00000000000E+00  0.00000000000E+00  0.39999999673E+01  0.40000000000E+01  0.51109989000E-03 0.  1.
     -623   -1    0    0    0    0  0.00000000000E+00  0.00000000000E+00  0.12525980253E-10  0.17130000000E+03  0.17130000000E+03 0. -1.
       11    1    1    2    0    0  0.88597630498E-02  0.76665676028E-02  0.30518855366E+00  0.30541379499E+00  0.51109989000E-03 0.  1.
     -623    1    1    2    0    0 -0.52361006865E-02 -0.17386618466E-01  0.45727525313E-03  0.17130000096E+03  0.17130000000E+03 0. -1.
      622    1    1    2    0    0 -0.36236623624E-02  0.97200508660E-02  0.36943541391E+01  0.36945852427E+01  0.40000000000E-01 0.  1.
</event>
<event>
 5   0  0.7212170E+07  0.9118800E+02  0.7818608E-02  0.1180000E+00
       11   -1    0    0    0    0  0.00000000000E+00  0.00000000000E+00  0.39999999673E+01  0.40000000000E+01  0.51109989000E-03 0.  1.
     -623   -1    0    0    0    0  0.00000000000E+00  0.00000000000E+00  0.12525980253E-10  0.17130000000E+03  0.17130000000E+03 0.  1.
       11    1    1    2    0    0  0.12899230758E-02  0.21195172899E-03  0.42270512167E-01  0.42293808614E-01  0.51109989000E-03 0.  1.
     -623    1    1    2    0    0 -0.15169395480E-02  0.68618278854E-03  0.22552292206E-03  0.17130000001E+03  0.17130000000E+03 0.  1.
      622    1    1    2    0    0  0.22701647227E-03 -0.89813451755E-03  0.39575039324E+01  0.39577061833E+01  0.40000000000E-01 0.  1.
</event>
<event>
 5   0  0.7212170E+07  0.9118800E+02  0.7818608E-02  0.1180000E+00
       11   -1    0    0    0    0  0.00000000000E+00  0.00000000000E+00  0.39999999673E+01  0.40000000000E+01  0.51109989000E-03 0.  1.
     -623   -1    0    0    0    0  0.00000000000E+00  0.00000000000E+00  0.12525980253E-10  0.17130000000E+03  0.17130000000E+03 0.  1.
       11    1    1    2    0    0  0.15614649155E-01 -0.52167700192E-02  0.12283345513E+01  0.12284449776E+01  0.51109989000E-03 0.  1.
     -623    1    1    2    0    0 -0.11140434740E-01 -0.29539808164E-03  0.40851219583E-03  0.17130000036E+03  0.17130000000E+03 0.  1.
      622    1    1    2    0    0 -0.44742144133E-02  0.55121681009E-02  0.27712569044E+01  0.27715546599E+01  0.40000000000E-01 0.  0.
</event>
<event>
 5   0  0.7212170E+07  0.9118800E+02  0.7818608E-02  0.1180000E+00
       11   -1    0    0    0    0  0.00000000000E+00  0.00000000000E+00  0.39999999673E+01  0.40000000000E+01  0.51109989000E-03 0. -1.
     -623   -1    0    0    0    0  0.00000000000E+00  0.00000000000E+00  0.12525980253E-10  0.17130000000E+03  0.17130000000E+03 0.  1.
       11    1    1    2    0    0 -0.14077021559E-01  0.24982578950E-01  0.39220148397E-01  0.48587787049E-01  0.51109989000E-03 0. -1.
     -623    1    1    2    0    0  0.42800261902E-04  0.31145496393E-01  0.99967984700E-02  0.17130000312E+03  0.17130000000E+03 0.  1.
      622    1    1    2    0    0  0.14034221297E-01 -0.56128075342E-01  0.39507830205E+01  0.39514090898E+01  0.40000000000E-01 0. -1.
</event>
<event>
 5   0  0.7212170E+07  0.9118800E+02  0.7818608E-02  0.1180000E+00
       11   -1    0    0    0    0  0.00000000000E+00  0.00000000000E+00  0.39999999673E+01  0.40000000000E+01  0.51109989000E-03 0. -1.
     -623   -1    0    0    0    0  0.00000000000E+00  0.00000000000E+00  0.12525980253E-10  0.17130000000E+03  0.17130000000E+03 0.  1.
       11    1    1    2    0    0  0.23341299553E-02  0.60151919819E-02  0.19144164181E+00  0.19155102229E+00  0.51109989000E-03 0. -1.
     -623    1    1    2    0    0 -0.25607974018E-02  0.60158128969E-03  0.32518843959E-03  0.17130000002E+03  0.17130000000E+03 0.  1.
      622    1    1    2    0    0  0.22666744691E-03 -0.66167732717E-02  0.38082331378E+01  0.38084489579E+01  0.40000000000E-01 0. -1.
</event>
<event>
 5   0  0.7212170E+07  0.9118800E+02  0.7818608E-02  0.1180000E+00
       11   -1    0    0    0    0  0.00000000000E+00  0.00000000000E+00  0.39999999673E+01  0.40000000000E+01  0.51109989000E-03 0.  1.
     -623   -1    0    0    0    0  0.00000000000E+00  0.00000000000E+00  0.12525980253E-10  0.17130000000E+03  0.17130000000E+03 0.  1.
       11    1    1    2    0    0  0.90022178686E-02  0.12253119289E-01  0.51701581604E+00  0.51723959063E+00  0.51109989000E-03 0.  1.
     -623    1    1    2    0    0 -0.67087721458E-03  0.48938173777E-03  0.48673313645E-03  0.17130000000E+03  0.17130000000E+03 0.  1.
      622    1    1    2    0    0 -0.83313406539E-02 -0.12742501027E-01  0.34824974192E+01  0.34827604077E+01  0.40000000000E-01 0.  1.
</event>
<event>
 5   0  0.7212170E+07  0.9118800E+02  0.7818608E-02  0.1180000E+00
       11   -1    0    0    0    0  0.00000000000E+00  0.00000000000E+00  0.39999999673E+01  0.40000000000E+01  0.51109989000E-03 0.  1.
     -623   -1    0    0    0    0  0.00000000000E+00  0.00000000000E+00  0.12525980253E-10  0.17130000000E+03  0.17130000000E+03 0. -1.
       11    1    1    2    0    0 -0.15820584167E-01  0.71647820885E-02  0.97505616544E-01  0.99041564338E-01  0.51109989000E-03 0.  1.
     -623    1    1    2    0    0  0.43645174277E-02 -0.35490890421E-02  0.17595981172E-02  0.17130000010E+03  0.17130000000E+03 0. -1.
      622    1    1    2    0    0  0.11456066740E-01 -0.36156930463E-02  0.39007347527E+01  0.39009583343E+01  0.40000000000E-01 0.  1.
</event>
<event>
 5   0  0.7212170E+07  0.9118800E+02  0.7818608E-02  0.1180000E+00
       11   -1    0    0    0    0  0.00000000000E+00  0.00000000000E+00  0.39999999673E+01  0.40000000000E+01  0.51109989000E-03 0. -1.
     -623   -1    0    0    0    0  0.00000000000E+00  0.00000000000E+00  0.12525980253E-10  0.17130000000E+03  0.17130000000E+03 0. -1.
       11    1    1    2    0    0  0.91980784759E-03 -0.58720582766E-02  0.10242516682E+00  0.10259874822E+00  0.51109989000E-03 0. -1.
     -623    1    1    2    0    0  0.12886153047E-02  0.20820095736E-02  0.38130571937E-03  0.17130000002E+03  0.17130000000E+03 0. -1.
      622    1    1    2    0    0 -0.22084231525E-02  0.37900487027E-02  0.38971934954E+01  0.38974012344E+01  0.40000000000E-01 0. -1.
</event>
<event>
 5   0  0.7212170E+07  0.9118800E+02  0.7818608E-02  0.1180000E+00
       11   -1    0    0    0    0  0.00000000000E+00  0.00000000000E+00  0.39999999673E+01  0.40000000000E+01  0.51109989000E-03 0. -1.
     -623   -1    0    0    0    0  0.00000000000E+00  0.00000000000E+00  0.12525980253E-10  0.17130000000E+03  0.17130000000E+03 0.  1.
       11    1    1    2    0    0 -0.15417716254E-02 -0.58542904649E-02  0.15765437486E-01  0.16895562104E-01  0.51109989000E-03 0. -1.
     -623    1    1    2    0    0  0.12972409661E-02 -0.33052415411E-02  0.13415271225E-02  0.17130000004E+03  0.17130000000E+03 0.  1.
      622    1    1    2    0    0  0.24453065925E-03  0.91595320062E-02  0.39828930030E+01  0.39831043960E+01  0.40000000000E-01 0. -1.
</event>
<event>
 5   0  0.7212170E+07  0.9118800E+02  0.7818608E-02  0.1180000E+00
       11   -1    0    0    0    0  0.00000000000E+00  0.00000000000E+00  0.39999999673E+01  0.40000000000E+01  0.51109989000E-03 0.  1.
     -623   -1    0    0    0    0  0.00000000000E+00  0.00000000000E+00  0.12525980253E-10  0.17130000000E+03  0.17130000000E+03 0.  1.
       11    1    1    2    0    0  0.17553353055E-02  0.19926245836E-01  0.15223856819E+01  0.15225171796E+01  0.51109989000E-03 0.  1.
     -623    1    1    2    0    0 -0.28293163703E-02  0.27260214472E-03  0.53700416624E-03  0.17130000002E+03  0.17130000000E+03 0.  1.
      622    1    1    2    0    0  0.10739810646E-02 -0.20198847981E-01  0.24770772811E+01  0.24774827957E+01  0.40000000000E-01 0.  1.
</event>
<event>
 5   0  0.7212170E+07  0.9118800E+02  0.7818608E-02  0.1180000E+00
       11   -1    0    0    0    0  0.00000000000E+00  0.00000000000E+00  0.39999999673E+01  0.40000000000E+01  0.51109989000E-03 0. -1.
     -623   -1    0    0    0    0  0.00000000000E+00  0.00000000000E+00  0.12525980253E-10  0.17130000000E+03  0.17130000000E+03 0. -1.
       11    1    1    2    0    0  0.37350938437E-01  0.94064339903E-01  0.26449542142E+01  0.26468899201E+01  0.51109989000E-03 0. -1.
     -623    1    1    2    0    0  0.61354562663E-02 -0.41578259579E-01  0.42508251202E-02  0.17130000521E+03  0.17130000000E+03 0. -1.
      622    1    1    2    0    0 -0.43486394704E-01 -0.52486080325E-01  0.13507949280E+01  0.13531048713E+01  0.40000000000E-01 0. -1.
</event>
<event>
 5   0  0.7212170E+07  0.9118800E+02  0.7818608E-02  0.1180000E+00
       11   -1    0    0    0    0  0.00000000000E+00  0.00000000000E+00  0.39999999673E+01  0.40000000000E+01  0.51109989000E-03 0. -1.
     -623   -1    0    0    0    0  0.00000000000E+00  0.00000000000E+00  0.12525980253E-10  0.17130000000E+03  0.17130000000E+03 0. -1.
       11    1    1    2    0    0  0.21712419518E-02 -0.30249047158E-02  0.64213445204E+00  0.64214545086E+00  0.51109989000E-03 0. -1.
     -623    1    1    2    0    0 -0.33964180605E-04 -0.40122877216E-03  0.25165091915E-03  0.17130000000E+03  0.17130000000E+03 0. -1.
      622    1    1    2    0    0 -0.21372777712E-02  0.34261334881E-02  0.33576138658E+01  0.33578545499E+01  0.40000000000E-01 0.  0.
</event>
<event>
 5   0  0.7212170E+07  0.9118800E+02  0.7818608E-02  0.1180000E+00
       11   -1    0    0    0    0  0.00000000000E+00  0.00000000000E+00  0.39999999673E+01  0.40000000000E+01  0.51109989000E-03 0. -1.
     -623   -1    0    0    0    0  0.00000000000E+00  0.00000000000E+00  0.12525980253E-10  0.17130000000E+03  0.17130000000E+03 0.  1.
       11    1    1    2    0    0 -0.49213260468E-04  0.70271208866E-03  0.28691507191E-02  0.29982453487E-02  0.51109989000E-03 0. -1.
     -623    1    1    2    0    0 -0.27231867749E-03 -0.42263620892E-03  0.32924082638E-03  0.17130000000E+03  0.17130000000E+03 0.  1.
      622    1    1    2    0    0  0.32153193794E-03 -0.28007587977E-03  0.39968015755E+01  0.39970017533E+01  0.40000000000E-01 0. -1.
</event>
<event>
 5   0  0.7212170E+07  0.9118800E+02  0.7818608E-02  0.1180000E+00
       11   -1    0    0    0    0  0.00000000000E+00  0.00000000000E+00  0.39999999673E+01  0.40000000000E+01  0.51109989000E-03 0.  1.
     -623   -1    0    0    0    0  0.00000000000E+00  0.00000000000E+00  0.12525980253E-10  0.17130000000E+03  0.17130000000E+03 0.  1.
       11    1    1    2    0    0 -0.56911557790E-03 -0.46875020716E-04  0.12127223780E-02  0.14345760601E-02  0.51109989000E-03 0.  1.
     -623    1    1    2    0    0 -0.30642209288E-02 -0.25709812297E-02  0.42445284401E-03  0.17130000005E+03  0.17130000000E+03 0.  1.
      622    1    1    2    0    0  0.36333365075E-02  0.26178562510E-02  0.39983627932E+01  0.39985653778E+01  0.40000000000E-01 0.  1.
</event>
<event>
 5   0  0.7212170E+07  0.9118800E+02  0.7818608E-02  0.1180000E+00
       11   -1    0    0    0    0  0.00000000000E+00  0.00000000000E+00  0.39999999673E+01  0.40000000000E+01  0.51109989000E-03 0.  1.
     -623   -1    0    0    0    0  0.00000000000E+00  0.00000000000E+00  0.12525980253E-10  0.17130000000E+03  0.17130000000E+03 0. -1.
       11    1    1    2    0    0  0.38812682868E-01 -0.67935996115E-02  0.82290573135E+00  0.82384870046E+00  0.51109989000E-03 0.  1.
     -623    1    1    2    0    0  0.81609956995E-03 -0.20524656055E-02  0.14544178648E-02  0.17130000002E+03  0.17130000000E+03 0. -1.
      622    1    1    2    0    0 -0.39628782438E-01  0.88460652171E-02  0.31756398182E+01  0.31761512791E+01  0.40000000000E-01 0.  1.
</event>
<event>
 5   0  0.7212170E+07  0.9118800E+02  0.7818608E-02  0.1180000E+00
       11   -1    0    0    0    0  0.00000000000E+00  0.00000000000E+00  0.39999999673E+01  0.40000000000E+01  0.51109989000E-03 0. -1.
     -623   -1    0    0    0    0  0.00000000000E+00  0.00000000000E+00  0.12525980253E-10  0.17130000000E+03  0.17130000000E+03 0. -1.
       11    1    1    2    0    0  0.26515470419E-02 -0.46502032884E-04  0.12998584298E+00  0.13001389719E+00  0.51109989000E-03 0. -1.
     -623    1    1    2    0    0 -0.65715062032E-02  0.57473042440E-03  0.23689481147E-03  0.17130000013E+03  0.17130000000E+03 0. -1.
      622    1    1    2    0    0  0.39199591611E-02 -0.52822839150E-03  0.38697772295E+01  0.38699859755E+01  0.40000000000E-01 0. -1.
</event>
<event>
 5   0  0.7212170E+07  0.9118800E+02  0.7818608E-02  0.1180000E+00
       11   -1    0    0    0    0  0.00000000000E+00  0.00000000000E+00  0.39999999673E+01  0.40000000000E+01  0.51109989000E-03 0. -1.
     -623   -1    0    0    0    0  0.00000000000E+00  0.00000000000E+00  0.12525980253E-10  0.17130000000E+03  0.17130000000E+03 0. -1.
       11    1    1    2    0    0  0.10575352130E-01 -0.13488986237E-01  0.42416833534E+00  0.42451481571E+00  0.51109989000E-03 0. -1.
     -623    1    1    2    0    0 -0.20703878864E-01  0.58720683937E-02  0.59401411368E-03  0.17130000135E+03  0.17130000000E+03 0. -1.
      622    1    1    2    0    0  0.10128526735E-01  0.76169178425E-02  0.35752376181E+01  0.35754838317E+01  0.40000000000E-01 0. -1.
</event>
<event>
 5   0  0.7212170E+07  0.9118800E+02  0.7818608E-02  0.1180000E+00
       11   -1    0    0    0    0  0.00000000000E+00  0.00000000000E+00  0.39999999673E+01  0.40000000000E+01  0.51109989000E-03 0.  1.
     -623   -1    0    0    0    0  0.00000000000E+00  0.00000000000E+00  0.12525980253E-10  0.17130000000E+03  0.17130000000E+03 0. -1.
       11    1    1    2    0    0  0.19545892718E-03 -0.10559705107E-02  0.21699834937E-02  0.24745361933E-02  0.51109989000E-03 0.  1.
     -623    1    1    2    0    0 -0.41067853941E-03  0.63306962360E-03  0.50467944243E-03  0.17130000000E+03  0.17130000000E+03 0. -1.
      622    1    1    2    0    0  0.21521961229E-03  0.42290088698E-03  0.39973253050E+01  0.39975254620E+01  0.40000000000E-01 0.  1.
</event>
<event>
 5   0  0.7212170E+07  0.9118800E+02  0.7818608E-02  0.1180000E+00
       11   -1    0    0    0    0  0.00000000000E+00  0.00000000000E+00  0.39999999673E+01  0.40000000000E+01  0.51109989000E-03 0. -1.
     -623   -1    0    0    0    0  0.00000000000E+00  0.00000000000E+00  0.12525980253E-10  0.17130000000E+03  0.17130000000E+03 0.  1.
       11    1    1    2    0    0 -0.30206472820E-03 -0.16756280998E-02  0.16762846813E+00  0.16763789406E+00  0.51109989000E-03 0. -1.
     -623    1    1    2    0    0  0.62634224744E-03  0.29333058267E-03  0.21841207250E-03  0.17130000000E+03  0.17130000000E+03 0.  1.
      622    1    1    2    0    0 -0.32427751946E-03  0.13822975171E-02  0.38321530885E+01  0.38323621058E+01  0.40000000000E-01 0. -1.
</event>
<event>
 5   0  0.7212170E+07  0.9118800E+02  0.7818608E-02  0.1180000E+00
       11   -1    0    0    0    0  0.00000000000E+00  0.00000000000E+00  0.39999999673E+01  0.40000000000E+01  0.51109989000E-03 0.  1.
     -623   -1    0    0    0    0  0.00000000000E+00  0.00000000000E+00  0.12525980253E-10  0.17130000000E+03  0.17130000000E+03 0.  1.
       11    1    1    2    0    0  0.12381155552E-01 -0.25633253529E-02  0.81262745208E+00  0.81272596904E+00  0.51109989000E-03 0.  1.
     -623    1    1    2    0    0  0.11106310451E-02 -0.10649163865E-02  0.38012287133E-03  0.17130000001E+03  0.17130000000E+03 0.  1.
      622    1    1    2    0    0 -0.13491786598E-01  0.36282417398E-02  0.31869923935E+01  0.31872740248E+01  0.40000000000E-01 0.  1.
</event>
<event>
 5   0  0.7212170E+07  0.9118800E+02  0.7818608E-02  0.1180000E+00
       11   -1    0    0    0    0  0.00000000000E+00  0.00000000000E+00  0.39999999673E+01  0.40000000000E+01  0.51109989000E-03 0. -1.
     -623   -1    0    0    0    0  0.00000000000E+00  0.00000000000E+00  0.12525980253E-10  0.17130000000E+03  0.17130000000E+03 0. -1.
       11    1    1    2    0    0  0.34321282846E-03 -0.22369744411E-02  0.10064536501E+00  0.10067210423E+00  0.51109989000E-03 0. -1.
     -623    1    1    2    0    0 -0.44851804046E-03 -0.79388629762E-05  0.23252396266E-03  0.17130000000E+03  0.17130000000E+03 0. -1.
      622    1    1    2    0    0  0.10530521198E-03  0.22449133041E-02  0.38991220782E+01  0.38993278948E+01  0.40000000000E-01 0. -1.
</event>
<event>
 5   0  0.7212170E+07  0.9118800E+02  0.7818608E-02  0.1180000E+00
       11   -1    0    0    0    0  0.00000000000E+00  0.00000000000E+00  0.39999999673E+01  0.40000000000E+01  0.51109989000E-03 0. -1.
     -623   -1    0    0    0    0  0.00000000000E+00  0.00000000000E+00  0.12525980253E-10  0.17130000000E+03  0.17130000000E+03 0. -1.
       11    1    1    2    0    0  0.21386163870E-01  0.10630555129E-01  0.31032439666E+01  0.31033359074E+01  0.51109989000E-03 0. -1.
     -623    1    1    2    0    0 -0.45917146814E-02 -0.88492191984E-02  0.11440640615E-02  0.17130000029E+03  0.17130000000E+03 0. -1.
      622    1    1    2    0    0 -0.16794449188E-01 -0.17813359295E-02  0.89561193709E+00  0.89666379905E+00  0.40000000000E-01 0.  1.
</event>
<event>
 5   0  0.7212170E+07  0.9118800E+02  0.7818608E-02  0.1180000E+00
       11   -1    0    0    0    0  0.00000000000E+00  0.00000000000E+00  0.39999999673E+01  0.40000000000E+01  0.51109989000E-03 0. -1.
     -623   -1    0    0    0    0  0.00000000000E+00  0.00000000000E+00  0.12525980253E-10  0.17130000000E+03  0.17130000000E+03 0. -1.
       11    1    1    2    0    0 -0.16685598084E-02 -0.18452602670E-03  0.35849391912E-02  0.39913849464E-02  0.51109989000E-03 0.  1.
     -623    1    1    2    0    0 -0.10195205033E-02 -0.15466583164E-02  0.60790818207E-03  0.17130000001E+03  0.17130000000E+03 0. -1.
      622    1    1    2    0    0  0.26880803117E-02  0.17311843431E-02  0.39958071198E+01  0.39960086038E+01  0.40000000000E-01 0. -1.
</event>
<event>
 5   0  0.7212170E+07  0.9118800E+02  0.7818608E-02  0.1180000E+00
       11   -1    0    0    0    0  0.00000000000E+00  0.00000000000E+00  0.39999999673E+01  0.40000000000E+01  0.51109989000E-03 0. -1.
     -623   -1    0    0    0    0  0.00000000000E+00  0.00000000000E+00  0.12525980253E-10  0.17130000000E+03  0.17130000000E+03 0. -1.
       11    1    1    2    0    0  0.13233901339E-01  0.74543155537E-02  0.27441997865E+01  0.27442418684E+01  0.51109989000E-03 0. -1.
     -623    1    1    2    0    0  0.13563958961E-01 -0.13668526121E-01  0.98186018250E-03  0.17130000109E+03  0.17130000000E+03 0. -1.
      622    1    1    2    0    0 -0.26797860299E-01  0.62142105665E-02  0.12548183204E+01  0.12557570462E+01  0.40000000000E-01 0.  0.
</event>
<event>
 5   0  0.7212170E+07  0.9118800E+02  0.7818608E-02  0.1180000E+00
       11   -1    0    0    0    0  0.00000000000E+00  0.00000000000E+00  0.39999999673E+01  0.40000000000E+01  0.51109989000E-03 0.  1.
     -623   -1    0    0    0    0  0.00000000000E+00  0.00000000000E+00  0.12525980253E-10  0.17130000000E+03  0.17130000000E+03 0.  1.
       11    1    1    2    0    0  0.35570285975E-03 -0.44607622071E-03  0.30150190970E-02  0.31107992176E-02  0.51109989000E-03 0.  1.
     -623    1    1    2    0    0 -0.12333834501E-02 -0.27488691860E-04  0.29603727829E-03  0.17130000000E+03  0.17130000000E+03 0.  1.
      622    1    1    2    0    0  0.87768059027E-03  0.47356491257E-03  0.39966889109E+01  0.39968891960E+01  0.40000000000E-01 0.  1.
</event>
<event>
 5   0  0.7212170E+07  0.9118800E+02  0.7818608E-02  0.1180000E+00
       11   -1    0    0    0    0  0.00000000000E+00  0.00000000000E+00  0.39999999673E+01  0.40000000000E+01  0.51109989000E-03 0. -1.
     -623   -1    0    0    0    0  0.00000000000E+00  0.00000000000E+00  0.12525980253E-10  0.17130000000E+03  0.17130000000E+03 0. -1.
       11    1    1    2    0    0  0.32908544444E-02  0.21141665551E-02  0.49324170590E-01  0.49481657719E-01  0.51109989000E-03 0. -1.
     -623    1    1    2    0    0 -0.22003741289E-02  0.18859357432E-02  0.36216542108E-03  0.17130000002E+03  0.17130000000E+03 0. -1.
      622    1    1    2    0    0 -0.10904803148E-02 -0.40001022988E-02  0.39503136325E+01  0.39505183185E+01  0.40000000000E-01 0. -1.
</event>
<event>
 5   0  0.7212170E+07  0.9118800E+02  0.7818608E-02  0.1180000E+00
       11   -1    0    0    0    0  0.00000000000E+00  0.00000000000E+00  0.39999999673E+01  0.40000000000E+01  0.51109989000E-03 0.  1.
     -623   -1    0    0    0    0  0.00000000000E+00  0.00000000000E+00  0.12525980253E-10  0.17130000000E+03  0.17130000000E+03 0.  1.
       11    1    1    2    0    0 -0.24804192070E-02 -0.12872869200E-01  0.19490538092E+00  0.19534644091E+00  0.51109989000E-03 0.  1.
     -623    1    1    2    0    0 -0.99605070344E-02  0.37447058325E-02  0.68292636069E-03  0.17130000033E+03  0.17130000000E+03 0.  1.
      622    1    1    2    0    0  0.12440926242E-01  0.91281633669E-02  0.38044116602E+01  0.38046532273E+01  0.40000000000E-01 0.  1.
</event>
<event>
 5   0  0.7212170E+07  0.9118800E+02  0.7818608E-02  0.1180000E+00
       11   -1    0    0    0    0  0.00000000000E+00  0.00000000000E+00  0.39999999673E+01  0.40000000000E+01  0.51109989000E-03 0.  1.
     -623   -1    0    0    0    0  0.00000000000E+00  0.00000000000E+00  0.12525980253E-10  0.17130000000E+03  0.17130000000E+03 0. -1.
       11    1    1    2    0    0  0.45203917500E-02 -0.27223484913E-02  0.76423900313E-01  0.76607564151E-01  0.51109989000E-03 0.  1.
     -623    1    1    2    0    0 -0.98568590550E-02  0.18182956981E-02  0.39156896507E-03  0.17130000029E+03  0.17130000000E+03 0. -1.
      622    1    1    2    0    0  0.53364673055E-02  0.90405279312E-03  0.39231844983E+01  0.39233921424E+01  0.40000000000E-01 0.  1.
</event>
<event>
 5   0  0.7212170E+07  0.9118800E+02  0.7818608E-02  0.1180000E+00
       11   -1    0    0    0    0  0.00000000000E+00  0.00000000000E+00  0.39999999673E+01  0.40000000000E+01  0.51109989000E-03 0.  1.
     -623   -1    0    0    0    0  0.00000000000E+00  0.00000000000E+00  0.12525980253E-10  0.17130000000E+03  0.17130000000E+03 0.  1.
       11    1    1    2    0    0  0.40843153970E-03 -0.75754618742E-02  0.11893167839E+00  0.11917449302E+00  0.51109989000E-03 0.  1.
     -623    1    1    2    0    0 -0.91198934051E-03 -0.12291270649E-02  0.45895750853E-03  0.17130000001E+03  0.17130000000E+03 0.  1.
      622    1    1    2    0    0  0.50355780084E-03  0.88045889391E-02  0.38806093316E+01  0.38808254997E+01  0.40000000000E-01 0.  1.
</event>
<event>
 5   0  0.7212170E+07  0.9118800E+02  0.7818608E-02  0.1180000E+00
       11   -1    0    0    0    0  0.00000000000E+00  0.00000000000E+00  0.39999999673E+01  0.40000000000E+01  0.51109989000E-03 0.  1.
     -623   -1    0    0    0    0  0.00000000000E+00  0.00000000000E+00  0.12525980253E-10  0.17130000000E+03  0.17130000000E+03 0. -1.
       11    1    1    2    0    0 -0.39406072762E-02  0.48511148663E-02  0.19988053413E-01  0.20948632497E-01  0.51109989000E-03 0.  1.
     -623    1    1    2    0    0 -0.15358896698E-02 -0.20587684370E-02  0.11663764623E-02  0.17130000002E+03  0.17130000000E+03 0. -1.
      622    1    1    2    0    0  0.54764969461E-02 -0.27923464291E-02  0.39788455377E+01  0.39790513445E+01  0.40000000000E-01 0.  1.
</event>
<event>
 5   0  0.7212170E+07  0.9118800E+02  0.7818608E-02  0.1180000E+00
       11   -1    0    0    0    0  0.00000000000E+00  0.00000000000E+00  0.39999999673E+01  0.40000000000E+01  0.51109989000E-03 0. -1.
     -623   -1    0    0    0    0  0.00000000000E+00  0.00000000000E+00  0.12525980253E-10  0.17130000000E+03  0.17130000000E+03 0. -1.
       11    1    1    2    0    0  0.35368908015E-02  0.32420847927E-02  0.33813517438E-01  0.34156052099E-01  0.51109989000E-03 0. -1.
     -623    1    1    2    0    0 -0.19512779179E-01  0.21317925152E-02  0.58117662175E-03  0.17130000113E+03  0.17130000000E+03 0. -1.
      622    1    1    2    0    0  0.15975888381E-01 -0.53738773083E-02  0.39656052740E+01  0.39658428230E+01  0.40000000000E-01 0. -1.
</event>
<event>
 5   0  0.7212170E+07  0.9118800E+02  0.7818608E-02  0.1180000E+00
       11   -1    0    0    0    0  0.00000000000E+00  0.00000000000E+00  0.39999999673E+01  0.40000000000E+01  0.51109989000E-03 0. -1.
     -623   -1    0    0    0    0  0.00000000000E+00  0.00000000000E+00  0.12525980253E-10  0.17130000000E+03  0.17130000000E+03 0. -1.
       11    1    1    2    0    0  0.79114472430E-03  0.47324930900E-01  0.26057703247E+01  0.26062002075E+01  0.51109989000E-03 0. -1.
     -623    1    1    2    0    0  0.15566139915E-02 -0.54816110202E-02  0.16345111215E-02  0.17130000010E+03  0.17130000000E+03 0. -1.
      622    1    1    2    0    0 -0.23477587158E-02 -0.41843319880E-01  0.13925951315E+01  0.13937996899E+01  0.40000000000E-01 0.  0.
</event>
<event>
 5   0  0.7212170E+07  0.9118800E+02  0.7818608E-02  0.1180000E+00
       11   -1    0    0    0    0  0.00000000000E+00  0.00000000000E+00  0.39999999673E+01  0.40000000000E+01  0.51109989000E-03 0. -1.
     -623   -1    0    0    0    0  0.00000000000E+00  0.00000000000E+00  0.12525980253E-10  0.17130000000E+03  0.17130000000E+03 0. -1.
       11    1    1    2    0    0 -0.32367807515E-02 -0.85007280072E-03  0.16993088170E+00  0.16996459970E+00  0.51109989000E-03 0. -1.
     -623    1    1    2    0    0  0.76697704907E-03  0.66160800244E-03  0.24337058823E-03  0.17130000000E+03  0.17130000000E+03 0. -1.
      622    1    1    2    0    0  0.24698037023E-02  0.18846479814E-03  0.38298257160E+01  0.38300353980E+01  0.40000000000E-01 0. -1.
</event>
<event>
 5   0  0.7212170E+07  0.9118800E+02  0.7818608E-02  0.1180000E+00
       11   -1    0    0    0    0  0.00000000000E+00  0.00000000000E+00  0.39999999673E+01  0.40000000000E+01  0.51109989000E-03 0.  1.
     -623   -1    0    0    0    0  0.00000000000E+00  0.00000000000E+00  0.12525980253E-10  0.17130000000E+03  0.17130000000E+03 0. -1.
       11    1    1    2    0    0 -0.28592765121E-03  0.13736518481E-02  0.64667291799E-02  0.66369031487E-02  0.51109989000E-03 0.  1.
     -623    1    1    2    0    0  0.96920862672E-03 -0.56115110593E-03  0.37062393272E-03  0.17130000000E+03  0.17130000000E+03 0. -1.
      622    1    1    2    0    0 -0.68328097554E-03 -0.81250074213E-03  0.39931626144E+01  0.39933630929E+01  0.40000000000E-01 0.  1.
</event>
<event>
 5   0  0.7212170E+07  0.9118800E+02  0.7818608E-02  0.1180000E+00
       11   -1    0    0    0    0  0.00000000000E+00  0.00000000000E+00  0.39999999673E+01  0.40000000000E+01  0.51109989000E-03 0.  1.
     -623   -1    0    0    0    0  0.00000000000E+00  0.00000000000E+00  0.12525980253E-10  0.17130000000E+03  0.17130000000E+03 0. -1.
       11    1    1    2    0    0  0.19370659973E-01  0.11976359685E-02  0.12637284665E+01  0.12638775870E+01  0.51109989000E-03 0.  1.
     -623    1    1    2    0    0 -0.72730023466E-02 -0.37243507086E-03  0.46851568149E-03  0.17130000016E+03  0.17130000000E+03 0. -1.
      622    1    1    2    0    0 -0.12097657624E-01 -0.82520089753E-03  0.27358029862E+01  0.27361222585E+01  0.40000000000E-01 0.  1.
</event>
<event>
 5   0  0.7212170E+07  0.9118800E+02  0.7818608E-02  0.1180000E+00
       11   -1    0    0    0    0  0.00000000000E+00  0.00000000000E+00  0.39999999673E+01  0.40000000000E+01  0.51109989000E-03 0.  1.
     -623   -1    0    0    0    0  0.00000000000E+00  0.00000000000E+00  0.12525980253E-10  0.17130000000E+03  0.17130000000E+03 0. -1.
       11    1    1    2    0    0  0.15133764365E-01 -0.56716259769E-02  0.29237444476E+00  0.29282123443E+00  0.51109989000E-03 0.  1.
     -623    1    1    2    0    0  0.34493845030E-03 -0.37228653134E-02  0.70682376019E-03  0.17130000004E+03  0.17130000000E+03 0. -1.
      622    1    1    2    0    0 -0.15478702816E-01  0.93944912909E-02  0.37069186995E+01  0.37071787240E+01  0.40000000000E-01 0.  1.
</event>
<event>
 5   0  0.7212170E+07  0.9118800E+02  0.7818608E-02  0.1180000E+00
       11   -1    0    0    0    0  0.00000000000E+00  0.00000000000E+00  0.39999999673E+01  0.40000000000E+01  0.51109989000E-03 0.  1.
     -623   -1    0    0    0    0  0.00000000000E+00  0.00000000000E+00  0.12525980253E-10  0.17130000000E+03  0.17130000000E+03 0. -1.
       11    1    1    2    0    0  0.63240458019E-02 -0.79454773524E-03  0.30511526649E-01  0.31174337891E-01  0.51109989000E-03 0.  1.
     -623    1    1    2    0    0 -0.14750967375E-01 -0.14315555021E-02  0.87456920216E-03  0.17130000064E+03  0.17130000000E+03 0. -1.
      622    1    1    2    0    0  0.84269215723E-02  0.22261032373E-02  0.39686138713E+01  0.39688250186E+01  0.40000000000E-01 0.  1.
</event>
<event>
 5   0  0.7212170E+07  0.9118800E+02  0.7818608E-02  0.1180000E+00
       11   -1    0    0    0    0  0.00000000000E+00  0.00000000000E+00  0.39999999673E+01  0.40000000000E+01  0.51109989000E-03 0.  1.
     -623   -1    0    0    0    0  0.00000000000E+00  0.00000000000E+00  0.12525980253E-10  0.17130000000E+03  0.17130000000E+03 0. -1.
       11    1    1    2    0    0  0.64950754395E-02  0.54442184474E-02  0.58846418959E-02  0.10330331689E-01  0.51109989000E-03 0.  1.
     -623    1    1    2    0    0 -0.11810497800E-02  0.40661483673E-02  0.46611707319E-02  0.17130000012E+03  0.17130000000E+03 0. -1.
      622    1    1    2    0    0 -0.53140256595E-02 -0.95103668147E-02  0.39894541548E+01  0.39896695526E+01  0.40000000000E-01 0.  1.
</event>
<event>
 5   0  0.7212170E+07  0.9118800E+02  0.7818608E-02  0.1180000E+00
       11   -1    0    0    0    0  0.00000000000E+00  0.00000000000E+00  0.39999999673E+01  0.40000000000E+01  0.51109989000E-03 0. -1.
     -623   -1    0    0    0    0  0.00000000000E+00  0.00000000000E+00  0.12525980253E-10  0.17130000000E+03  0.17130000000E+03 0. -1.
       11    1    1    2    0    0 -0.64139572651E-02  0.13973634227E-02  0.15185364877E+00  0.15199632673E+00  0.51109989000E-03 0. -1.
     -623    1    1    2    0    0  0.22114757646E-02 -0.25585194344E-02  0.35305482972E-03  0.17130000003E+03  0.17130000000E+03 0. -1.
      622    1    1    2    0    0  0.42024815005E-02  0.11611560117E-02  0.38477932639E+01  0.38480036396E+01  0.40000000000E-01 0. -1.
</event>
<event>
 5   0  0.7212170E+07  0.9118800E+02  0.7818608E-02  0.1180000E+00
       11   -1    0    0    0    0  0.00000000000E+00  0.00000000000E+00  0.39999999673E+01  0.40000000000E+01  0.51109989000E-03 0.  1.
     -623   -1    0    0    0    0  0.00000000000E+00  0.00000000000E+00  0.12525980253E-10  0.17130000000E+03  0.17130000000E+03 0.  1.
       11    1    1    2    0    0 -0.46068377602E-01  0.54154556410E-01  0.15863976081E+01  0.15879901270E+01  0.51109989000E-03 0.  1.
     -623    1    1    2    0    0  0.50484451627E-01 -0.53159252255E-01  0.19441321443E-02  0.17130001570E+03  0.17130000000E+03 0.  1.
      622    1    1    2    0    0 -0.44160740288E-02 -0.99530415179E-03  0.24116582274E+01  0.24119941745E+01  0.40000000000E-01 0.  1.
</event>
<event>
 5   0  0.7212170E+07  0.9118800E+02  0.7818608E-02  0.1180000E+00
       11   -1    0    0    0    0  0.00000000000E+00  0.00000000000E+00  0.39999999673E+01  0.40000000000E+01  0.51109989000E-03 0.  1.
     -623   -1    0    0    0    0  0.00000000000E+00  0.00000000000E+00  0.12525980253E-10  0.17130000000E+03  0.17130000000E+03 0.  1.
       11    1    1    2    0    0  0.15477185292E-02 -0.50870573688E-02  0.21401092109E+00  0.21407757742E+00  0.51109989000E-03 0.  1.
     -623    1    1    2    0    0 -0.39352077189E-02 -0.64426726279E-03  0.28307665145E-03  0.17130000005E+03  0.17130000000E+03 0.  1.
      622    1    1    2    0    0  0.23874891901E-02  0.57313246316E-02  0.37857059700E+01  0.37859223763E+01  0.40000000000E-01 0.  1.
</event>
<event>
 5   0  0.7212170E+07  0.9118800E+02  0.7818608E-02  0.1180000E+00
       11   -1    0    0    0    0  0.00000000000E+00  0.00000000000E+00  0.39999999673E+01  0.40000000000E+01  0.51109989000E-03 0. -1.
     -623   -1    0    0    0    0  0.00000000000E+00  0.00000000000E+00  0.12525980253E-10  0.17130000000E+03  0.17130000000E+03 0.  1.
       11    1    1    2    0    0  0.18825495553E-01  0.72089857836E-02  0.13346671589E+00  0.13498145885E+00  0.51109989000E-03 0. -1.
     -623    1    1    2    0    0 -0.13634321357E-01 -0.45876812070E-02  0.17266887209E-02  0.17130000061E+03  0.17130000000E+03 0.  1.
      622    1    1    2    0    0 -0.51911741960E-02 -0.26213045766E-02  0.38648065627E+01  0.38650179284E+01  0.40000000000E-01 0.  0.
</event>
<event>
 5   0  0.7212170E+07  0.9118800E+02  0.7818608E-02  0.1180000E+00
       11   -1    0    0    0    0  0.00000000000E+00  0.00000000000E+00  0.39999999673E+01  0.40000000000E+01  0.51109989000E-03 0.  1.
     -623   -1    0    0    0    0  0.00000000000E+00  0.00000000000E+00  0.12525980253E-10  0.17130000000E+03  0.17130000000E+03 0.  1.
       11    1    1    2    0    0 -0.29497131645E-02  0.66595919974E-02  0.16329828075E+01  0.16329991310E+01  0.51109989000E-03 0.  1.
     -623    1    1    2    0    0 -0.14968437000E-01 -0.66135975291E-02  0.42290885237E-03  0.17130000078E+03  0.17130000000E+03 0.  1.
      622    1    1    2    0    0  0.17918150161E-01 -0.45994469407E-04  0.23665942503E+01  0.23670000861E+01  0.40000000000E-01 0.  0.
</event>
<event>
 5   0  0.7212170E+07  0.9118800E+02  0.7818608E-02  0.1180000E+00
       11   -1    0    0    0    0  0.00000000000E+00  0.00000000000E+00  0.39999999673E+01  0.40000000000E+01  0.51109989000E-03 0.  1.
     -623   -1    0    0    0    0  0.00000000000E+00  0.00000000000E+00  0.12525980253E-10  0.17130000000E+03  0.17130000000E+03 0. -1.
       11    1    1    2    0    0  0.31591152287E-02 -0.16073409834E-01  0.43375656589E+00  0.43406607123E+00  0.51109989000E-03 0.  1.
     -623    1    1    2    0    0  0.18154308515E-02 -0.72529271910E-03  0.57687816897E-03  0.17130000001E+03  0.17130000000E+03 0. -1.
      622    1    1    2    0    0 -0.49745460805E-02  0.16798702554E-01  0.35656665240E+01  0.35659339174E+01  0.40000000000E-01 0.  1.
</event>
<event>
 5   0  0.7212170E+07  0.9118800E+02  0.7818608E-02  0.1180000E+00
       11   -1    0    0    0    0  0.00000000000E+00  0.00000000000E+00  0.39999999673E+01  0.40000000000E+01  0.51109989000E-03 0. -1.
     -623   -1    0    0    0    0  0.00000000000E+00  0.00000000000E+00  0.12525980253E-10  0.17130000000E+03  0.17130000000E+03 0. -1.
       11    1    1    2    0    0  0.86322080711E-03  0.14226201025E-02  0.75190855922E-01  0.75211003420E-01  0.51109989000E-03 0. -1.
     -623    1    1    2    0    0 -0.57877837403E-03  0.44050434188E-03  0.22440700634E-03  0.17130000000E+03  0.17130000000E+03 0. -1.
      622    1    1    2    0    0 -0.28444243299E-03 -0.18631244445E-02  0.39245847050E+01  0.39247889955E+01  0.40000000000E-01 0. -1.
</event>
<event>
 5   0  0.7212170E+07  0.9118800E+02  0.7818608E-02  0.1180000E+00
       11   -1    0    0    0    0  0.00000000000E+00  0.00000000000E+00  0.39999999673E+01  0.40000000000E+01  0.51109989000E-03 0. -1.
     -623   -1    0    0    0    0  0.00000000000E+00  0.00000000000E+00  0.12525980253E-10  0.17130000000E+03  0.17130000000E+03 0. -1.
       11    1    1    2    0    0  0.37771489387E-02 -0.42838953305E-02  0.28679076118E-01  0.29246696281E-01  0.51109989000E-03 0. -1.
     -623    1    1    2    0    0  0.11842722971E-02  0.25686338013E-02  0.77256111368E-03  0.17130000003E+03  0.17130000000E+03 0. -1.
      622    1    1    2    0    0 -0.49614212359E-02  0.17152615289E-02  0.39705483306E+01  0.39707532791E+01  0.40000000000E-01 0. -1.
</event>
<event>
 5   0  0.7212170E+07  0.9118800E+02  0.7818608E-02  0.1180000E+00
       11   -1    0    0    0    0  0.00000000000E+00  0.00000000000E+00  0.39999999673E+01  0.40000000000E+01  0.51109989000E-03 0. -1.
     -623   -1    0    0    0    0  0.00000000000E+00  0.00000000000E+00  0.12525980253E-10  0.17130000000E+03  0.17130000000E+03 0. -1.
       11    1    1    2    0    0 -0.21660554170E-01 -0.34857385313E-01  0.11027869844E+01  0.11035504569E+01  0.51109989000E-03 0. -1.
     -623    1    1    2    0    0 -0.61828275356E-03 -0.28462562799E-02  0.13708137673E-02  0.17130000003E+03  0.17130000000E+03 0. -1.
      622    1    1    2    0    0  0.22278836923E-01  0.37703641593E-01  0.28958421692E+01  0.28964495128E+01  0.40000000000E-01 0.  0.
</event>
<event>
 5   0  0.7212170E+07  0.9118800E+02  0.7818608E-02  0.1180000E+00
       11   -1    0    0    0    0  0.00000000000E+00  0.00000000000E+00  0.39999999673E+01  0.40000000000E+01  0.51109989000E-03 0. -1.
     -623   -1    0    0    0    0  0.00000000000E+00  0.00000000000E+00  0.12525980253E-10  0.17130000000E+03  0.17130000000E+03 0.  1.
       11    1    1    2    0    0  0.19643903670E-02  0.30269724034E-02  0.25441111413E-01  0.25700831980E-01  0.51109989000E-03 0. -1.
     -623    1    1    2    0    0 -0.15902138571E-01  0.25776998948E-01  0.59249268258E-03  0.17130000268E+03  0.17130000000E+03 0.  1.
      622    1    1    2    0    0  0.13937748206E-01 -0.28803971356E-01  0.39739663640E+01  0.39742964901E+01  0.40000000000E-01 0. -1.
</event>
<event>
 5   0  0.7212170E+07  0.9118800E+02  0.7818608E-02  0.1180000E+00
       11   -1    0    0    0    0  0.00000000000E+00  0.00000000000E+00  0.39999999673E+01  0.40000000000E+01  0.51109989000E-03 0. -1.
     -623   -1    0    0    0    0  0.00000000000E+00  0.00000000000E+00  0.12525980253E-10  0.17130000000E+03  0.17130000000E+03 0. -1.
       11    1    1    2    0    0  0.72744030894E-02  0.65984953321E-02  0.92840706661E+00  0.92845915346E+00  0.51109989000E-03 0. -1.
     -623    1    1    2    0    0 -0.15944623640E-02 -0.28276259454E-02  0.32011898345E-03  0.17130000003E+03  0.17130000000E+03 0. -1.
      622    1    1    2    0    0 -0.56799407257E-02 -0.37708693875E-02  0.30712727808E+01  0.30715408145E+01  0.40000000000E-01 0. -1.
</event>
<event>
 5   0  0.7212170E+07  0.9118800E+02  0.7818608E-02  0.1180000E+00
       11   -1    0    0    0    0  0.00000000000E+00  0.00000000000E+00  0.39999999673E+01  0.40000000000E+01  0.51109989000E-03 0. -1.
     -623   -1    0    0    0    0  0.00000000000E+00  0.00000000000E+00  0.12525980253E-10  0.17130000000E+03  0.17130000000E+03 0. -1.
       11    1    1    2    0    0 -0.26939638430E-02 -0.46081708822E-02  0.16188391025E-01  0.17053384038E-01  0.51109989000E-03 0. -1.
     -623    1    1    2    0    0  0.24646641933E-02  0.11886821702E-02  0.10673214848E-02  0.17130000003E+03  0.17130000000E+03 0. -1.
      622    1    1    2    0    0  0.22929964955E-03  0.34194887119E-02  0.39827442551E+01  0.39829465911E+01  0.40000000000E-01 0. -1.
</event>
<event>
 5   0  0.7212170E+07  0.9118800E+02  0.7818608E-02  0.1180000E+00
       11   -1    0    0    0    0  0.00000000000E+00  0.00000000000E+00  0.39999999673E+01  0.40000000000E+01  0.51109989000E-03 0.  1.
     -623   -1    0    0    0    0  0.00000000000E+00  0.00000000000E+00  0.12525980253E-10  0.17130000000E+03  0.17130000000E+03 0. -1.
       11    1    1    2    0    0 -0.45451832972E-02  0.16838036030E-02  0.17756369510E+00  0.17763057430E+00  0.51109989000E-03 0.  1.
     -623    1    1    2    0    0  0.85415922926E-02  0.57994205660E-02  0.28587277464E-03  0.17130000031E+03  0.17130000000E+03 0. -1.
      622    1    1    2    0    0 -0.39964089992E-02 -0.74832241715E-02  0.38221504012E+01  0.38223691161E+01  0.40000000000E-01 0.  1.
</event>
<event>
 5   0  0.7212170E+07  0.9118800E+02  0.7818608E-02  0.1180000E+00
       11   -1    0    0    0    0  0.00000000000E+00  0.00000000000E+00  0.39999999673E+01  0.40000000000E+01  0.51109989000E-03 0.  1.
     -623   -1    0    0    0    0  0.00000000000E+00  0.00000000000E+00  0.12525980253E-10  0.17130000000E+03  0.17130000000E+03 0.  1.
       11    1    1    2    0    0 -0.86247242010E-03  0.20090774681E-03  0.15192469174E-01  0.15226837009E-01  0.51109989000E-03 0.  1.
     -623    1    1    2    0    0  0.54790108664E-03 -0.44910705326E-03  0.23512627775E-03  0.17130000000E+03  0.17130000000E+03 0.  1.
      622    1    1    2    0    0  0.31457133355E-03  0.24819930637E-03  0.39845723712E+01  0.39847731607E+01  0.40000000000E-01 0.  1.
</event>
<event>
 5   0  0.7212170E+07  0.9118800E+02  0.7818608E-02  0.1180000E+00
       11   -1    0    0    0    0  0.00000000000E+00  0.00000000000E+00  0.39999999673E+01  0.40000000000E+01  0.51109989000E-03 0. -1.
     -623   -1    0    0    0    0  0.00000000000E+00  0.00000000000E+00  0.12525980253E-10  0.17130000000E+03  0.17130000000E+03 0.  1.
       11    1    1    2    0    0  0.41579439918E-02  0.14026338969E-02  0.26850656199E-01  0.27211667378E-01  0.51109989000E-03 0. -1.
     -623    1    1    2    0    0  0.18140236940E-02 -0.28259295776E-02  0.56713118490E-03  0.17130000003E+03  0.17130000000E+03 0.  1.
      622    1    1    2    0    0 -0.59719676861E-02  0.14232956811E-02  0.39725821805E+01  0.39727882993E+01  0.40000000000E-01 0. -1.
</event>
<event>
 5   0  0.7212170E+07  0.9118800E+02  0.7818608E-02  0.1180000E+00
       11   -1    0    0    0    0  0.00000000000E+00  0.00000000000E+00  0.39999999673E+01  0.40000000000E+01  0.51109989000E-03 0.  1.
     -623   -1    0    0    0    0  0.00000000000E+00  0.00000000000E+00  0.12525980253E-10  0.17130000000E+03  0.17130000000E+03 0.  1.
       11    1    1    2    0    0 -0.26593147520E-02 -0.14367708550E-02  0.19298516355E-01  0.19540476505E-01  0.51109989000E-03 0.  1.
     -623    1    1    2    0    0  0.56105653202E-02  0.15289754177E-02  0.44410889261E-03  0.17130000010E+03  0.17130000000E+03 0.  1.
      622    1    1    2    0    0 -0.29512505689E-02 -0.92204562978E-04  0.39802573426E+01  0.39804594247E+01  0.40000000000E-01 0.  1.
</event>
<event>
 5   0  0.7212170E+07  0.9118800E+02  0.7818608E-02  0.1180000E+00
       11   -1    0    0    0    0  0.00000000000E+00  0.00000000000E+00  0.39999999673E+01  0.40000000000E+01  0.51109989000E-03 0.  1.
     -623   -1    0    0    0    0  0.00000000000E+00  0.00000000000E+00  0.12525980253E-10  0.17130000000E+03  0.17130000000E+03 0.  1.
       11    1    1    2    0    0 -0.96573341193E-02  0.20284640715E-01  0.26934743427E+01  0.26935680846E+01  0.51109989000E-03 0.  1.
     -623    1    1    2    0    0  0.76118904311E-02 -0.17889138250E-01  0.71111229298E-03  0.17130000110E+03  0.17130000000E+03 0.  1.
      622    1    1    2    0    0  0.20454436876E-02 -0.23955024631E-02  0.13058145127E+01  0.13064308110E+01  0.40000000000E-01 0.  0.
</event>
<event>
 5   0  0.7212170E+07  0.9118800E+02  0.7818608E-02  0.1180000E+00
       11   -1    0    0    0    0  0.00000000000E+00  0.00000000000E+00  0.39999999673E+01  0.40000000000E+01  0.51109989000E-03 0. -1.
     -623   -1    0    0    0    0  0.00000000000E+00  0.00000000000E+00  0.12525980253E-10  0.17130000000E+03  0.17130000000E+03 0.  1.
       11    1    1    2    0    0  0.14227913774E-03 -0.24596542194E-03  0.35740203657E-03  0.68534783514E-03  0.51109989000E-03 0. -1.
     -623    1    1    2    0    0 -0.12739225894E-02  0.18969775462E-02  0.52846940915E-03  0.17130000002E+03  0.17130000000E+03 0.  1.
      622    1    1    2    0    0  0.11316434517E-02 -0.16510121243E-02  0.39991140962E+01  0.39993146363E+01  0.40000000000E-01 0. -1.
</event>
<event>
 5   0  0.7212170E+07  0.9118800E+02  0.7818608E-02  0.1180000E+00
       11   -1    0    0    0    0  0.00000000000E+00  0.00000000000E+00  0.39999999673E+01  0.40000000000E+01  0.51109989000E-03 0. -1.
     -623   -1    0    0    0    0  0.00000000000E+00  0.00000000000E+00  0.12525980253E-10  0.17130000000E+03  0.17130000000E+03 0. -1.
       11    1    1    2    0    0  0.65059769945E-02 -0.13899128123E-01  0.17440043993E+01  0.17440719938E+01  0.51109989000E-03 0. -1.
     -623    1    1    2    0    0 -0.74304814500E-03  0.47203911271E-02  0.44831621437E-03  0.17130000007E+03  0.17130000000E+03 0. -1.
      622    1    1    2    0    0 -0.57629288496E-02  0.91787369971E-02  0.22555472510E+01  0.22559279381E+01  0.40000000000E-01 0. -1.
</event>
<event>
 5   0  0.7212170E+07  0.9118800E+02  0.7818608E-02  0.1180000E+00
       11   -1    0    0    0    0  0.00000000000E+00  0.00000000000E+00  0.39999999673E+01  0.40000000000E+01  0.51109989000E-03 0. -1.
     -623   -1    0    0    0    0  0.00000000000E+00  0.00000000000E+00  0.12525980253E-10  0.17130000000E+03  0.17130000000E+03 0.  1.
       11    1    1    2    0    0  0.23239951388E-02 -0.62724788021E-03  0.59560734305E-02  0.64444105328E-02  0.51109989000E-03 0. -1.
     -623    1    1    2    0    0 -0.10069994050E-03  0.24861366989E-02  0.68970324783E-03  0.17130000002E+03  0.17130000000E+03 0.  1.
      622    1    1    2    0    0 -0.22232951983E-02 -0.18588888191E-02  0.39933541913E+01  0.39935555706E+01  0.40000000000E-01 0. -1.
</event>
<event>
 5   0  0.7212170E+07  0.9118800E+02  0.7818608E-02  0.1180000E+00
       11   -1    0    0    0    0  0.00000000000E+00  0.00000000000E+00  0.39999999673E+01  0.40000000000E+01  0.51109989000E-03 0.  1.
     -623   -1    0    0    0    0  0.00000000000E+00  0.00000000000E+00  0.12525980253E-10  0.17130000000E+03  0.17130000000E+03 0. -1.
       11    1    1    2    0    0 -0.70504604015E-03 -0.26336223026E-03  0.13730627442E-02  0.16471107978E-02  0.51109989000E-03 0. -1.
     -623    1    1    2    0    0 -0.35544131899E-03 -0.30082298501E-03  0.47428454946E-03  0.17130000000E+03  0.17130000000E+03 0. -1.
      622    1    1    2    0    0  0.10604873592E-02  0.56418521530E-03  0.39981526205E+01  0.39983528884E+01  0.40000000000E-01 0.  1.
</event>
<event>
 5   0  0.7212170E+07  0.9118800E+02  0.7818608E-02  0.1180000E+00
       11   -1    0    0    0    0  0.00000000000E+00  0.00000000000E+00  0.39999999673E+01  0.40000000000E+01  0.51109989000E-03 0. -1.
     -623   -1    0    0    0    0  0.00000000000E+00  0.00000000000E+00  0.12525980253E-10  0.17130000000E+03  0.17130000000E+03 0.  1.
       11    1    1    2    0    0  0.12648233434E-01 -0.34674126705E-02  0.28850709430E+00  0.28880548028E+00  0.51109989000E-03 0. -1.
     -623    1    1    2    0    0 -0.27151999924E-01 -0.99223309428E-02  0.56886323805E-03  0.17130000244E+03  0.17130000000E+03 0.  1.
      622    1    1    2    0    0  0.14503766495E-01  0.13389743615E-01  0.37109240106E+01  0.37111920803E+01  0.40000000000E-01 0. -1.
</event>
<event>
 5   0  0.7212170E+07  0.9118800E+02  0.7818608E-02  0.1180000E+00
       11   -1    0    0    0    0  0.00000000000E+00  0.00000000000E+00  0.39999999673E+01  0.40000000000E+01  0.51109989000E-03 0.  1.
     -623   -1    0    0    0    0  0.00000000000E+00  0.00000000000E+00  0.12525980253E-10  0.17130000000E+03  0.17130000000E+03 0. -1.
       11    1    1    2    0    0  0.13030742473E-01 -0.35695076101E-01  0.14374559941E+01  0.14379582521E+01  0.51109989000E-03 0.  1.
     -623    1    1    2    0    0  0.14377674121E-01  0.88485544404E-02  0.11026446813E-02  0.17130000084E+03  0.17130000000E+03 0. -1.
      622    1    1    2    0    0 -0.27408416595E-01  0.26846521659E-01  0.25614413292E+01  0.25620409130E+01  0.40000000000E-01 0.  1.
</event>
<event>
 5   0  0.7212170E+07  0.9118800E+02  0.7818608E-02  0.1180000E+00
       11   -1    0    0    0    0  0.00000000000E+00  0.00000000000E+00  0.39999999673E+01  0.40000000000E+01  0.51109989000E-03 0.  1.
     -623   -1    0    0    0    0  0.00000000000E+00  0.00000000000E+00  0.12525980253E-10  0.17130000000E+03  0.17130000000E+03 0. -1.
       11    1    1    2    0    0 -0.33260816381E-02  0.24669880979E-02  0.35644727164E-01  0.35888112893E-01  0.51109989000E-03 0.  1.
     -623    1    1    2    0    0  0.13970124104E-02 -0.30900154764E-02  0.44572138604E-03  0.17130000003E+03  0.17130000000E+03 0. -1.
      622    1    1    2    0    0  0.19290692278E-02  0.62302737839E-03  0.39639095187E+01  0.39641118528E+01  0.40000000000E-01 0.  1.
</event>
<event>
 5   0  0.7212170E+07  0.9118800E+02  0.7818608E-02  0.1180000E+00
       11   -1    0    0    0    0  0.00000000000E+00  0.00000000000E+00  0.39999999673E+01  0.40000000000E+01  0.51109989000E-03 0.  1.
     -623   -1    0    0    0    0  0.00000000000E+00  0.00000000000E+00  0.12525980253E-10  0.17130000000E+03  0.17130000000E+03 0.  1.
       11    1    1    2    0    0  0.45442881866E-02 -0.20198537898E-01  0.78550220610E+00  0.78577516409E+00  0.51109989000E-03 0.  1.
     -623    1    1    2    0    0 -0.27961189533E-03 -0.14362522808E-02  0.59748320154E-03  0.17130000001E+03  0.17130000000E+03 0.  1.
      622    1    1    2    0    0 -0.42646762913E-02  0.21634790179E-01  0.32139002776E+01  0.32142248282E+01  0.40000000000E-01 0.  0.
</event>
<event>
 5   0  0.7212170E+07  0.9118800E+02  0.7818608E-02  0.1180000E+00
       11   -1    0    0    0    0  0.00000000000E+00  0.00000000000E+00  0.39999999673E+01  0.40000000000E+01  0.51109989000E-03 0.  1.
     -623   -1    0    0    0    0  0.00000000000E+00  0.00000000000E+00  0.12525980253E-10  0.17130000000E+03  0.17130000000E+03 0. -1.
       11    1    1    2    0    0 -0.18382520889E-02  0.39199516188E-03  0.42853852264E-02  0.47072901531E-02  0.51109989000E-03 0.  1.
     -623    1    1    2    0    0  0.34979346450E-02  0.45990550808E-02  0.62567393593E-03  0.17130000010E+03  0.17130000000E+03 0. -1.
      622    1    1    2    0    0 -0.16596825563E-02 -0.49910502430E-02  0.39950889084E+01  0.39952926115E+01  0.40000000000E-01 0.  1.
</event>
<event>
 5   0  0.7212170E+07  0.9118800E+02  0.7818608E-02  0.1180000E+00
       11   -1    0    0    0    0  0.00000000000E+00  0.00000000000E+00  0.39999999673E+01  0.40000000000E+01  0.51109989000E-03 0. -1.
     -623   -1    0    0    0    0  0.00000000000E+00  0.00000000000E+00  0.12525980253E-10  0.17130000000E+03  0.17130000000E+03 0. -1.
       11    1    1    2    0    0 -0.36440704929E-02 -0.16785789917E-02  0.12595215915E-01  0.13228664492E-01  0.51109989000E-03 0. -1.
     -623    1    1    2    0    0 -0.78196689794E-03  0.29250095974E-02  0.83676524584E-03  0.17130000003E+03  0.17130000000E+03 0. -1.
      622    1    1    2    0    0  0.44260373908E-02 -0.12464306058E-02  0.39865679863E+01  0.39867713068E+01  0.40000000000E-01 0. -1.
</event>
<event>
 5   0  0.7212170E+07  0.9118800E+02  0.7818608E-02  0.1180000E+00
       11   -1    0    0    0    0  0.00000000000E+00  0.00000000000E+00  0.39999999673E+01  0.40000000000E+01  0.51109989000E-03 0. -1.
     -623   -1    0    0    0    0  0.00000000000E+00  0.00000000000E+00  0.12525980253E-10  0.17130000000E+03  0.17130000000E+03 0.  1.
       11    1    1    2    0    0  0.17665695069E-03 -0.13227033562E-02  0.43306764754E-02  0.45603435921E-02  0.51109989000E-03 0. -1.
     -623    1    1    2    0    0 -0.37602460972E-03 -0.20340679017E-03  0.43016529294E-03  0.17130000000E+03  0.17130000000E+03 0.  1.
      622    1    1    2    0    0  0.19936765903E-03  0.15261101464E-02  0.39952391255E+01  0.39954396553E+01  0.40000000000E-01 0. -1.
</event>
<event>
 5   0  0.7212170E+07  0.9118800E+02  0.7818608E-02  0.1180000E+00
       11   -1    0    0    0    0  0.00000000000E+00  0.00000000000E+00  0.39999999673E+01  0.40000000000E+01  0.51109989000E-03 0. -1.
     -623   -1    0    0    0    0  0.00000000000E+00  0.00000000000E+00  0.12525980253E-10  0.17130000000E+03  0.17130000000E+03 0.  1.
       11    1    1    2    0    0  0.43443905708E-01  0.11049851590E-01  0.13425914700E+01  0.13433397146E+01  0.51109989000E-03 0. -1.
     -623    1    1    2    0    0 -0.11482674403E-02  0.52573673368E-03  0.14113397246E-02  0.17130000001E+03  0.17130000000E+03 0.  1.
      622    1    1    2    0    0 -0.42295638268E-01 -0.11575588324E-01  0.26559971574E+01  0.26566602748E+01  0.40000000000E-01 0. -1.
</event>
<event>
 5   0  0.7212170E+07  0.9118800E+02  0.7818608E-02  0.1180000E+00
       11   -1    0    0    0    0  0.00000000000E+00  0.00000000000E+00  0.39999999673E+01  0.40000000000E+01  0.51109989000E-03 0. -1.
     -623   -1    0    0    0    0  0.00000000000E+00  0.00000000000E+00  0.12525980253E-10  0.17130000000E+03  0.17130000000E+03 0. -1.
       11    1    1    2    0    0 -0.60314448627E-03  0.10779133096E-02  0.33736622542E-01  0.33763095297E-01  0.51109989000E-03 0. -1.
     -623    1    1    2    0    0 -0.29598448012E-03  0.76260903214E-03  0.22867886105E-03  0.17130000000E+03  0.17130000000E+03 0. -1.
      622    1    1    2    0    0  0.89912896648E-03 -0.18405223420E-02  0.39660346671E+01  0.39662369038E+01  0.40000000000E-01 0. -1.
</event>
<event>
 5   0  0.7212170E+07  0.9118800E+02  0.7818608E-02  0.1180000E+00
       11   -1    0    0    0    0  0.00000000000E+00  0.00000000000E+00  0.39999999673E+01  0.40000000000E+01  0.51109989000E-03 0. -1.
     -623   -1    0    0    0    0  0.00000000000E+00  0.00000000000E+00  0.12525980253E-10  0.17130000000E+03  0.17130000000E+03 0. -1.
       11    1    1    2    0    0  0.17027716307E-01 -0.10340078095E-01  0.13428674443E+00  0.13575732500E+00  0.51109989000E-03 0. -1.
     -623    1    1    2    0    0 -0.23113885610E-01 -0.14713605801E-01  0.17657961444E-02  0.17130000220E+03  0.17130000000E+03 0. -1.
      622    1    1    2    0    0  0.60861693048E-02  0.25053683896E-01  0.38639474270E+01  0.38642404748E+01  0.40000000000E-01 0. -1.
</event>
<event>
 5   0  0.7212170E+07  0.9118800E+02  0.7818608E-02  0.1180000E+00
       11   -1    0    0    0    0  0.00000000000E+00  0.00000000000E+00  0.39999999673E+01  0.40000000000E+01  0.51109989000E-03 0. -1.
     -623   -1    0    0    0    0  0.00000000000E+00  0.00000000000E+00  0.12525980253E-10  0.17130000000E+03  0.17130000000E+03 0.  1.
       11    1    1    2    0    0  0.18104518953E-02  0.62191120178E-02  0.13146713557E-02  0.66290779318E-02  0.51109989000E-03 0. -1.
     -623    1    1    2    0    0  0.91977753091E-02 -0.55034056128E-02  0.55303733067E-02  0.17130000042E+03  0.17130000000E+03 0.  1.
      622    1    1    2    0    0 -0.11008227204E-01 -0.71570640503E-03  0.39931549227E+01  0.39933704975E+01  0.40000000000E-01 0. -1.
</event>
<event>
 5   0  0.7212170E+07  0.9118800E+02  0.7818608E-02  0.1180000E+00
       11   -1    0    0    0    0  0.00000000000E+00  0.00000000000E+00  0.39999999673E+01  0.40000000000E+01  0.51109989000E-03 0. -1.
     -623   -1    0    0    0    0  0.00000000000E+00  0.00000000000E+00  0.12525980253E-10  0.17130000000E+03  0.17130000000E+03 0. -1.
       11    1    1    2    0    0 -0.10150501545E-01 -0.22720778246E-02  0.17323841434E+01  0.17324154457E+01  0.51109989000E-03 0. -1.
     -623    1    1    2    0    0  0.24770317837E-02 -0.13261733329E-02  0.39995980598E-03  0.17130000002E+03  0.17130000000E+03 0. -1.
      622    1    1    2    0    0  0.76734697609E-02  0.35982511579E-02  0.22672158652E+01  0.22675845318E+01  0.40000000000E-01 0. -1.
</event>
<event>
 5   0  0.7212170E+07  0.9118800E+02  0.7818608E-02  0.1180000E+00
       11   -1    0    0    0    0  0.00000000000E+00  0.00000000000E+00  0.39999999673E+01  0.40000000000E+01  0.51109989000E-03 0.  1.
     -623   -1    0    0    0    0  0.00000000000E+00  0.00000000000E+00  0.12525980253E-10  0.17130000000E+03  0.17130000000E+03 0. -1.
       11    1    1    2    0    0 -0.17658205894E-02  0.15596783829E-01  0.36619725091E+00  0.36653385326E+00  0.51109989000E-03 0.  1.
     -623    1    1    2    0    0  0.46052593782E-02 -0.73953595464E-03  0.58830349737E-03  0.17130000006E+03  0.17130000000E+03 0. -1.
      622    1    1    2    0    0 -0.28394387891E-02 -0.14857247874E-01  0.36332144132E+01  0.36334660825E+01  0.40000000000E-01 0.  1.
</event>
<event>
 5   0  0.7212170E+07  0.9118800E+02  0.7818608E-02  0.1180000E+00
       11   -1    0    0    0    0  0.00000000000E+00  0.00000000000E+00  0.39999999673E+01  0.40000000000E+01  0.51109989000E-03 0. -1.
     -623   -1    0    0    0    0  0.00000000000E+00  0.00000000000E+00  0.12525980253E-10  0.17130000000E+03  0.17130000000E+03 0.  1.
       11    1    1    2    0    0 -0.26095256684E-02 -0.56383398292E-02  0.21901240018E+00  0.21910110259E+00  0.51109989000E-03 0. -1.
     -623    1    1    2    0    0  0.11247041492E-02 -0.73089728369E-04  0.30487522760E-03  0.17130000000E+03  0.17130000000E+03 0.  1.
      622    1    1    2    0    0  0.14848215193E-02  0.57114295576E-02  0.37806826917E+01  0.37808988932E+01  0.40000000000E-01 0. -1.
</event>
<event>
 5   0  0.7212170E+07  0.9118800E+02  0.7818608E-02  0.1180000E+00
       11   -1    0    0    0    0  0.00000000000E+00  0.00000000000E+00  0.39999999673E+01  0.40000000000E+01  0.51109989000E-03 0.  1.
     -623   -1    0    0    0    0  0.00000000000E+00  0.00000000000E+00  0.12525980253E-10  0.17130000000E+03  0.17130000000E+03 0.  1.
       11    1    1    2    0    0  0.32254662826E-01  0.13464566411E-01  0.53952862814E+00  0.54065983726E+00  0.51109989000E-03 0.  1.
     -623    1    1    2    0    0  0.80283914507E-02 -0.46386391552E-02  0.16085273042E-02  0.17130000026E+03  0.17130000000E+03 0.  1.
      622    1    1    2    0    0 -0.40283054277E-01 -0.88259272554E-02  0.34588628121E+01  0.34593399044E+01  0.40000000000E-01 0.  1.
</event>
<event>
 5   0  0.7212170E+07  0.9118800E+02  0.7818608E-02  0.1180000E+00
       11   -1    0    0    0    0  0.00000000000E+00  0.00000000000E+00  0.39999999673E+01  0.40000000000E+01  0.51109989000E-03 0. -1.
     -623   -1    0    0    0    0  0.00000000000E+00  0.00000000000E+00  0.12525980253E-10  0.17130000000E+03  0.17130000000E+03 0. -1.
       11    1    1    2    0    0 -0.15671113678E-01 -0.12667497841E-01  0.41895714956E+00  0.41944177629E+00  0.51109989000E-03 0. -1.
     -623    1    1    2    0    0 -0.17773968935E-02  0.30066561082E-02  0.76361865531E-03  0.17130000004E+03  0.17130000000E+03 0. -1.
      622    1    1    2    0    0  0.17448510572E-01  0.96608417325E-02  0.35802791995E+01  0.35805581868E+01  0.40000000000E-01 0. -1.
</event>
<event>
 5   0  0.7212170E+07  0.9118800E+02  0.7818608E-02  0.1180000E+00
       11   -1    0    0    0    0  0.00000000000E+00  0.00000000000E+00  0.39999999673E+01  0.40000000000E+01  0.51109989000E-03 0. -1.
     -623   -1    0    0    0    0  0.00000000000E+00  0.00000000000E+00  0.12525980253E-10  0.17130000000E+03  0.17130000000E+03 0. -1.
       11    1    1    2    0    0  0.35740732445E-03 -0.60163043696E-02  0.21439412537E+00  0.21447942996E+00  0.51109989000E-03 0. -1.
     -623    1    1    2    0    0  0.88137584842E-02 -0.71799453618E-02  0.33109943842E-03  0.17130000038E+03  0.17130000000E+03 0. -1.
      622    1    1    2    0    0 -0.91711658105E-02  0.13196249733E-01  0.37852747434E+01  0.37855201933E+01  0.40000000000E-01 0. -1.
</event>
<event>
 5   0  0.7212170E+07  0.9118800E+02  0.7818608E-02  0.1180000E+00
       11   -1    0    0    0    0  0.00000000000E+00  0.00000000000E+00  0.39999999673E+01  0.40000000000E+01  0.51109989000E-03 0. -1.
     -623   -1    0    0    0    0  0.00000000000E+00  0.00000000000E+00  0.12525980253E-10  0.17130000000E+03  0.17130000000E+03 0. -1.
       11    1    1    2    0    0 -0.40579575328E-02 -0.13546060814E-01  0.44598029719E+00  0.44620471702E+00  0.51109989000E-03 0. -1.
     -623    1    1    2    0    0 -0.13284026115E-02  0.86187231217E-02  0.45722667565E-03  0.17130000022E+03  0.17130000000E+03 0. -1.
      622    1    1    2    0    0  0.53863601442E-02  0.49273376922E-02  0.35535624435E+01  0.35537950604E+01  0.40000000000E-01 0. -1.
</event>
<event>
 5   0  0.7212170E+07  0.9118800E+02  0.7818608E-02  0.1180000E+00
       11   -1    0    0    0    0  0.00000000000E+00  0.00000000000E+00  0.39999999673E+01  0.40000000000E+01  0.51109989000E-03 0.  1.
     -623   -1    0    0    0    0  0.00000000000E+00  0.00000000000E+00  0.12525980253E-10  0.17130000000E+03  0.17130000000E+03 0. -1.
       11    1    1    2    0    0 -0.84846444127E-02 -0.18061512503E-02  0.76358268479E-01  0.76851140273E-01  0.51109989000E-03 0.  1.
     -623    1    1    2    0    0  0.74067782607E-03  0.26769819691E-02  0.70452628252E-03  0.17130000002E+03  0.17130000000E+03 0. -1.
      622    1    1    2    0    0  0.77439665865E-02 -0.87083071911E-03  0.39229371731E+01  0.39231488362E+01  0.40000000000E-01 0.  1.
</event>
<event>
 5   0  0.7212170E+07  0.9118800E+02  0.7818608E-02  0.1180000E+00
       11   -1    0    0    0    0  0.00000000000E+00  0.00000000000E+00  0.39999999673E+01  0.40000000000E+01  0.51109989000E-03 0.  1.
     -623   -1    0    0    0    0  0.00000000000E+00  0.00000000000E+00  0.12525980253E-10  0.17130000000E+03  0.17130000000E+03 0.  1.
       11    1    1    2    0    0  0.14189212481E-02 -0.69939740228E-02  0.11187220523E+01  0.11187449309E+01  0.51109989000E-03 0.  1.
     -623    1    1    2    0    0 -0.17922101318E-03  0.50771458574E-03  0.30808564286E-03  0.17130000000E+03  0.17130000000E+03 0.  1.
      622    1    1    2    0    0 -0.12397002350E-02  0.64862594372E-02  0.28809698288E+01  0.28812550673E+01  0.40000000000E-01 0.  0.
</event>
<event>
 5   0  0.7212170E+07  0.9118800E+02  0.7818608E-02  0.1180000E+00
       11   -1    0    0    0    0  0.00000000000E+00  0.00000000000E+00  0.39999999673E+01  0.40000000000E+01  0.51109989000E-03 0.  1.
     -623   -1    0    0    0    0  0.00000000000E+00  0.00000000000E+00  0.12525980253E-10  0.17130000000E+03  0.17130000000E+03 0. -1.
       11    1    1    2    0    0  0.65649456051E-02  0.12171990528E-01  0.10436926343E+01  0.10437843800E+01  0.51109989000E-03 0.  1.
     -623    1    1    2    0    0  0.67234333037E-03 -0.51231220170E-03  0.39419997640E-03  0.17130000000E+03  0.17130000000E+03 0. -1.
      622    1    1    2    0    0 -0.72372889354E-02 -0.11659678327E-01  0.29559131330E+01  0.29562156174E+01  0.40000000000E-01 0.  1.
</event>
<event>
 5   0  0.7212170E+07  0.9118800E+02  0.7818608E-02  0.1180000E+00
       11   -1    0    0    0    0  0.00000000000E+00  0.00000000000E+00  0.39999999673E+01  0.40000000000E+01  0.51109989000E-03 0. -1.
     -623   -1    0    0    0    0  0.00000000000E+00  0.00000000000E+00  0.12525980253E-10  0.17130000000E+03  0.17130000000E+03 0. -1.
       11    1    1    2    0    0 -0.11822975336E-01 -0.48921812115E-02  0.24855467334E+00  0.24888431659E+00  0.51109989000E-03 0. -1.
     -623    1    1    2    0    0  0.46530309329E-02 -0.77327498451E-02  0.57122486165E-03  0.17130000024E+03  0.17130000000E+03 0. -1.
      622    1    1    2    0    0  0.71699444020E-02  0.12624931059E-01  0.37508740702E+01  0.37511154458E+01  0.40000000000E-01 0. -1.
</event>
<event>
 5   0  0.7212170E+07  0.9118800E+02  0.7818608E-02  0.1180000E+00
       11   -1    0    0    0    0  0.00000000000E+00  0.00000000000E+00  0.39999999673E+01  0.40000000000E+01  0.51109989000E-03 0. -1.
     -623   -1    0    0    0    0  0.00000000000E+00  0.00000000000E+00  0.12525980253E-10  0.17130000000E+03  0.17130000000E+03 0. -1.
       11    1    1    2    0    0  0.92986730248E-02 -0.53757914026E-03  0.23655384843E+00  0.23673770030E+00  0.51109989000E-03 0. -1.
     -623    1    1    2    0    0 -0.87019131061E-02 -0.12409787943E-01  0.41939895342E-03  0.17130000067E+03  0.17130000000E+03 0. -1.
      622    1    1    2    0    0 -0.59675991603E-03  0.12947367087E-01  0.37630267212E+01  0.37632616299E+01  0.40000000000E-01 0. -1.
</event>
<event>
 5   0  0.7212170E+07  0.9118800E+02  0.7818608E-02  0.1180000E+00
       11   -1    0    0    0    0  0.00000000000E+00  0.00000000000E+00  0.39999999673E+01  0.40000000000E+01  0.51109989000E-03 0.  1.
     -623   -1    0    0    0    0  0.00000000000E+00  0.00000000000E+00  0.12525980253E-10  0.17130000000E+03  0.17130000000E+03 0.  1.
       11    1    1    2    0    0  0.18414816281E-02  0.47771391264E-02  0.65449816929E-01  0.65651746907E-01  0.51109989000E-03 0.  1.
     -623    1    1    2    0    0 -0.99164928001E-02 -0.72614301728E-02  0.41475297017E-03  0.17130000044E+03  0.17130000000E+03 0.  1.
      622    1    1    2    0    0  0.80750111722E-02  0.24842910465E-02  0.39341353976E+01  0.39343478117E+01  0.40000000000E-01 0.  1.
</event>
<event>
 5   0  0.7212170E+07  0.9118800E+02  0.7818608E-02  0.1180000E+00
       11   -1    0    0    0    0  0.00000000000E+00  0.00000000000E+00  0.39999999673E+01  0.40000000000E+01  0.51109989000E-03 0.  1.
     -623   -1    0    0    0    0  0.00000000000E+00  0.00000000000E+00  0.12525980253E-10  0.17130000000E+03  0.17130000000E+03 0.  1.
       11    1    1    2    0    0 -0.17086287577E-03 -0.49341316055E-02  0.58588776756E-01  0.58798646530E-01  0.51109989000E-03 0.  1.
     -623    1    1    2    0    0 -0.75528660885E-03 -0.92477787739E-03  0.41729474216E-03  0.17130000000E+03  0.17130000000E+03 0.  1.
      622    1    1    2    0    0  0.92614948485E-03  0.58589094832E-02  0.39409938971E+01  0.39412013500E+01  0.40000000000E-01 0.  1.
</event>
<event>
 5   0  0.7212170E+07  0.9118800E+02  0.7818608E-02  0.1180000E+00
       11   -1    0    0    0    0  0.00000000000E+00  0.00000000000E+00  0.39999999673E+01  0.40000000000E+01  0.51109989000E-03 0.  1.
     -623   -1    0    0    0    0  0.00000000000E+00  0.00000000000E+00  0.12525980253E-10  0.17130000000E+03  0.17130000000E+03 0.  1.
       11    1    1    2    0    0  0.13338276995E-03 -0.34004870670E-03  0.43300233569E-02  0.43753570660E-02  0.51109989000E-03 0.  1.
     -623    1    1    2    0    0  0.69904660869E-04 -0.70972818233E-03  0.24566983711E-03  0.17130000000E+03  0.17130000000E+03 0.  1.
      622    1    1    2    0    0 -0.20328743084E-03  0.10497768892E-02  0.39954242752E+01  0.39956246423E+01  0.40000000000E-01 0.  1.
</event>
<event>
 5   0  0.7212170E+07  0.9118800E+02  0.7818608E-02  0.1180000E+00
       11   -1    0    0    0    0  0.00000000000E+00  0.00000000000E+00  0.39999999673E+01  0.40000000000E+01  0.51109989000E-03 0.  1.
     -623   -1    0    0    0    0  0.00000000000E+00  0.00000000000E+00  0.12525980253E-10  0.17130000000E+03  0.17130000000E+03 0.  1.
       11    1    1    2    0    0  0.31340928526E-02 -0.16445655488E-01  0.10366988737E+01  0.10368341710E+01  0.51109989000E-03 0.  1.
     -623    1    1    2    0    0 -0.50018176807E-01  0.16751264228E-01  0.78436317161E-03  0.17130000812E+03  0.17130000000E+03 0.  1.
      622    1    1    2    0    0  0.46884083955E-01 -0.30560874035E-03  0.29625167305E+01  0.29631577058E+01  0.40000000000E-01 0.  0.
</event>
<event>
 5   0  0.7212170E+07  0.9118800E+02  0.7818608E-02  0.1180000E+00
       11   -1    0    0    0    0  0.00000000000E+00  0.00000000000E+00  0.39999999673E+01  0.40000000000E+01  0.51109989000E-03 0. -1.
     -623   -1    0    0    0    0  0.00000000000E+00  0.00000000000E+00  0.12525980253E-10  0.17130000000E+03  0.17130000000E+03 0.  1.
       11    1    1    2    0    0  0.53948954836E-02  0.10316119418E-01  0.11870109659E+01  0.11870681621E+01  0.51109989000E-03 0. -1.
     -623    1    1    2    0    0 -0.21649386691E-01 -0.40894332630E-01  0.56102453766E-03  0.17130000625E+03  0.17130000000E+03 0.  1.
      622    1    1    2    0    0  0.16254491206E-01  0.30578213211E-01  0.28124279768E+01  0.28129255874E+01  0.40000000000E-01 0.  0.
</event>
<event>
 5   0  0.7212170E+07  0.9118800E+02  0.7818608E-02  0.1180000E+00
       11   -1    0    0    0    0  0.00000000000E+00  0.00000000000E+00  0.39999999673E+01  0.40000000000E+01  0.51109989000E-03 0.  1.
     -623   -1    0    0    0    0  0.00000000000E+00  0.00000000000E+00  0.12525980253E-10  0.17130000000E+03  0.17130000000E+03 0. -1.
       11    1    1    2    0    0 -0.72253526949E-03  0.98026479446E-03  0.70692799561E-02  0.71915866454E-02  0.51109989000E-03 0.  1.
     -623    1    1    2    0    0 -0.65602626217E-03  0.13189672923E-01  0.34853166281E-03  0.17130000051E+03  0.17130000000E+03 0. -1.
      622    1    1    2    0    0  0.13785615316E-02 -0.14169937716E-01  0.39925821552E+01  0.39928079034E+01  0.40000000000E-01 0.  1.
</event>
<event>
 5   0  0.7212170E+07  0.9118800E+02  0.7818608E-02  0.1180000E+00
       11   -1    0    0    0    0  0.00000000000E+00  0.00000000000E+00  0.39999999673E+01  0.40000000000E+01  0.51109989000E-03 0.  1.
     -623   -1    0    0    0    0  0.00000000000E+00  0.00000000000E+00  0.12525980253E-10  0.17130000000E+03  0.17130000000E+03 0. -1.
       11    1    1    2    0    0 -0.58311574428E-03  0.45226273010E-03  0.65569372068E-02  0.66180974744E-02  0.51109989000E-03 0.  1.
     -623    1    1    2    0    0  0.30233633846E-03 -0.79708716978E-03  0.26149118648E-03  0.17130000000E+03  0.17130000000E+03 0. -1.
      622    1    1    2    0    0  0.28077940571E-03  0.34482444000E-03  0.39931815405E+01  0.39933819018E+01  0.40000000000E-01 0.  1.
</event>
<event>
 5   0  0.7212170E+07  0.9118800E+02  0.7818608E-02  0.1180000E+00
       11   -1    0    0    0    0  0.00000000000E+00  0.00000000000E+00  0.39999999673E+01  0.40000000000E+01  0.51109989000E-03 0. -1.
     -623   -1    0    0    0    0  0.00000000000E+00  0.00000000000E+00  0.12525980253E-10  0.17130000000E+03  0.17130000000E+03 0.  1.
       11    1    1    2    0    0  0.57623525976E-02 -0.42277873782E-02  0.22921649872E+00  0.22932846183E+00  0.51109989000E-03 0. -1.
     -623    1    1    2    0    0 -0.44199855801E-02  0.50009841049E-02  0.32454880481E-03  0.17130000013E+03  0.17130000000E+03 0.  1.
      622    1    1    2    0    0 -0.13423670171E-02 -0.77319672724E-03  0.37704589202E+01  0.37706714082E+01  0.40000000000E-01 0. -1.
</event>
<event>
 5   0  0.7212170E+07  0.9118800E+02  0.7818608E-02  0.1180000E+00
       11   -1    0    0    0    0  0.00000000000E+00  0.00000000000E+00  0.39999999673E+01  0.40000000000E+01  0.51109989000E-03 0. -1.
     -623   -1    0    0    0    0  0.00000000000E+00  0.00000000000E+00  0.12525980253E-10  0.17130000000E+03  0.17130000000E+03 0. -1.
       11    1    1    2    0    0 -0.18211276175E-01 -0.37859026674E-01  0.20315613167E+01  0.20319957188E+01  0.51109989000E-03 0. -1.
     -623    1    1    2    0    0  0.38422539947E-01  0.36900097431E-01  0.95324486584E-03  0.17130000829E+03  0.17130000000E+03 0. -1.
      622    1    1    2    0    0 -0.20211263773E-01  0.95892924229E-03  0.19674854059E+01  0.19679959952E+01  0.40000000000E-01 0.  1.
</event>
<event>
 5   0  0.7212170E+07  0.9118800E+02  0.7818608E-02  0.1180000E+00
       11   -1    0    0    0    0  0.00000000000E+00  0.00000000000E+00  0.39999999673E+01  0.40000000000E+01  0.51109989000E-03 0. -1.
     -623   -1    0    0    0    0  0.00000000000E+00  0.00000000000E+00  0.12525980253E-10  0.17130000000E+03  0.17130000000E+03 0. -1.
       11    1    1    2    0    0 -0.72779992662E-02 -0.14002376060E-01  0.16987996724E+00  0.17061213409E+00  0.51109989000E-03 0. -1.
     -623    1    1    2    0    0 -0.10421225054E-01 -0.69899055109E-02  0.10399611410E-02  0.17130000046E+03  0.17130000000E+03 0. -1.
      622    1    1    2    0    0  0.17699224320E-01  0.20992281571E-01  0.38290800390E+01  0.38293874032E+01  0.40000000000E-01 0. -1.
</event>
<event>
 5   0  0.7212170E+07  0.9118800E+02  0.7818608E-02  0.1180000E+00
       11   -1    0    0    0    0  0.00000000000E+00  0.00000000000E+00  0.39999999673E+01  0.40000000000E+01  0.51109989000E-03 0.  1.
     -623   -1    0    0    0    0  0.00000000000E+00  0.00000000000E+00  0.12525980253E-10  0.17130000000E+03  0.17130000000E+03 0. -1.
       11    1    1    2    0    0 -0.84062861313E-03 -0.75252025138E-03  0.63879879991E-02  0.65069621920E-02  0.51109989000E-03 0.  1.
     -623    1    1    2    0    0  0.19784119965E-03  0.15919096042E-02  0.31942021854E-03  0.17130000001E+03  0.17130000000E+03 0. -1.
      622    1    1    2    0    0  0.64278741348E-03 -0.83938935280E-03  0.39932925592E+01  0.39934930300E+01  0.40000000000E-01 0.  1.
</event>
<event>
 5   0  0.7212170E+07  0.9118800E+02  0.7818608E-02  0.1180000E+00
       11   -1    0    0    0    0  0.00000000000E+00  0.00000000000E+00  0.39999999673E+01  0.40000000000E+01  0.51109989000E-03 0.  1.
     -623   -1    0    0    0    0  0.00000000000E+00  0.00000000000E+00  0.12525980253E-10  0.17130000000E+03  0.17130000000E+03 0.  1.
       11    1    1    2    0    0  0.40014967190E-01  0.26967452489E-01  0.26177372558E+01  0.26181820110E+01  0.51109989000E-03 0.  1.
     -623    1    1    2    0    0 -0.12701504368E-02 -0.14723792963E-02  0.18027380627E-02  0.17130000002E+03  0.17130000000E+03 0.  1.
      622    1    1    2    0    0 -0.38744816753E-01 -0.25495073193E-01  0.13804599736E+01  0.13818179686E+01  0.40000000000E-01 0.  0.
</event>
<event>
 5   0  0.7212170E+07  0.9118800E+02  0.7818608E-02  0.1180000E+00
       11   -1    0    0    0    0  0.00000000000E+00  0.00000000000E+00  0.39999999673E+01  0.40000000000E+01  0.51109989000E-03 0.  1.
     -623   -1    0    0    0    0  0.00000000000E+00  0.00000000000E+00  0.12525980253E-10  0.17130000000E+03  0.17130000000E+03 0. -1.
       11    1    1    2    0    0  0.20193403683E-03 -0.40642850345E-02  0.44928142311E-01  0.45114946357E-01  0.51109989000E-03 0.  1.
     -623    1    1    2    0    0  0.32617484369E-02  0.24255230761E-02  0.39096309484E-03  0.17130000005E+03  0.17130000000E+03 0. -1.
      622    1    1    2    0    0 -0.34636824733E-02  0.16387619587E-02  0.39546808614E+01  0.39548850044E+01  0.40000000000E-01 0.  1.
</event>
<event>
 5   0  0.7212170E+07  0.9118800E+02  0.7818608E-02  0.1180000E+00
       11   -1    0    0    0    0  0.00000000000E+00  0.00000000000E+00  0.39999999673E+01  0.40000000000E+01  0.51109989000E-03 0.  1.
     -623   -1    0    0    0    0  0.00000000000E+00  0.00000000000E+00  0.12525980253E-10  0.17130000000E+03  0.17130000000E+03 0. -1.
       11    1    1    2    0    0 -0.12675048243E-04  0.17317513289E-02  0.57605421636E-01  0.57633713643E-01  0.51109989000E-03 0.  1.
     -623    1    1    2    0    0 -0.16436250569E-02 -0.13263367351E-02  0.23157037404E-03  0.17130000001E+03  0.17130000000E+03 0. -1.
      622    1    1    2    0    0  0.16563001049E-02 -0.40541459403E-03  0.39421629748E+01  0.39423662727E+01  0.40000000000E-01 0.  1.
</event>
<event>
 5   0  0.7212170E+07  0.9118800E+02  0.7818608E-02  0.1180000E+00
       11   -1    0    0    0    0  0.00000000000E+00  0.00000000000E+00  0.39999999673E+01  0.40000000000E+01  0.51109989000E-03 0. -1.
     -623   -1    0    0    0    0  0.00000000000E+00  0.00000000000E+00  0.12525980253E-10  0.17130000000E+03  0.17130000000E+03 0. -1.
       11    1    1    2    0    0 -0.44227303796E-02  0.20364773997E-03  0.39484278065E+00  0.39486793320E+00  0.51109989000E-03 0. -1.
     -623    1    1    2    0    0  0.10808044993E-02 -0.43908925074E-03  0.24859352550E-03  0.17130000000E+03  0.17130000000E+03 0. -1.
      622    1    1    2    0    0  0.33419258801E-02  0.23544151085E-03  0.36049085938E+01  0.36051320633E+01  0.40000000000E-01 0. -1.
</event>
<event>
 5   0  0.7212170E+07  0.9118800E+02  0.7818608E-02  0.1180000E+00
       11   -1    0    0    0    0  0.00000000000E+00  0.00000000000E+00  0.39999999673E+01  0.40000000000E+01  0.51109989000E-03 0.  1.
     -623   -1    0    0    0    0  0.00000000000E+00  0.00000000000E+00  0.12525980253E-10  0.17130000000E+03  0.17130000000E+03 0.  1.
       11    1    1    2    0    0 -0.72431300897E-02 -0.23251507230E-02  0.19443701522E+00  0.19458644190E+00  0.51109989000E-03 0.  1.
     -623    1    1    2    0    0  0.10963872515E-01 -0.43207049651E-02  0.36765507895E-03  0.17130000041E+03  0.17130000000E+03 0.  1.
      622    1    1    2    0    0 -0.37207424262E-02  0.66458556884E-02  0.38051952973E+01  0.38054131526E+01  0.40000000000E-01 0.  1.
</event>
<event>
 5   0  0.7212170E+07  0.9118800E+02  0.7818608E-02  0.1180000E+00
       11   -1    0    0    0    0  0.00000000000E+00  0.00000000000E+00  0.39999999673E+01  0.40000000000E+01  0.51109989000E-03 0.  1.
     -623   -1    0    0    0    0  0.00000000000E+00  0.00000000000E+00  0.12525980253E-10  0.17130000000E+03  0.17130000000E+03 0. -1.
       11    1    1    2    0    0  0.97610212288E-03 -0.26042162192E-03  0.16875861547E-02  0.20321823005E-02  0.51109989000E-03 0.  1.
     -623    1    1    2    0    0 -0.78459103782E-03 -0.69624005236E-03  0.54479330382E-03  0.17130000000E+03  0.17130000000E+03 0. -1.
      622    1    1    2    0    0 -0.19151108511E-03  0.95666167423E-03  0.39977675877E+01  0.39979678134E+01  0.40000000000E-01 0.  1.
</event>
<event>
 5   0  0.7212170E+07  0.9118800E+02  0.7818608E-02  0.1180000E+00
       11   -1    0    0    0    0  0.00000000000E+00  0.00000000000E+00  0.39999999673E+01  0.40000000000E+01  0.51109989000E-03 0.  1.
     -623   -1    0    0    0    0  0.00000000000E+00  0.00000000000E+00  0.12525980253E-10  0.17130000000E+03  0.17130000000E+03 0. -1.
       11    1    1    2    0    0  0.18569506037E-02 -0.77398545893E-03  0.32416475087E-01  0.32482863162E-01  0.51109989000E-03 0.  1.
     -623    1    1    2    0    0 -0.58362066758E-03 -0.49885984586E-03  0.26840845643E-03  0.17130000000E+03  0.17130000000E+03 0. -1.
      622    1    1    2    0    0 -0.12733299361E-02  0.12728453048E-02  0.39673150837E+01  0.39675171348E+01  0.40000000000E-01 0.  1.
</event>
<event>
 5   0  0.7212170E+07  0.9118800E+02  0.7818608E-02  0.1180000E+00
       11   -1    0    0    0    0  0.00000000000E+00  0.00000000000E+00  0.39999999673E+01  0.40000000000E+01  0.51109989000E-03 0. -1.
     -623   -1    0    0    0    0  0.00000000000E+00  0.00000000000E+00  0.12525980253E-10  0.17130000000E+03  0.17130000000E+03 0.  1.
       11    1    1    2    0    0  0.12777765417E-01  0.12328406971E-01  0.80273617289E+00  0.80293267799E+00  0.51109989000E-03 0. -1.
     -623    1    1    2    0    0  0.15178864371E-01 -0.14185697324E-01  0.57075683349E-03  0.17130000126E+03  0.17130000000E+03 0.  1.
      622    1    1    2    0    0 -0.27956629790E-01  0.18572903550E-02  0.31966930380E+01  0.31970660616E+01  0.40000000000E-01 0. -1.
</event>
<event>
 5   0  0.7212170E+07  0.9118800E+02  0.7818608E-02  0.1180000E+00
       11   -1    0    0    0    0  0.00000000000E+00  0.00000000000E+00  0.39999999673E+01  0.40000000000E+01  0.51109989000E-03 0. -1.
     -623   -1    0    0    0    0  0.00000000000E+00  0.00000000000E+00  0.12525980253E-10  0.17130000000E+03  0.17130000000E+03 0.  1.
       11    1    1    2    0    0  0.45555114378E-03  0.32041220609E-03  0.90529336008E-03  0.11793939087E-02  0.51109989000E-03 0. -1.
     -623    1    1    2    0    0  0.11284078469E-03 -0.28203156987E-03  0.47417340761E-03  0.17130000000E+03  0.17130000000E+03 0.  1.
      622    1    1    2    0    0 -0.56839192848E-03 -0.38380636189E-04  0.39986205010E+01  0.39988206056E+01  0.40000000000E-01 0. -1.
</event>
<event>
 5   0  0.7212170E+07  0.9118800E+02  0.7818608E-02  0.1180000E+00
       11   -1    0    0    0    0  0.00000000000E+00  0.00000000000E+00  0.39999999673E+01  0.40000000000E+01  0.51109989000E-03 0.  1.
     -623   -1    0    0    0    0  0.00000000000E+00  0.00000000000E+00  0.12525980253E-10  0.17130000000E+03  0.17130000000E+03 0.  1.
       11    1    1    2    0    0  0.27479037054E-03  0.11392749376E-03  0.81029161315E-03  0.10031374868E-02  0.51109989000E-03 0.  1.
     -623    1    1    2    0    0 -0.50616951053E-04 -0.13325981461E-03  0.39287524731E-03  0.17130000000E+03  0.17130000000E+03 0.  1.
      622    1    1    2    0    0 -0.22417341950E-03  0.19332320837E-04  0.39987968000E+01  0.39989968615E+01  0.40000000000E-01 0.  1.
</event>
<event>
 5   0  0.7212170E+07  0.9118800E+02  0.7818608E-02  0.1180000E+00
       11   -1    0    0    0    0  0.00000000000E+00  0.00000000000E+00  0.39999999673E+01  0.40000000000E+01  0.51109989000E-03 0.  1.
     -623   -1    0    0    0    0  0.00000000000E+00  0.00000000000E+00  0.12525980253E-10  0.17130000000E+03  0.17130000000E+03 0. -1.
       11    1    1    2    0    0  0.13853316868E-02 -0.54498336939E-03  0.11559178330E+00  0.11560249885E+00  0.51109989000E-03 0.  1.
     -623    1    1    2    0    0 -0.75441433551E-03 -0.88168446383E-03  0.21695783222E-03  0.17130000000E+03  0.17130000000E+03 0. -1.
      622    1    1    2    0    0 -0.63091735107E-03  0.14266678335E-02  0.38841912274E+01  0.38843974983E+01  0.40000000000E-01 0.  1.
</event>
<event>
 5   0  0.7212170E+07  0.9118800E+02  0.7818608E-02  0.1180000E+00
       11   -1    0    0    0    0  0.00000000000E+00  0.00000000000E+00  0.39999999673E+01  0.40000000000E+01  0.51109989000E-03 0. -1.
     -623   -1    0    0    0    0  0.00000000000E+00  0.00000000000E+00  0.12525980253E-10  0.17130000000E+03  0.17130000000E+03 0.  1.
       11    1    1    2    0    0  0.11368204515E-01 -0.62243412321E-01  0.25160746528E+00  0.25944181672E+00  0.51109989000E-03 0. -1.
     -623    1    1    2    0    0 -0.26498686975E-01 -0.20771172282E-01  0.90036956684E-02  0.17130000355E+03  0.17130000000E+03 0.  1.
      622    1    1    2    0    0  0.15130482460E-01  0.83014584603E-01  0.37393888064E+01  0.37405546378E+01  0.40000000000E-01 0. -1.
</event>
<event>
 5   0  0.7212170E+07  0.9118800E+02  0.7818608E-02  0.1180000E+00
       11   -1    0    0    0    0  0.00000000000E+00  0.00000000000E+00  0.39999999673E+01  0.40000000000E+01  0.51109989000E-03 0.  1.
     -623   -1    0    0    0    0  0.00000000000E+00  0.00000000000E+00  0.12525980253E-10  0.17130000000E+03  0.17130000000E+03 0.  1.
       11    1    1    2    0    0  0.10572292497E-03  0.13244634814E-02  0.28275950107E-02  0.31657380644E-02  0.51109989000E-03 0.  1.
     -623    1    1    2    0    0  0.14779225119E-02 -0.15258247844E-02  0.53860668478E-03  0.17130000001E+03  0.17130000000E+03 0.  1.
      622    1    1    2    0    0 -0.15836454367E-02  0.20136130283E-03  0.39966337652E+01  0.39968342474E+01  0.40000000000E-01 0.  1.
</event>
<event>
 5   0  0.7212170E+07  0.9118800E+02  0.7818608E-02  0.1180000E+00
       11   -1    0    0    0    0  0.00000000000E+00  0.00000000000E+00  0.39999999673E+01  0.40000000000E+01  0.51109989000E-03 0. -1.
     -623   -1    0    0    0    0  0.00000000000E+00  0.00000000000E+00  0.12525980253E-10  0.17130000000E+03  0.17130000000E+03 0.  1.
       11    1    1    2    0    0 -0.14967948493E-03 -0.56290913664E-03  0.13143646165E-01  0.13166469848E-01  0.51109989000E-03 0. -1.
     -623    1    1    2    0    0  0.86354496750E-03 -0.15889443723E-03  0.22358824398E-03  0.17130000000E+03  0.17130000000E+03 0.  1.
      622    1    1    2    0    0 -0.71386548274E-03  0.72180357390E-03  0.39866327338E+01  0.39868335286E+01  0.40000000000E-01 0. -1.
</event>
<event>
 5   0  0.7212170E+07  0.9118800E+02  0.7818608E-02  0.1180000E+00
       11   -1    0    0    0    0  0.00000000000E+00  0.00000000000E+00  0.39999999673E+01  0.40000000000E+01  0.51109989000E-03 0.  1.
     -623   -1    0    0    0    0  0.00000000000E+00  0.00000000000E+00  0.12525980253E-10  0.17130000000E+03  0.17130000000E+03 0.  1.
       11    1    1    2    0    0  0.15651369609E-02 -0.74606568919E-03  0.52857467343E-01  0.52888366818E-01  0.51109989000E-03 0.  1.
     -623    1    1    2    0    0 -0.11481046125E-02  0.56567267137E-03  0.23358298624E-03  0.17130000000E+03  0.17130000000E+03 0.  1.
      622    1    1    2    0    0 -0.41703234832E-03  0.18039301776E-03  0.39469089175E+01  0.39471116287E+01  0.40000000000E-01 0.  1.
</event>
<event>
 5   0  0.7212170E+07  0.9118800E+02  0.7818608E-02  0.1180000E+00
       11   -1    0    0    0    0  0.00000000000E+00  0.00000000000E+00  0.39999999673E+01  0.40000000000E+01  0.51109989000E-03 0. -1.
     -623   -1    0    0    0    0  0.00000000000E+00  0.00000000000E+00  0.12525980253E-10  0.17130000000E+03  0.17130000000E+03 0.  1.
       11    1    1    2    0    0 -0.24236162621E-02  0.54173998514E-02  0.15703563040E+01  0.15703676018E+01  0.51109989000E-03 0. -1.
     -623    1    1    2    0    0 -0.20426263327E-02 -0.31213292076E-02  0.34578703355E-03  0.17130000004E+03  0.17130000000E+03 0.  1.
      622    1    1    2    0    0  0.44662425956E-02 -0.22960706425E-02  0.24292978780E+01  0.24296323588E+01  0.40000000000E-01 0. -1.
</event>
<event>
 5   0  0.7212170E+07  0.9118800E+02  0.7818608E-02  0.1180000E+00
       11   -1    0    0    0    0  0.00000000000E+00  0.00000000000E+00  0.39999999673E+01  0.40000000000E+01  0.51109989000E-03 0. -1.
     -623   -1    0    0    0    0  0.00000000000E+00  0.00000000000E+00  0.12525980253E-10  0.17130000000E+03  0.17130000000E+03 0. -1.
       11    1    1    2    0    0  0.11453174088E-01  0.11301834799E-01  0.63558824527E+00  0.63579209292E+00  0.51109989000E-03 0. -1.
     -623    1    1    2    0    0 -0.98158742713E-03  0.38688524775E-03  0.47823056154E-03  0.17130000000E+03  0.17130000000E+03 0. -1.
      622    1    1    2    0    0 -0.10471586661E-01 -0.11688720046E-01  0.33639334912E+01  0.33642079029E+01  0.40000000000E-01 0. -1.
</event>
<event>
 5   0  0.7212170E+07  0.9118800E+02  0.7818608E-02  0.1180000E+00
       11   -1    0    0    0    0  0.00000000000E+00  0.00000000000E+00  0.39999999673E+01  0.40000000000E+01  0.51109989000E-03 0.  1.
     -623   -1    0    0    0    0  0.00000000000E+00  0.00000000000E+00  0.12525980253E-10  0.17130000000E+03  0.17130000000E+03 0. -1.
       11    1    1    2    0    0  0.83367043054E-03  0.64590281470E-03  0.84767865149E-02  0.85574137184E-02  0.51109989000E-03 0.  1.
     -623    1    1    2    0    0  0.43627988527E-03 -0.53991108865E-03  0.28123346771E-03  0.17130000000E+03  0.17130000000E+03 0. -1.
      622    1    1    2    0    0 -0.12699503159E-02 -0.10599172594E-03  0.39912419482E+01  0.39914425854E+01  0.40000000000E-01 0.  1.
</event>
<event>
 5   0  0.7212170E+07  0.9118800E+02  0.7818608E-02  0.1180000E+00
       11   -1    0    0    0    0  0.00000000000E+00  0.00000000000E+00  0.39999999673E+01  0.40000000000E+01  0.51109989000E-03 0.  1.
     -623   -1    0    0    0    0  0.00000000000E+00  0.00000000000E+00  0.12525980253E-10  0.17130000000E+03  0.17130000000E+03 0.  1.
       11    1    1    2    0    0 -0.60489190387E-03  0.30701060473E-02  0.24228026567E+00  0.24230101073E+00  0.51109989000E-03 0.  1.
     -623    1    1    2    0    0 -0.80918677887E-03 -0.26905692066E-03  0.23492709770E-03  0.17130000000E+03  0.17130000000E+03 0.  1.
      622    1    1    2    0    0  0.14140786829E-02 -0.28010491266E-02  0.37574847754E+01  0.37576989878E+01  0.40000000000E-01 0.  1.
</event>
<event>
 5   0  0.7212170E+07  0.9118800E+02  0.7818608E-02  0.1180000E+00
       11   -1    0    0    0    0  0.00000000000E+00  0.00000000000E+00  0.39999999673E+01  0.40000000000E+01  0.51109989000E-03 0.  1.
     -623   -1    0    0    0    0  0.00000000000E+00  0.00000000000E+00  0.12525980253E-10  0.17130000000E+03  0.17130000000E+03 0.  1.
       11    1    1    2    0    0  0.10628897608E-01 -0.99680646242E-02  0.11894609263E+00  0.11983642999E+00  0.51109989000E-03 0.  1.
     -623    1    1    2    0    0 -0.11694627079E-02 -0.11541281919E-01  0.11680364469E-02  0.17130000040E+03  0.17130000000E+03 0.  1.
      622    1    1    2    0    0 -0.94594349006E-02  0.21509346544E-01  0.38798858385E+01  0.38801631734E+01  0.40000000000E-01 0.  1.
</event>
<event>
 5   0  0.7212170E+07  0.9118800E+02  0.7818608E-02  0.1180000E+00
       11   -1    0    0    0    0  0.00000000000E+00  0.00000000000E+00  0.39999999673E+01  0.40000000000E+01  0.51109989000E-03 0.  1.
     -623   -1    0    0    0    0  0.00000000000E+00  0.00000000000E+00  0.12525980253E-10  0.17130000000E+03  0.17130000000E+03 0. -1.
       11    1    1    2    0    0 -0.87467327907E-02  0.15356275623E-01  0.34580929526E+00  0.34626095715E+00  0.51109989000E-03 0.  1.
     -623    1    1    2    0    0  0.24187994308E-03 -0.59177628377E-03  0.71032443132E-03  0.17130000000E+03  0.17130000000E+03 0. -1.
      622    1    1    2    0    0  0.85048528476E-02 -0.14764499340E-01  0.36534803480E+01  0.36537390405E+01  0.40000000000E-01 0.  1.
</event>
<event>
 5   0  0.7212170E+07  0.9118800E+02  0.7818608E-02  0.1180000E+00
       11   -1    0    0    0    0  0.00000000000E+00  0.00000000000E+00  0.39999999673E+01  0.40000000000E+01  0.51109989000E-03 0. -1.
     -623   -1    0    0    0    0  0.00000000000E+00  0.00000000000E+00  0.12525980253E-10  0.17130000000E+03  0.17130000000E+03 0. -1.
       11    1    1    2    0    0 -0.14060622152E-01 -0.13958042676E-01  0.67161200125E-01  0.70024396292E-01  0.51109989000E-03 0. -1.
     -623    1    1    2    0    0 -0.87742628420E-02 -0.20977371419E-02  0.31661436553E-02  0.17130000027E+03  0.17130000000E+03 0. -1.
      622    1    1    2    0    0  0.22834884995E-01  0.16055779818E-01  0.39296726236E+01  0.39299753369E+01  0.40000000000E-01 0. -1.
</event>
<event>
 5   0  0.7212170E+07  0.9118800E+02  0.7818608E-02  0.1180000E+00
       11   -1    0    0    0    0  0.00000000000E+00  0.00000000000E+00  0.39999999673E+01  0.40000000000E+01  0.51109989000E-03 0.  1.
     -623   -1    0    0    0    0  0.00000000000E+00  0.00000000000E+00  0.12525980253E-10  0.17130000000E+03  0.17130000000E+03 0. -1.
       11    1    1    2    0    0 -0.18271818626E-02  0.21492886968E-01  0.86230485659E-01  0.88888923179E-01  0.51109989000E-03 0.  1.
     -623    1    1    2    0    0  0.20175963802E-02 -0.19357646850E-01  0.28646728531E-02  0.17130000113E+03  0.17130000000E+03 0. -1.
      622    1    1    2    0    0 -0.19041451759E-03 -0.21352401187E-02  0.39109048088E+01  0.39111099472E+01  0.40000000000E-01 0.  0.
</event>
<event>
 5   0  0.7212170E+07  0.9118800E+02  0.7818608E-02  0.1180000E+00
       11   -1    0    0    0    0  0.00000000000E+00  0.00000000000E+00  0.39999999673E+01  0.40000000000E+01  0.51109989000E-03 0.  1.
     -623   -1    0    0    0    0  0.00000000000E+00  0.00000000000E+00  0.12525980253E-10  0.17130000000E+03  0.17130000000E+03 0.  1.
       11    1    1    2    0    0 -0.45796230117E-02  0.27514714865E-02  0.10369094663E+00  0.10382975093E+00  0.51109989000E-03 0.  1.
     -623    1    1    2    0    0  0.78038566009E-02  0.14683859844E-02  0.34791082381E-03  0.17130000018E+03  0.17130000000E+03 0.  1.
      622    1    1    2    0    0 -0.32242335912E-02 -0.42198574713E-02  0.38959611109E+01  0.38961700657E+01  0.40000000000E-01 0.  1.
</event>
<event>
 5   0  0.7212170E+07  0.9118800E+02  0.7818608E-02  0.1180000E+00
       11   -1    0    0    0    0  0.00000000000E+00  0.00000000000E+00  0.39999999673E+01  0.40000000000E+01  0.51109989000E-03 0. -1.
     -623   -1    0    0    0    0  0.00000000000E+00  0.00000000000E+00  0.12525980253E-10  0.17130000000E+03  0.17130000000E+03 0. -1.
       11    1    1    2    0    0 -0.35400116304E-02 -0.15342685230E-02  0.77228786460E-02  0.86481061466E-02  0.51109989000E-03 0. -1.
     -623    1    1    2    0    0  0.65512111233E-03 -0.56667991535E-03  0.11272347368E-02  0.17130000001E+03  0.17130000000E+03 0. -1.
      622    1    1    2    0    0  0.28848905180E-02  0.21009484384E-02  0.39911498542E+01  0.39913518882E+01  0.40000000000E-01 0. -1.
</event>
<event>
 5   0  0.7212170E+07  0.9118800E+02  0.7818608E-02  0.1180000E+00
       11   -1    0    0    0    0  0.00000000000E+00  0.00000000000E+00  0.39999999673E+01  0.40000000000E+01  0.51109989000E-03 0.  1.
     -623   -1    0    0    0    0  0.00000000000E+00  0.00000000000E+00  0.12525980253E-10  0.17130000000E+03  0.17130000000E+03 0.  1.
       11    1    1    2    0    0  0.85400618290E-03  0.14443937049E-02 -0.13729601265E-02  0.22275193246E-02  0.51109989000E-03 0.  1.
     -623    1    1    2    0    0 -0.86795072225E-03  0.19244878766E-03  0.38009428703E-02  0.17130000004E+03  0.17130000000E+03 0.  1.
      622    1    1    2    0    0  0.13944539362E-04 -0.16368424926E-02  0.39975719847E+01  0.39977724363E+01  0.40000000000E-01 0.  1.
</event>
<event>
 5   0  0.7212170E+07  0.9118800E+02  0.7818608E-02  0.1180000E+00
       11   -1    0    0    0    0  0.00000000000E+00  0.00000000000E+00  0.39999999673E+01  0.40000000000E+01  0.51109989000E-03 0.  1.
     -623   -1    0    0    0    0  0.00000000000E+00  0.00000000000E+00  0.12525980253E-10  0.17130000000E+03  0.17130000000E+03 0. -1.
       11    1    1    2    0    0 -0.25848664992E-02 -0.10458013741E-02  0.21214037792E+00  0.21215931844E+00  0.51109989000E-03 0.  1.
     -623    1    1    2    0    0 -0.84608773513E-03 -0.49794029023E-03  0.23198739577E-03  0.17130000000E+03  0.17130000000E+03 0. -1.
      622    1    1    2    0    0  0.34309542344E-02  0.15437416644E-02  0.37876276026E+01  0.37878406792E+01  0.40000000000E-01 0.  1.
</event>
<event>
 5   0  0.7212170E+07  0.9118800E+02  0.7818608E-02  0.1180000E+00
       11   -1    0    0    0    0  0.00000000000E+00  0.00000000000E+00  0.39999999673E+01  0.40000000000E+01  0.51109989000E-03 0.  1.
     -623   -1    0    0    0    0  0.00000000000E+00  0.00000000000E+00  0.12525980253E-10  0.17130000000E+03  0.17130000000E+03 0. -1.
       11    1    1    2    0    0 -0.14506070622E-03 -0.13984272850E-02  0.71631815967E-02  0.73177206263E-02  0.51109989000E-03 0.  1.
     -623    1    1    2    0    0 -0.11248475012E-02  0.12678236121E-02  0.35509082651E-03  0.17130000001E+03  0.17130000000E+03 0. -1.
      622    1    1    2    0    0  0.12699082072E-02  0.13060367314E-03  0.39924816942E+01  0.39926822699E+01  0.40000000000E-01 0.  1.
</event>
<event>
 5   0  0.7212170E+07  0.9118800E+02  0.7818608E-02  0.1180000E+00
       11   -1    0    0    0    0  0.00000000000E+00  0.00000000000E+00  0.39999999673E+01  0.40000000000E+01  0.51109989000E-03 0. -1.
     -623   -1    0    0    0    0  0.00000000000E+00  0.00000000000E+00  0.12525980253E-10  0.17130000000E+03  0.17130000000E+03 0.  1.
       11    1    1    2    0    0 -0.16435457802E-02  0.21318893830E-03  0.38808270446E-01  0.38847004651E-01  0.51109989000E-03 0. -1.
     -623    1    1    2    0    0  0.18060731254E-02  0.10224505246E-03  0.24069372803E-03  0.17130000001E+03  0.17130000000E+03 0.  1.
      622    1    1    2    0    0 -0.16252734573E-03 -0.31543399079E-03  0.39609510043E+01  0.39611529868E+01  0.40000000000E-01 0. -1.
</event>
<event>
 5   0  0.7212170E+07  0.9118800E+02  0.7818608E-02  0.1180000E+00
       11   -1    0    0    0    0  0.00000000000E+00  0.00000000000E+00  0.39999999673E+01  0.40000000000E+01  0.51109989000E-03 0.  1.
     -623   -1    0    0    0    0  0.00000000000E+00  0.00000000000E+00  0.12525980253E-10  0.17130000000E+03  0.17130000000E+03 0. -1.
       11    1    1    2    0    0 -0.47192197727E-01  0.45231724646E-02  0.44589992427E+00  0.44841338774E+00  0.51109989000E-03 0.  1.
     -623    1    1    2    0    0  0.13576990059E-01 -0.10954395680E-02  0.29000048242E-02  0.17130000057E+03  0.17130000000E+03 0. -1.
      622    1    1    2    0    0  0.33615207668E-01 -0.34277328967E-02  0.35512000382E+01  0.35515860461E+01  0.40000000000E-01 0.  1.
</event>
<event>
 5   0  0.7212170E+07  0.9118800E+02  0.7818608E-02  0.1180000E+00
       11   -1    0    0    0    0  0.00000000000E+00  0.00000000000E+00  0.39999999673E+01  0.40000000000E+01  0.51109989000E-03 0. -1.
     -623   -1    0    0    0    0  0.00000000000E+00  0.00000000000E+00  0.12525980253E-10  0.17130000000E+03  0.17130000000E+03 0.  1.
       11    1    1    2    0    0 -0.14194918646E-01  0.51798228625E-02  0.70979944706E-01  0.72572309139E-01  0.51109989000E-03 0. -1.
     -623    1    1    2    0    0 -0.60697815613E-02 -0.27170665305E-02  0.18492278777E-02  0.17130000014E+03  0.17130000000E+03 0.  1.
      622    1    1    2    0    0  0.20264700207E-01 -0.24627563321E-02  0.39271707946E+01  0.39274275516E+01  0.40000000000E-01 0. -1.
</event>
<event>
 5   0  0.7212170E+07  0.9118800E+02  0.7818608E-02  0.1180000E+00
       11   -1    0    0    0    0  0.00000000000E+00  0.00000000000E+00  0.39999999673E+01  0.40000000000E+01  0.51109989000E-03 0. -1.
     -623   -1    0    0    0    0  0.00000000000E+00  0.00000000000E+00  0.12525980253E-10  0.17130000000E+03  0.17130000000E+03 0.  1.
       11    1    1    2    0    0  0.49976456511E-01  0.49545548944E-02  0.95738354923E+00  0.95870001324E+00  0.51109989000E-03 0. -1.
     -623    1    1    2    0    0 -0.13762736875E-02  0.76337529714E-02  0.19941089005E-02  0.17130000019E+03  0.17130000000E+03 0.  1.
      622    1    1    2    0    0 -0.48600182824E-01 -0.12588307866E-01  0.30406223093E+01  0.30412997996E+01  0.40000000000E-01 0. -1.
</event>
<event>
 5   0  0.7212170E+07  0.9118800E+02  0.7818608E-02  0.1180000E+00
       11   -1    0    0    0    0  0.00000000000E+00  0.00000000000E+00  0.39999999673E+01  0.40000000000E+01  0.51109989000E-03 0. -1.
     -623   -1    0    0    0    0  0.00000000000E+00  0.00000000000E+00  0.12525980253E-10  0.17130000000E+03  0.17130000000E+03 0.  1.
       11    1    1    2    0    0  0.62959201775E-03 -0.79341682236E-02  0.50649607740E+00  0.50655886633E+00  0.51109989000E-03 0. -1.
     -623    1    1    2    0    0 -0.42168887119E-03  0.56102640926E-03  0.29955352207E-03  0.17130000000E+03  0.17130000000E+03 0.  1.
      622    1    1    2    0    0 -0.20790314652E-03  0.73731418143E-02  0.34932043368E+01  0.34934411324E+01  0.40000000000E-01 0. -1.
</event>
<event>
 5   0  0.7212170E+07  0.9118800E+02  0.7818608E-02  0.1180000E+00
       11   -1    0    0    0    0  0.00000000000E+00  0.00000000000E+00  0.39999999673E+01  0.40000000000E+01  0.51109989000E-03 0.  1.
     -623   -1    0    0    0    0  0.00000000000E+00  0.00000000000E+00  0.12525980253E-10  0.17130000000E+03  0.17130000000E+03 0.  1.
       11    1    1    2    0    0 -0.14296017975E-02 -0.38289677743E-02  0.32048691943E-02  0.52189237556E-02  0.51109989000E-03 0.  1.
     -623    1    1    2    0    0 -0.53162196693E-02  0.66198200820E-02  0.22211839576E-02  0.17130000022E+03  0.17130000000E+03 0.  1.
      622    1    1    2    0    0  0.67458214668E-02 -0.27908523076E-02  0.39945739142E+01  0.39947808514E+01  0.40000000000E-01 0.  1.
</event>
<event>
 5   0  0.7212170E+07  0.9118800E+02  0.7818608E-02  0.1180000E+00
       11   -1    0    0    0    0  0.00000000000E+00  0.00000000000E+00  0.39999999673E+01  0.40000000000E+01  0.51109989000E-03 0. -1.
     -623   -1    0    0    0    0  0.00000000000E+00  0.00000000000E+00  0.12525980253E-10  0.17130000000E+03  0.17130000000E+03 0.  1.
       11    1    1    2    0    0 -0.37037679961E-04 -0.20238533403E-03  0.31482402449E-03  0.63456195688E-03  0.51109989000E-03 0. -1.
     -623    1    1    2    0    0 -0.37028751573E-03  0.91345938184E-04  0.51976552620E-03  0.17130000000E+03  0.17130000000E+03 0.  1.
      622    1    1    2    0    0  0.40732519574E-03  0.11103939583E-03  0.39991653784E+01  0.39993654374E+01  0.40000000000E-01 0. -1.
</event>
<event>
 5   0  0.7212170E+07  0.9118800E+02  0.7818608E-02  0.1180000E+00
       11   -1    0    0    0    0  0.00000000000E+00  0.00000000000E+00  0.39999999673E+01  0.40000000000E+01  0.51109989000E-03 0. -1.
     -623   -1    0    0    0    0  0.00000000000E+00  0.00000000000E+00  0.12525980253E-10  0.17130000000E+03  0.17130000000E+03 0. -1.
       11    1    1    2    0    0  0.35365133926E-03  0.41213889503E-02  0.18395424998E+00  0.18400146257E+00  0.51109989000E-03 0. -1.
     -623    1    1    2    0    0 -0.28521284527E-02 -0.28130002373E-02  0.25791870833E-03  0.17130000005E+03  0.17130000000E+03 0. -1.
      622    1    1    2    0    0  0.24984771135E-02 -0.13083887128E-02  0.38157877988E+01  0.38159984906E+01  0.40000000000E-01 0. -1.
</event>
<event>
 5   0  0.7212170E+07  0.9118800E+02  0.7818608E-02  0.1180000E+00
       11   -1    0    0    0    0  0.00000000000E+00  0.00000000000E+00  0.39999999673E+01  0.40000000000E+01  0.51109989000E-03 0. -1.
     -623   -1    0    0    0    0  0.00000000000E+00  0.00000000000E+00  0.12525980253E-10  0.17130000000E+03  0.17130000000E+03 0.  1.
       11    1    1    2    0    0 -0.79038222348E-02  0.98629377283E-02  0.81925248203E-01  0.82896052155E-01  0.51109989000E-03 0. -1.
     -623    1    1    2    0    0 -0.17788907405E-02 -0.16950388922E-01  0.11942414892E-02  0.17130000085E+03  0.17130000000E+03 0.  1.
      622    1    1    2    0    0  0.96827129754E-02  0.70874511942E-02  0.39168804778E+01  0.39171030959E+01  0.40000000000E-01 0. -1.
</event>
<event>
 5   0  0.7212170E+07  0.9118800E+02  0.7818608E-02  0.1180000E+00
       11   -1    0    0    0    0  0.00000000000E+00  0.00000000000E+00  0.39999999673E+01  0.40000000000E+01  0.51109989000E-03 0. -1.
     -623   -1    0    0    0    0  0.00000000000E+00  0.00000000000E+00  0.12525980253E-10  0.17130000000E+03  0.17130000000E+03 0. -1.
       11    1    1    2    0    0  0.18673742534E-02 -0.32388192385E-02  0.94637496358E-01  0.94712691740E-01  0.51109989000E-03 0. -1.
     -623    1    1    2    0    0  0.31460241297E-02  0.52859326794E-02  0.28388398957E-03  0.17130000011E+03  0.17130000000E+03 0. -1.
      622    1    1    2    0    0 -0.50133983848E-02 -0.20471134437E-02  0.39050785891E+01  0.39052871997E+01  0.40000000000E-01 0. -1.
</event>
<event>
 5   0  0.7212170E+07  0.9118800E+02  0.7818608E-02  0.1180000E+00
       11   -1    0    0    0    0  0.00000000000E+00  0.00000000000E+00  0.39999999673E+01  0.40000000000E+01  0.51109989000E-03 0.  1.
     -623   -1    0    0    0    0  0.00000000000E+00  0.00000000000E+00  0.12525980253E-10  0.17130000000E+03  0.17130000000E+03 0.  1.
       11    1    1    2    0    0 -0.26585709952E-02  0.10908631367E-01  0.15733977972E+01  0.15734379415E+01  0.51109989000E-03 0.  1.
     -623    1    1    2    0    0 -0.21220325729E-02  0.95774023537E-02  0.46129916133E-03  0.17130000028E+03  0.17130000000E+03 0.  1.
      622    1    1    2    0    0  0.47806035683E-02 -0.20486033721E-01  0.24261408714E+01  0.24265617774E+01  0.40000000000E-01 0.  0.
</event>
<event>
 5   0  0.7212170E+07  0.9118800E+02  0.7818608E-02  0.1180000E+00
       11   -1    0    0    0    0  0.00000000000E+00  0.00000000000E+00  0.39999999673E+01  0.40000000000E+01  0.51109989000E-03 0. -1.
     -623   -1    0    0    0    0  0.00000000000E+00  0.00000000000E+00  0.12525980253E-10  0.17130000000E+03  0.17130000000E+03 0.  1.
       11    1    1    2    0    0 -0.10437892533E-04 -0.49563413172E-04  0.12275809419E+01  0.12275810494E+01  0.51109989000E-03 0. -1.
     -623    1    1    2    0    0 -0.23070865289E-01 -0.35974254790E-02  0.38872899829E-03  0.17130000159E+03  0.17130000000E+03 0.  1.
      622    1    1    2    0    0  0.23081303179E-01  0.36469888918E-02  0.27720302960E+01  0.27724173584E+01  0.40000000000E-01 0.  0.
</event>
<event>
 5   0  0.7212170E+07  0.9118800E+02  0.7818608E-02  0.1180000E+00
       11   -1    0    0    0    0  0.00000000000E+00  0.00000000000E+00  0.39999999673E+01  0.40000000000E+01  0.51109989000E-03 0. -1.
     -623   -1    0    0    0    0  0.00000000000E+00  0.00000000000E+00  0.12525980253E-10  0.17130000000E+03  0.17130000000E+03 0.  1.
       11    1    1    2    0    0  0.77043067582E-02 -0.15635031612E-02  0.26326042617E+00  0.26337827187E+00  0.51109989000E-03 0. -1.
     -623    1    1    2    0    0  0.18793601588E-03 -0.18071995605E-03  0.34065920702E-03  0.17130000000E+03  0.17130000000E+03 0.  1.
      622    1    1    2    0    0 -0.78922427741E-02  0.17442231173E-02  0.37363988821E+01  0.37366217278E+01  0.40000000000E-01 0. -1.
</event>
<event>
 5   0  0.7212170E+07  0.9118800E+02  0.7818608E-02  0.1180000E+00
       11   -1    0    0    0    0  0.00000000000E+00  0.00000000000E+00  0.39999999673E+01  0.40000000000E+01  0.51109989000E-03 0. -1.
     -623   -1    0    0    0    0  0.00000000000E+00  0.00000000000E+00  0.12525980253E-10  0.17130000000E+03  0.17130000000E+03 0.  1.
       11    1    1    2    0    0  0.17604085332E-01 -0.10245660785E-01  0.87879802579E+00  0.87903419088E+00  0.51109989000E-03 0. -1.
     -623    1    1    2    0    0  0.58554656110E-03 -0.53040770452E-03  0.56409360522E-03  0.17130000000E+03  0.17130000000E+03 0.  1.
      622    1    1    2    0    0 -0.18189631893E-01  0.10776068490E-01  0.31206378484E+01  0.31209658068E+01  0.40000000000E-01 0.  0.
</event>
<event>
 5   0  0.7212170E+07  0.9118800E+02  0.7818608E-02  0.1180000E+00
       11   -1    0    0    0    0  0.00000000000E+00  0.00000000000E+00  0.39999999673E+01  0.40000000000E+01  0.51109989000E-03 0. -1.
     -623   -1    0    0    0    0  0.00000000000E+00  0.00000000000E+00  0.12525980253E-10  0.17130000000E+03  0.17130000000E+03 0.  1.
       11    1    1    2    0    0  0.92590266269E-03  0.98756653497E-04  0.18309325267E-01  0.18340110780E-01  0.51109989000E-03 0. -1.
     -623    1    1    2    0    0 -0.10282836989E-02 -0.32954169122E-03  0.23169073788E-03  0.17130000000E+03  0.17130000000E+03 0.  1.
      622    1    1    2    0    0  0.10238103607E-03  0.23078503770E-03  0.39814589510E+01  0.39816598853E+01  0.40000000000E-01 0. -1.
</event>
<event>
 5   0  0.7212170E+07  0.9118800E+02  0.7818608E-02  0.1180000E+00
       11   -1    0    0    0    0  0.00000000000E+00  0.00000000000E+00  0.39999999673E+01  0.40000000000E+01  0.51109989000E-03 0.  1.
     -623   -1    0    0    0    0  0.00000000000E+00  0.00000000000E+00  0.12525980253E-10  0.17130000000E+03  0.17130000000E+03 0. -1.
       11    1    1    2    0    0  0.46350125537E-02 -0.15779042820E-02  0.11021748878E-01  0.12071176195E-01  0.51109989000E-03 0.  1.
     -623    1    1    2    0    0 -0.58484223240E-02 -0.26885477094E-03  0.12507219656E-02  0.17130000010E+03  0.17130000000E+03 0. -1.
      622    1    1    2    0    0  0.12134097708E-02  0.18467590530E-02  0.39877274968E+01  0.39879287195E+01  0.40000000000E-01 0.  1.
</event>
<event>
 5   0  0.7212170E+07  0.9118800E+02  0.7818608E-02  0.1180000E+00
       11   -1    0    0    0    0  0.00000000000E+00  0.00000000000E+00  0.39999999673E+01  0.40000000000E+01  0.51109989000E-03 0.  1.
     -623   -1    0    0    0    0  0.00000000000E+00  0.00000000000E+00  0.12525980253E-10  0.17130000000E+03  0.17130000000E+03 0. -1.
       11    1    1    2    0    0  0.19053943538E-01  0.92073787333E-02  0.17613747059E-01  0.27537862953E-01  0.51109989000E-03 0.  1.
     -623    1    1    2    0    0  0.36749957969E-02 -0.22028570398E-02  0.10197034821E-01  0.17130000036E+03  0.17130000000E+03 0. -1.
      622    1    1    2    0    0 -0.22728939335E-01 -0.70045216935E-02  0.39721891855E+01  0.39724617800E+01  0.40000000000E-01 0.  1.
</event>
<event>
 5   0  0.7212170E+07  0.9118800E+02  0.7818608E-02  0.1180000E+00
       11   -1    0    0    0    0  0.00000000000E+00  0.00000000000E+00  0.39999999673E+01  0.40000000000E+01  0.51109989000E-03 0. -1.
     -623   -1    0    0    0    0  0.00000000000E+00  0.00000000000E+00  0.12525980253E-10  0.17130000000E+03  0.17130000000E+03 0.  1.
       11    1    1    2    0    0  0.23615757478E-02  0.71857507140E-02  0.22515122676E-01  0.23757188923E-01  0.51109989000E-03 0. -1.
     -623    1    1    2    0    0 -0.10406830957E-02  0.80288978406E-03  0.14514896305E-02  0.17130000001E+03  0.17130000000E+03 0.  1.
      622    1    1    2    0    0 -0.13208926520E-02 -0.79886404981E-02  0.39760333553E+01  0.39762428001E+01  0.40000000000E-01 0. -1.
</event>
<event>
 5   0  0.7212170E+07  0.9118800E+02  0.7818608E-02  0.1180000E+00
       11   -1    0    0    0    0  0.00000000000E+00  0.00000000000E+00  0.39999999673E+01  0.40000000000E+01  0.51109989000E-03 0. -1.
     -623   -1    0    0    0    0  0.00000000000E+00  0.00000000000E+00  0.12525980253E-10  0.17130000000E+03  0.17130000000E+03 0. -1.
       11    1    1    2    0    0  0.12652078436E-02 -0.49784246657E-02  0.18152554721E+00  0.18159892890E+00  0.51109989000E-03 0. -1.
     -623    1    1    2    0    0 -0.38342353046E-03 -0.90651993385E-03  0.28750667144E-03  0.17130000000E+03  0.17130000000E+03 0. -1.
      622    1    1    2    0    0 -0.88178431308E-03  0.58849445998E-02  0.38181869144E+01  0.38184010690E+01  0.40000000000E-01 0.  0.
</event>
<event>
 5   0  0.7212170E+07  0.9118800E+02  0.7818608E-02  0.1180000E+00
       11   -1    0    0    0    0  0.00000000000E+00  0.00000000000E+00  0.39999999673E+01  0.40000000000E+01  0.51109989000E-03 0. -1.
     -623   -1    0    0    0    0  0.00000000000E+00  0.00000000000E+00  0.12525980253E-10  0.17130000000E+03  0.17130000000E+03 0. -1.
       11    1    1    2    0    0  0.10797543132E-01 -0.10483611292E-01  0.69411269282E+00  0.69427601471E+00  0.51109989000E-03 0. -1.
     -623    1    1    2    0    0  0.77518212872E-02  0.11648205989E-01  0.45812695455E-03  0.17130000057E+03  0.17130000000E+03 0. -1.
      622    1    1    2    0    0 -0.18549364420E-01 -0.11645946987E-02  0.33054291481E+01  0.33057234138E+01  0.40000000000E-01 0. -1.
</event>
<event>
 5   0  0.7212170E+07  0.9118800E+02  0.7818608E-02  0.1180000E+00
       11   -1    0    0    0    0  0.00000000000E+00  0.00000000000E+00  0.39999999673E+01  0.40000000000E+01  0.51109989000E-03 0. -1.
     -623   -1    0    0    0    0  0.00000000000E+00  0.00000000000E+00  0.12525980253E-10  0.17130000000E+03  0.17130000000E+03 0.  1.
       11    1    1    2    0    0  0.43187046449E-03 -0.44110653178E-02  0.15709136673E-01  0.16330407449E-01  0.51109989000E-03 0. -1.
     -623    1    1    2    0    0  0.19834315914E-02 -0.84149877620E-03  0.82627383793E-03  0.17130000002E+03  0.17130000000E+03 0.  1.
      622    1    1    2    0    0 -0.24153020560E-02  0.52525640941E-02  0.39834645572E+01  0.39836695773E+01  0.40000000000E-01 0. -1.
</event>
<event>
 5   0  0.7212170E+07  0.9118800E+02  0.7818608E-02  0.1180000E+00
       11   -1    0    0    0    0  0.00000000000E+00  0.00000000000E+00  0.39999999673E+01  0.40000000000E+01  0.51109989000E-03 0.  1.
     -623   -1    0    0    0    0  0.00000000000E+00  0.00000000000E+00  0.12525980253E-10  0.17130000000E+03  0.17130000000E+03 0. -1.
       11    1    1    2    0    0 -0.78131397697E-02  0.51855442419E-02  0.45885915081E+00  0.45895524458E+00  0.51109989000E-03 0.  1.
     -623    1    1    2    0    0  0.10464747997E-02  0.10543848514E-02  0.33396111487E-03  0.17130000001E+03  0.17130000000E+03 0. -1.
      622    1    1    2    0    0  0.67666649697E-02 -0.62399290935E-02  0.35408068564E+01  0.35410447496E+01  0.40000000000E-01 0.  1.
</event>
<event>
 5   0  0.7212170E+07  0.9118800E+02  0.7818608E-02  0.1180000E+00
       11   -1    0    0    0    0  0.00000000000E+00  0.00000000000E+00  0.39999999673E+01  0.40000000000E+01  0.51109989000E-03 0.  1.
     -623   -1    0    0    0    0  0.00000000000E+00  0.00000000000E+00  0.12525980253E-10  0.17130000000E+03  0.17130000000E+03 0.  1.
       11    1    1    2    0    0 -0.17625829844E-02  0.13645165510E-03  0.71647808322E-03  0.19748118321E-02  0.51109989000E-03 0.  1.
     -623    1    1    2    0    0  0.35315900324E-02 -0.24467863002E-02  0.14595239605E-02  0.17130000006E+03  0.17130000000E+03 0.  1.
      622    1    1    2    0    0 -0.17690070479E-02  0.23103346449E-02  0.39978239651E+01  0.39980251278E+01  0.40000000000E-01 0.  1.
</event>
<event>
 5   0  0.7212170E+07  0.9118800E+02  0.7818608E-02  0.1180000E+00
       11   -1    0    0    0    0  0.00000000000E+00  0.00000000000E+00  0.39999999673E+01  0.40000000000E+01  0.51109989000E-03 0.  1.
     -623   -1    0    0    0    0  0.00000000000E+00  0.00000000000E+00  0.12525980253E-10  0.17130000000E+03  0.17130000000E+03 0. -1.
       11    1    1    2    0    0  0.94393683793E-03  0.67629160236E-03  0.40793965658E-02  0.42721290388E-02  0.51109989000E-03 0.  1.
     -623    1    1    2    0    0 -0.91712628983E-03 -0.62462681261E-03  0.39292315256E-03  0.17130000000E+03  0.17130000000E+03 0. -1.
      622    1    1    2    0    0 -0.26810547783E-04 -0.51664789532E-04  0.39955276490E+01  0.39957278683E+01  0.40000000000E-01 0.  1.
</event>
<event>
 5   0  0.7212170E+07  0.9118800E+02  0.7818608E-02  0.1180000E+00
       11   -1    0    0    0    0  0.00000000000E+00  0.00000000000E+00  0.39999999673E+01  0.40000000000E+01  0.51109989000E-03 0. -1.
     -623   -1    0    0    0    0  0.00000000000E+00  0.00000000000E+00  0.12525980253E-10  0.17130000000E+03  0.17130000000E+03 0. -1.
       11    1    1    2    0    0  0.18255951778E-01 -0.75027076546E-02  0.12812065233E+00  0.12963307130E+00  0.51109989000E-03 0. -1.
     -623    1    1    2    0    0 -0.16773789678E-01  0.31879331315E-02  0.17226392646E-02  0.17130000086E+03  0.17130000000E+03 0. -1.
      622    1    1    2    0    0 -0.14821620989E-02  0.43147745230E-02  0.38701566759E+01  0.38703660693E+01  0.40000000000E-01 0. -1.
</event>
<event>
 5   0  0.7212170E+07  0.9118800E+02  0.7818608E-02  0.1180000E+00
       11   -1    0    0    0    0  0.00000000000E+00  0.00000000000E+00  0.39999999673E+01  0.40000000000E+01  0.51109989000E-03 0.  1.
     -623   -1    0    0    0    0  0.00000000000E+00  0.00000000000E+00  0.12525980253E-10  0.17130000000E+03  0.17130000000E+03 0.  1.
       11    1    1    2    0    0  0.43804007036E-01  0.13764387592E-01  0.22876670476E+01  0.22881278442E+01  0.51109989000E-03 0.  1.
     -623    1    1    2    0    0 -0.26965658957E-01  0.98566063431E-02  0.11764262820E-02  0.17130000241E+03  0.17130000000E+03 0.  1.
      622    1    1    2    0    0 -0.16838348077E-01 -0.23620993936E-01  0.17111564938E+01  0.17118697461E+01  0.40000000000E-01 0.  1.
</event>
<event>
 5   0  0.7212170E+07  0.9118800E+02  0.7818608E-02  0.1180000E+00
       11   -1    0    0    0    0  0.00000000000E+00  0.00000000000E+00  0.39999999673E+01  0.40000000000E+01  0.51109989000E-03 0. -1.
     -623   -1    0    0    0    0  0.00000000000E+00  0.00000000000E+00  0.12525980253E-10  0.17130000000E+03  0.17130000000E+03 0. -1.
       11    1    1    2    0    0  0.80843789240E-03 -0.61269039461E-03  0.36092560108E-02  0.37837697333E-02  0.51109989000E-03 0. -1.
     -623    1    1    2    0    0 -0.54208165010E-03  0.33655887407E-03  0.37469548033E-03  0.17130000000E+03  0.17130000000E+03 0. -1.
      622    1    1    2    0    0 -0.26635624233E-03  0.27613152057E-03  0.39960160156E+01  0.39962162284E+01  0.40000000000E-01 0. -1.
</event>
<event>
 5   0  0.7212170E+07  0.9118800E+02  0.7818608E-02  0.1180000E+00
       11   -1    0    0    0    0  0.00000000000E+00  0.00000000000E+00  0.39999999673E+01  0.40000000000E+01  0.51109989000E-03 0. -1.
     -623   -1    0    0    0    0  0.00000000000E+00  0.00000000000E+00  0.12525980253E-10  0.17130000000E+03  0.17130000000E+03 0.  1.
       11    1    1    2    0    0 -0.45565140564E-02 -0.44826599485E-03  0.19035745121E-01  0.19585289841E-01  0.51109989000E-03 0. -1.
     -623    1    1    2    0    0 -0.19319455492E-02  0.42957444373E-03  0.75580305992E-03  0.17130000001E+03  0.17130000000E+03 0.  1.
      622    1    1    2    0    0  0.64884596058E-02  0.18691551092E-04  0.39802084195E+01  0.39804146974E+01  0.40000000000E-01 0. -1.
</event>
<event>
 5   0  0.7212170E+07  0.9118800E+02  0.7818608E-02  0.1180000E+00
       11   -1    0    0    0    0  0.00000000000E+00  0.00000000000E+00  0.39999999673E+01  0.40000000000E+01  0.51109989000E-03 0. -1.
     -623   -1    0    0    0    0  0.00000000000E+00  0.00000000000E+00  0.12525980253E-10  0.17130000000E+03  0.17130000000E+03 0. -1.
       11    1    1    2    0    0 -0.92759112082E-03  0.10040378729E-02  0.85334233499E-02  0.86573121986E-02  0.51109989000E-03 0. -1.
     -623    1    1    2    0    0  0.14717489335E-02 -0.87922694462E-03  0.32434297948E-03  0.17130000001E+03  0.17130000000E+03 0. -1.
      622    1    1    2    0    0 -0.54415781234E-03 -0.12481092846E-03  0.39911422001E+01  0.39913426780E+01  0.40000000000E-01 0. -1.
</event>
<event>
 5   0  0.7212170E+07  0.9118800E+02  0.7818608E-02  0.1180000E+00
       11   -1    0    0    0    0  0.00000000000E+00  0.00000000000E+00  0.39999999673E+01  0.40000000000E+01  0.51109989000E-03 0. -1.
     -623   -1    0    0    0    0  0.00000000000E+00  0.00000000000E+00  0.12525980253E-10  0.17130000000E+03  0.17130000000E+03 0. -1.
       11    1    1    2    0    0  0.83574681077E-03  0.14762555835E-02  0.12877637105E-01  0.12998944718E-01  0.51109989000E-03 0. -1.
     -623    1    1    2    0    0  0.41449679548E-03 -0.93717048215E-03  0.32216793914E-03  0.17130000000E+03  0.17130000000E+03 0. -1.
      622    1    1    2    0    0 -0.12502436063E-02 -0.53908510122E-03  0.39868001630E+01  0.39870010526E+01  0.40000000000E-01 0. -1.
</event>
<event>
 5   0  0.7212170E+07  0.9118800E+02  0.7818608E-02  0.1180000E+00
       11   -1    0    0    0    0  0.00000000000E+00  0.00000000000E+00  0.39999999673E+01  0.40000000000E+01  0.51109989000E-03 0.  1.
     -623   -1    0    0    0    0  0.00000000000E+00  0.00000000000E+00  0.12525980253E-10  0.17130000000E+03  0.17130000000E+03 0. -1.
       11    1    1    2    0    0 -0.10079428181E-02  0.76930541884E-03  0.18395093350E-01  0.18445825057E-01  0.51109989000E-03 0.  1.
     -623    1    1    2    0    0  0.36309482491E-03 -0.81214222772E-03  0.25168564780E-03  0.17130000000E+03  0.17130000000E+03 0. -1.
      622    1    1    2    0    0  0.64484799324E-03  0.42836808871E-04  0.39813531883E+01  0.39815541724E+01  0.40000000000E-01 0.  1.
</event>
<event>
 5   0  0.7212170E+07  0.9118800E+02  0.7818608E-02  0.1180000E+00
       11   -1    0    0    0    0  0.00000000000E+00  0.00000000000E+00  0.39999999673E+01  0.40000000000E+01  0.51109989000E-03 0.  1.
     -623   -1    0    0    0    0  0.00000000000E+00  0.00000000000E+00  0.12525980253E-10  0.17130000000E+03  0.17130000000E+03 0.  1.
       11    1    1    2    0    0 -0.45487418187E-02  0.78933374355E-02  0.79720220879E-01  0.80240704559E-01  0.51109989000E-03 0.  1.
     -623    1    1    2    0    0 -0.13947867176E-02 -0.11667581423E-02  0.73484001856E-03  0.17130000001E+03  0.17130000000E+03 0.  1.
      622    1    1    2    0    0  0.59435285364E-02 -0.67265792932E-02  0.39195449068E+01  0.39197592845E+01  0.40000000000E-01 0.  1.
</event>
<event>
 5   0  0.7212170E+07  0.9118800E+02  0.7818608E-02  0.1180000E+00
       11   -1    0    0    0    0  0.00000000000E+00  0.00000000000E+00  0.39999999673E+01  0.40000000000E+01  0.51109989000E-03 0. -1.
     -623   -1    0    0    0    0  0.00000000000E+00  0.00000000000E+00  0.12525980253E-10  0.17130000000E+03  0.17130000000E+03 0.  1.
       11    1    1    2    0    0  0.10402219644E-01  0.11511687367E-02  0.20297255632E+00  0.20324283801E+00  0.51109989000E-03 0. -1.
     -623    1    1    2    0    0 -0.84993524801E-03  0.35807831509E-03  0.49328122360E-03  0.17130000000E+03  0.17130000000E+03 0.  1.
      622    1    1    2    0    0 -0.95522843962E-02 -0.15092470518E-02  0.37965341299E+01  0.37967571589E+01  0.40000000000E-01 0.  0.
</event>
<event>
 5   0  0.7212170E+07  0.9118800E+02  0.7818608E-02  0.1180000E+00
       11   -1    0    0    0    0  0.00000000000E+00  0.00000000000E+00  0.39999999673E+01  0.40000000000E+01  0.51109989000E-03 0. -1.
     -623   -1    0    0    0    0  0.00000000000E+00  0.00000000000E+00  0.12525980253E-10  0.17130000000E+03  0.17130000000E+03 0.  1.
       11    1    1    2    0    0  0.20608488694E-02 -0.14171762076E-01  0.25993381101E+01  0.25993776097E+01  0.51109989000E-03 0. -1.
     -623    1    1    2    0    0 -0.45536906605E-02  0.45132333446E-03  0.68027147760E-03  0.17130000006E+03  0.17130000000E+03 0.  1.
      622    1    1    2    0    0  0.24928417908E-02  0.13720438741E-01  0.13999815856E+01  0.14006223276E+01  0.40000000000E-01 0. -1.
</event>
<event>
 5   0  0.7212170E+07  0.9118800E+02  0.7818608E-02  0.1180000E+00
       11   -1    0    0    0    0  0.00000000000E+00  0.00000000000E+00  0.39999999673E+01  0.40000000000E+01  0.51109989000E-03 0.  1.
     -623   -1    0    0    0    0  0.00000000000E+00  0.00000000000E+00  0.12525980253E-10  0.17130000000E+03  0.17130000000E+03 0. -1.
       11    1    1    2    0    0  0.19325042630E-01  0.85693358166E-02  0.99871903607E+00  0.99894287375E+00  0.51109989000E-03 0.  1.
     -623    1    1    2    0    0 -0.42838903745E-02 -0.22272730607E-01  0.56087806728E-03  0.17130000150E+03  0.17130000000E+03 0. -1.
      622    1    1    2    0    0 -0.15041152255E-01  0.13703394792E-01  0.30007200536E+01  0.30010556241E+01  0.40000000000E-01 0.  1.
</event>
<event>
 5   0  0.7212170E+07  0.9118800E+02  0.7818608E-02  0.1180000E+00
       11   -1    0    0    0    0  0.00000000000E+00  0.00000000000E+00  0.39999999673E+01  0.40000000000E+01  0.51109989000E-03 0. -1.
     -623   -1    0    0    0    0  0.00000000000E+00  0.00000000000E+00  0.12525980253E-10  0.17130000000E+03  0.17130000000E+03 0.  1.
       11    1    1    2    0    0  0.93912891962E-03 -0.10208264897E-01  0.14886110765E+01  0.14886464620E+01  0.51109989000E-03 0. -1.
     -623    1    1    2    0    0 -0.10892901922E-02  0.38571421163E-02  0.36201009998E-03  0.17130000005E+03  0.17130000000E+03 0.  1.
      622    1    1    2    0    0  0.15016127286E-03  0.63511227794E-02  0.25110268819E+01  0.25113534918E+01  0.40000000000E-01 0.  1.
</event>
<event>
 5   0  0.7212170E+07  0.9118800E+02  0.7818608E-02  0.1180000E+00
       11   -1    0    0    0    0  0.00000000000E+00  0.00000000000E+00  0.39999999673E+01  0.40000000000E+01  0.51109989000E-03 0.  1.
     -623   -1    0    0    0    0  0.00000000000E+00  0.00000000000E+00  0.12525980253E-10  0.17130000000E+03  0.17130000000E+03 0.  1.
       11    1    1    2    0    0  0.19553547235E-02  0.30969381467E-03  0.74046484086E-02  0.76817552360E-02  0.51109989000E-03 0.  1.
     -623    1    1    2    0    0 -0.17086217696E-02  0.55825107532E-03  0.47757611696E-03  0.17130000001E+03  0.17130000000E+03 0.  1.
      622    1    1    2    0    0 -0.24673295360E-03 -0.86794489005E-03  0.39921177433E+01  0.39923182352E+01  0.40000000000E-01 0.  1.
</event>
<event>
 5   0  0.7212170E+07  0.9118800E+02  0.7818608E-02  0.1180000E+00
       11   -1    0    0    0    0  0.00000000000E+00  0.00000000000E+00  0.39999999673E+01  0.40000000000E+01  0.51109989000E-03 0. -1.
     -623   -1    0    0    0    0  0.00000000000E+00  0.00000000000E+00  0.12525980253E-10  0.17130000000E+03  0.17130000000E+03 0. -1.
       11    1    1    2    0    0 -0.31995967202E-02 -0.17314488899E-01  0.80000832352E+00  0.80020222936E+00  0.51109989000E-03 0. -1.
     -623    1    1    2    0    0  0.11251902974E-02 -0.17807191130E-03  0.49239373996E-03  0.17130000000E+03  0.17130000000E+03 0. -1.
      622    1    1    2    0    0  0.20744064228E-02  0.17492560810E-01  0.31994992502E+01  0.31997977662E+01  0.40000000000E-01 0. -1.
</event>
<event>
 5   0  0.7212170E+07  0.9118800E+02  0.7818608E-02  0.1180000E+00
       11   -1    0    0    0    0  0.00000000000E+00  0.00000000000E+00  0.39999999673E+01  0.40000000000E+01  0.51109989000E-03 0. -1.
     -623   -1    0    0    0    0  0.00000000000E+00  0.00000000000E+00  0.12525980253E-10  0.17130000000E+03  0.17130000000E+03 0.  1.
       11    1    1    2    0    0 -0.32704450294E-02 -0.68015553932E-02  0.52864354065E+00  0.52869765581E+00  0.51109989000E-03 0. -1.
     -623    1    1    2    0    0  0.77387441394E-03  0.41554892311E-02  0.28651002583E-03  0.17130000005E+03  0.17130000000E+03 0.  1.
      622    1    1    2    0    0  0.24965706157E-02  0.26460661631E-02  0.34710699158E+01  0.34713022909E+01  0.40000000000E-01 0. -1.
</event>
<event>
 5   0  0.7212170E+07  0.9118800E+02  0.7818608E-02  0.1180000E+00
       11   -1    0    0    0    0  0.00000000000E+00  0.00000000000E+00  0.39999999673E+01  0.40000000000E+01  0.51109989000E-03 0.  1.
     -623   -1    0    0    0    0  0.00000000000E+00  0.00000000000E+00  0.12525980253E-10  0.17130000000E+03  0.17130000000E+03 0. -1.
       11    1    1    2    0    0  0.15121069349E-02  0.37132190204E-02  0.26589842669E-01  0.26895267597E-01  0.51109989000E-03 0.  1.
     -623    1    1    2    0    0  0.66916693403E-03 -0.21398220404E-02  0.50767704102E-03  0.17130000002E+03  0.17130000000E+03 0. -1.
      622    1    1    2    0    0 -0.21812738690E-02 -0.15733969798E-02  0.39729024481E+01  0.39731047174E+01  0.40000000000E-01 0.  1.
</event>
<event>
 5   0  0.7212170E+07  0.9118800E+02  0.7818608E-02  0.1180000E+00
       11   -1    0    0    0    0  0.00000000000E+00  0.00000000000E+00  0.39999999673E+01  0.40000000000E+01  0.51109989000E-03 0. -1.
     -623   -1    0    0    0    0  0.00000000000E+00  0.00000000000E+00  0.12525980253E-10  0.17130000000E+03  0.17130000000E+03 0. -1.
       11    1    1    2    0    0  0.78834610841E-03 -0.15477390389E-03  0.18181119348E-01  0.18206036592E-01  0.51109989000E-03 0. -1.
     -623    1    1    2    0    0 -0.10929283170E-03  0.99000104304E-04  0.22586264565E-03  0.17130000000E+03  0.17130000000E+03 0. -1.
      622    1    1    2    0    0 -0.67905327668E-03  0.55773799553E-04  0.39815929867E+01  0.39817939646E+01  0.40000000000E-01 0. -1.
</event>
<event>
 5   0  0.7212170E+07  0.9118800E+02  0.7818608E-02  0.1180000E+00
       11   -1    0    0    0    0  0.00000000000E+00  0.00000000000E+00  0.39999999673E+01  0.40000000000E+01  0.51109989000E-03 0.  1.
     -623   -1    0    0    0    0  0.00000000000E+00  0.00000000000E+00  0.12525980253E-10  0.17130000000E+03  0.17130000000E+03 0. -1.
       11    1    1    2    0    0  0.71794016328E-02  0.82259246970E-02  0.25774624926E-01  0.27996466886E-01  0.51109989000E-03 0.  1.
     -623    1    1    2    0    0 -0.24556144058E-01 -0.27591823815E-01  0.25124504178E-02  0.17130000400E+03  0.17130000000E+03 0. -1.
      622    1    1    2    0    0  0.17376742426E-01  0.19365899118E-01  0.39717128920E+01  0.39719995325E+01  0.40000000000E-01 0.  1.
</event>
<event>
 5   0  0.7212170E+07  0.9118800E+02  0.7818608E-02  0.1180000E+00
       11   -1    0    0    0    0  0.00000000000E+00  0.00000000000E+00  0.39999999673E+01  0.40000000000E+01  0.51109989000E-03 0.  1.
     -623   -1    0    0    0    0  0.00000000000E+00  0.00000000000E+00  0.12525980253E-10  0.17130000000E+03  0.17130000000E+03 0. -1.
       11    1    1    2    0    0  0.17020894015E-01  0.99944893920E-02  0.14103476697E+01  0.14104858777E+01  0.51109989000E-03 0.  1.
     -623    1    1    2    0    0  0.21628500523E-02  0.11616352397E-02  0.54225390442E-03  0.17130000002E+03  0.17130000000E+03 0. -1.
      622    1    1    2    0    0 -0.19183744068E-01 -0.11156124632E-01  0.25891100445E+01  0.25895141045E+01  0.40000000000E-01 0.  0.
</event>
<event>
 5   0  0.7212170E+07  0.9118800E+02  0.7818608E-02  0.1180000E+00
       11   -1    0    0    0    0  0.00000000000E+00  0.00000000000E+00  0.39999999673E+01  0.40000000000E+01  0.51109989000E-03 0. -1.
     -623   -1    0    0    0    0  0.00000000000E+00  0.00000000000E+00  0.12525980253E-10  0.17130000000E+03  0.17130000000E+03 0.  1.
       11    1    1    2    0    0 -0.14477511517E-01  0.86811737166E-02  0.31204124618E+00  0.31249793865E+00  0.51109989000E-03 0. -1.
     -623    1    1    2    0    0  0.53993744073E-03  0.71500870359E-03  0.71193257333E-03  0.17130000000E+03  0.17130000000E+03 0.  1.
      622    1    1    2    0    0  0.13937574077E-01 -0.93961824202E-02  0.36872467887E+01  0.36875020577E+01  0.40000000000E-01 0. -1.
</event>
<event>
 5   0  0.7212170E+07  0.9118800E+02  0.7818608E-02  0.1180000E+00
       11   -1    0    0    0    0  0.00000000000E+00  0.00000000000E+00  0.39999999673E+01  0.40000000000E+01  0.51109989000E-03 0.  1.
     -623   -1    0    0    0    0  0.00000000000E+00  0.00000000000E+00  0.12525980253E-10  0.17130000000E+03  0.17130000000E+03 0.  1.
       11    1    1    2    0    0 -0.57539342587E-02 -0.30950310328E-01  0.30929881005E+00  0.31089716079E+00  0.51109989000E-03 0.  1.
     -623    1    1    2    0    0  0.37423670365E-01 -0.26833808304E-01  0.24099556949E-02  0.17130000621E+03  0.17130000000E+03 0.  1.
      622    1    1    2    0    0 -0.31669736109E-01  0.57784118634E-01  0.36882912019E+01  0.36890966329E+01  0.40000000000E-01 0.  1.
</event>
<event>
 5   0  0.7212170E+07  0.9118800E+02  0.7818608E-02  0.1180000E+00
       11   -1    0    0    0    0  0.00000000000E+00  0.00000000000E+00  0.39999999673E+01  0.40000000000E+01  0.51109989000E-03 0.  1.
     -623   -1    0    0    0    0  0.00000000000E+00  0.00000000000E+00  0.12525980253E-10  0.17130000000E+03  0.17130000000E+03 0.  1.
       11    1    1    2    0    0  0.22193109759E-01  0.66428127741E-02  0.64417007616E+00  0.64458669651E+00  0.51109989000E-03 0.  1.
     -623    1    1    2    0    0 -0.58904001857E-02  0.10058076009E-02  0.70344822976E-03  0.17130000011E+03  0.17130000000E+03 0.  1.
      622    1    1    2    0    0 -0.16302709573E-01 -0.76486203751E-02  0.33551264435E+01  0.33554131984E+01  0.40000000000E-01 0.  0.
</event>
<event>
 5   0  0.7212170E+07  0.9118800E+02  0.7818608E-02  0.1180000E+00
       11   -1    0    0    0    0  0.00000000000E+00  0.00000000000E+00  0.39999999673E+01  0.40000000000E+01  0.51109989000E-03 0.  1.
     -623   -1    0    0    0    0  0.00000000000E+00  0.00000000000E+00  0.12525980253E-10  0.17130000000E+03  0.17130000000E+03 0.  1.
       11    1    1    2    0    0  0.16855209035E-02  0.15157051885E-03  0.82979591759E-02  0.84841796256E-02  0.51109989000E-03 0.  1.
     -623    1    1    2    0    0 -0.63177702652E-04 -0.53230095642E-03  0.38696710262E-03  0.17130000000E+03  0.17130000000E+03 0.  1.
      622    1    1    2    0    0 -0.16223432008E-02  0.38073043775E-03  0.39913150424E+01  0.39915158204E+01  0.40000000000E-01 0.  1.
</event>
<event>
 5   0  0.7212170E+07  0.9118800E+02  0.7818608E-02  0.1180000E+00
       11   -1    0    0    0    0  0.00000000000E+00  0.00000000000E+00  0.39999999673E+01  0.40000000000E+01  0.51109989000E-03 0. -1.
     -623   -1    0    0    0    0  0.00000000000E+00  0.00000000000E+00  0.12525980253E-10  0.17130000000E+03  0.17130000000E+03 0. -1.
       11    1    1    2    0    0 -0.12351060194E-01  0.28563369724E-01  0.95574576731E+00  0.95625239751E+00  0.51109989000E-03 0. -1.
     -623    1    1    2    0    0  0.11875053084E-02  0.57987049527E-03  0.92946090172E-03  0.17130000001E+03  0.17130000000E+03 0. -1.
      622    1    1    2    0    0  0.11163554885E-01 -0.29143240220E-01  0.30433247392E+01  0.30437475950E+01  0.40000000000E-01 0. -1.
</event>
<event>
 5   0  0.7212170E+07  0.9118800E+02  0.7818608E-02  0.1180000E+00
       11   -1    0    0    0    0  0.00000000000E+00  0.00000000000E+00  0.39999999673E+01  0.40000000000E+01  0.51109989000E-03 0.  1.
     -623   -1    0    0    0    0  0.00000000000E+00  0.00000000000E+00  0.12525980253E-10  0.17130000000E+03  0.17130000000E+03 0. -1.
       11    1    1    2    0    0  0.89378830634E-02 -0.25056707712E-02  0.73312760189E+00  0.73318654244E+00  0.51109989000E-03 0.  1.
     -623    1    1    2    0    0 -0.41970654064E-03 -0.12346098939E-02  0.31705702705E-03  0.17130000001E+03  0.17130000000E+03 0. -1.
      622    1    1    2    0    0 -0.85181765228E-02  0.37402806651E-02  0.32665553081E+01  0.32668134520E+01  0.40000000000E-01 0.  1.
</event>
<event>
 5   0  0.7212170E+07  0.9118800E+02  0.7818608E-02  0.1180000E+00
       11   -1    0    0    0    0  0.00000000000E+00  0.00000000000E+00  0.39999999673E+01  0.40000000000E+01  0.51109989000E-03 0. -1.
     -623   -1    0    0    0    0  0.00000000000E+00  0.00000000000E+00  0.12525980253E-10  0.17130000000E+03  0.17130000000E+03 0. -1.
       11    1    1    2    0    0 -0.43973199625E-02 -0.19541031978E-02  0.19052349598E-01  0.19657268133E-01  0.51109989000E-03 0. -1.
     -623    1    1    2    0    0  0.54097614196E-02 -0.45820814011E-02  0.81152295228E-03  0.17130000015E+03  0.17130000000E+03 0. -1.
      622    1    1    2    0    0 -0.10124414573E-02  0.65361845992E-02  0.39801360950E+01  0.39803425834E+01  0.40000000000E-01 0. -1.
</event>
<event>
 5   0  0.7212170E+07  0.9118800E+02  0.7818608E-02  0.1180000E+00
       11   -1    0    0    0    0  0.00000000000E+00  0.00000000000E+00  0.39999999673E+01  0.40000000000E+01  0.51109989000E-03 0.  1.
     -623   -1    0    0    0    0  0.00000000000E+00  0.00000000000E+00  0.12525980253E-10  0.17130000000E+03  0.17130000000E+03 0.  1.
       11    1    1    2    0    0 -0.14665409092E-01  0.65904370065E-02  0.20581446847E+01  0.20582075485E+01  0.51109989000E-03 0.  1.
     -623    1    1    2    0    0 -0.85464749387E-02 -0.13634932886E-01  0.62717432619E-03  0.17130000076E+03  0.17130000000E+03 0.  1.
      622    1    1    2    0    0  0.23211884032E-01  0.70444958816E-02  0.19412281089E+01  0.19417916951E+01  0.40000000000E-01 0.  0.
</event>
<event>
 5   0  0.7212170E+07  0.9118800E+02  0.7818608E-02  0.1180000E+00
       11   -1    0    0    0    0  0.00000000000E+00  0.00000000000E+00  0.39999999673E+01  0.40000000000E+01  0.51109989000E-03 0.  1.
     -623   -1    0    0    0    0  0.00000000000E+00  0.00000000000E+00  0.12525980253E-10  0.17130000000E+03  0.17130000000E+03 0. -1.
       11    1    1    2    0    0 -0.48972405599E-03  0.22362903885E-02  0.12625543149E-01  0.12841588191E-01  0.51109989000E-03 0.  1.
     -623    1    1    2    0    0  0.90348241451E-03 -0.66952337640E-03  0.41699511434E-03  0.17130000000E+03  0.17130000000E+03 0. -1.
      622    1    1    2    0    0 -0.41375835877E-03 -0.15667670119E-02  0.39869574302E+01  0.39871584087E+01  0.40000000000E-01 0.  1.
</event>
<event>
 5   0  0.7212170E+07  0.9118800E+02  0.7818608E-02  0.1180000E+00
       11   -1    0    0    0    0  0.00000000000E+00  0.00000000000E+00  0.39999999673E+01  0.40000000000E+01  0.51109989000E-03 0. -1.
     -623   -1    0    0    0    0  0.00000000000E+00  0.00000000000E+00  0.12525980253E-10  0.17130000000E+03  0.17130000000E+03 0. -1.
       11    1    1    2    0    0  0.17507154524E-02  0.28411977674E-01  0.16606024632E+01  0.16608465033E+01  0.51109989000E-03 0. -1.
     -623    1    1    2    0    0  0.43543067852E-02 -0.34524580899E-03  0.76247492411E-03  0.17130000006E+03  0.17130000000E+03 0. -1.
      622    1    1    2    0    0 -0.61050222379E-02 -0.28066731865E-01  0.23386350295E+01  0.23391534396E+01  0.40000000000E-01 0. -1.
</event>
<event>
 5   0  0.7212170E+07  0.9118800E+02  0.7818608E-02  0.1180000E+00
       11   -1    0    0    0    0  0.00000000000E+00  0.00000000000E+00  0.39999999673E+01  0.40000000000E+01  0.51109989000E-03 0. -1.
     -623   -1    0    0    0    0  0.00000000000E+00  0.00000000000E+00  0.12525980253E-10  0.17130000000E+03  0.17130000000E+03 0.  1.
       11    1    1    2    0    0 -0.19133253626E-01  0.61512958886E-02  0.24111885133E-01  0.31393694641E-01  0.51109989000E-03 0. -1.
     -623    1    1    2    0    0  0.25386567252E-02 -0.88246726438E-02  0.75193725491E-02  0.17130000041E+03  0.17130000000E+03 0.  1.
      622    1    1    2    0    0  0.16594596901E-01  0.26733767551E-02  0.39683687096E+01  0.39686058942E+01  0.40000000000E-01 0. -1.
</event>
<event>
 5   0  0.7212170E+07  0.9118800E+02  0.7818608E-02  0.1180000E+00
       11   -1    0    0    0    0  0.00000000000E+00  0.00000000000E+00  0.39999999673E+01  0.40000000000E+01  0.51109989000E-03 0. -1.
     -623   -1    0    0    0    0  0.00000000000E+00  0.00000000000E+00  0.12525980253E-10  0.17130000000E+03  0.17130000000E+03 0.  1.
       11    1    1    2    0    0  0.26889811607E-03  0.11447052912E-02  0.42228791739E-02  0.44132287518E-02  0.51109989000E-03 0. -1.
     -623    1    1    2    0    0  0.11668105420E-02 -0.20013528500E-02  0.39090876314E-03  0.17130000002E+03  0.17130000000E+03 0.  1.
      622    1    1    2    0    0 -0.14357086581E-02  0.85664755895E-03  0.39953861797E+01  0.39955867554E+01  0.40000000000E-01 0. -1.
</event>
<event>
 5   0  0.7212170E+07  0.9118800E+02  0.7818608E-02  0.1180000E+00
       11   -1    0    0    0    0  0.00000000000E+00  0.00000000000E+00  0.39999999673E+01  0.40000000000E+01  0.51109989000E-03 0.  1.
     -623   -1    0    0    0    0  0.00000000000E+00  0.00000000000E+00  0.12525980253E-10  0.17130000000E+03  0.17130000000E+03 0.  1.
       11    1    1    2    0    0 -0.34488044097E-02  0.12855481888E-02  0.95608669672E-01  0.95680854018E-01  0.51109989000E-03 0.  1.
     -623    1    1    2    0    0  0.19110717149E-03 -0.39894461268E-03  0.27851898905E-03  0.17130000000E+03  0.17130000000E+03 0.  1.
      622    1    1    2    0    0  0.32576972382E-02 -0.88660357604E-03  0.39041127792E+01  0.39043191457E+01  0.40000000000E-01 0.  1.
</event>
<event>
 5   0  0.7212170E+07  0.9118800E+02  0.7818608E-02  0.1180000E+00
       11   -1    0    0    0    0  0.00000000000E+00  0.00000000000E+00  0.39999999673E+01  0.40000000000E+01  0.51109989000E-03 0.  1.
     -623   -1    0    0    0    0  0.00000000000E+00  0.00000000000E+00  0.12525980253E-10  0.17130000000E+03  0.17130000000E+03 0.  1.
       11    1    1    2    0    0 -0.10522132706E-01 -0.10951414091E-01  0.29147209171E-01  0.32870500039E-01  0.51109989000E-03 0.  1.
     -623    1    1    2    0    0 -0.51927119376E-01  0.96648642948E-03  0.44370036716E-02  0.17130000793E+03  0.17130000000E+03 0.  1.
      622    1    1    2    0    0  0.62449252082E-01  0.99849276615E-02  0.39664157545E+01  0.39671215693E+01  0.40000000000E-01 0.  1.
</event>
<event>
 5   0  0.7212170E+07  0.9118800E+02  0.7818608E-02  0.1180000E+00
       11   -1    0    0    0    0  0.00000000000E+00  0.00000000000E+00  0.39999999673E+01  0.40000000000E+01  0.51109989000E-03 0. -1.
     -623   -1    0    0    0    0  0.00000000000E+00  0.00000000000E+00  0.12525980253E-10  0.17130000000E+03  0.17130000000E+03 0.  1.
       11    1    1    2    0    0  0.17300566279E-02  0.15339300979E-03  0.45602459703E-02  0.49064948546E-02  0.51109989000E-03 0. -1.
     -623    1    1    2    0    0  0.25952662913E-02 -0.27801689028E-03  0.54883114066E-03  0.17130000002E+03  0.17130000000E+03 0.  1.
      622    1    1    2    0    0 -0.43253229194E-02  0.12462388052E-03  0.39948908907E+01  0.39950934848E+01  0.40000000000E-01 0. -1.
</event>
<event>
 5   0  0.7212170E+07  0.9118800E+02  0.7818608E-02  0.1180000E+00
       11   -1    0    0    0    0  0.00000000000E+00  0.00000000000E+00  0.39999999673E+01  0.40000000000E+01  0.51109989000E-03 0.  1.
     -623   -1    0    0    0    0  0.00000000000E+00  0.00000000000E+00  0.12525980253E-10  0.17130000000E+03  0.17130000000E+03 0. -1.
       11    1    1    2    0    0 -0.23231406312E-01 -0.54058980175E-02  0.28106198928E+01  0.28107211468E+01  0.51109989000E-03 0.  1.
     -623    1    1    2    0    0  0.15543932907E-02 -0.97600103468E-03  0.98891884050E-03  0.17130000001E+03  0.17130000000E+03 0. -1.
      622    1    1    2    0    0  0.21677013021E-01  0.63818990522E-02  0.11883911558E+01  0.11892788407E+01  0.40000000000E-01 0.  0.
</event>
<event>
 5   0  0.7212170E+07  0.9118800E+02  0.7818608E-02  0.1180000E+00
       11   -1    0    0    0    0  0.00000000000E+00  0.00000000000E+00  0.39999999673E+01  0.40000000000E+01  0.51109989000E-03 0.  1.
     -623   -1    0    0    0    0  0.00000000000E+00  0.00000000000E+00  0.12525980253E-10  0.17130000000E+03  0.17130000000E+03 0.  1.
       11    1    1    2    0    0  0.13163332847E-02 -0.36417616905E-02  0.14712097565E+00  0.14717281631E+00  0.51109989000E-03 0.  1.
     -623    1    1    2    0    0 -0.43861598324E-03  0.39964598312E-02  0.25961703718E-03  0.17130000005E+03  0.17130000000E+03 0.  1.
      622    1    1    2    0    0 -0.87771730139E-03 -0.35469814099E-03  0.38526193751E+01  0.38528271367E+01  0.40000000000E-01 0.  1.
</event>
<event>
 5   0  0.7212170E+07  0.9118800E+02  0.7818608E-02  0.1180000E+00
       11   -1    0    0    0    0  0.00000000000E+00  0.00000000000E+00  0.39999999673E+01  0.40000000000E+01  0.51109989000E-03 0. -1.
     -623   -1    0    0    0    0  0.00000000000E+00  0.00000000000E+00  0.12525980253E-10  0.17130000000E+03  0.17130000000E+03 0. -1.
       11    1    1    2    0    0 -0.44613221068E-02 -0.73076241152E-02  0.56818330250E-01  0.57462062620E-01  0.51109989000E-03 0. -1.
     -623    1    1    2    0    0  0.30645850360E-02 -0.11719038687E-03  0.85388872588E-03  0.17130000003E+03  0.17130000000E+03 0. -1.
      622    1    1    2    0    0  0.13967370707E-02  0.74248145021E-02  0.39423277485E+01  0.39425379079E+01  0.40000000000E-01 0. -1.
</event>
<event>
 5   0  0.7212170E+07  0.9118800E+02  0.7818608E-02  0.1180000E+00
       11   -1    0    0    0    0  0.00000000000E+00  0.00000000000E+00  0.39999999673E+01  0.40000000000E+01  0.51109989000E-03 0.  1.
     -623   -1    0    0    0    0  0.00000000000E+00  0.00000000000E+00  0.12525980253E-10  0.17130000000E+03  0.17130000000E+03 0. -1.
       11    1    1    2    0    0  0.99128387451E-03  0.19411891202E-02  0.63933443382E+00  0.63933835358E+00  0.51109989000E-03 0.  1.
     -623    1    1    2    0    0 -0.60824288527E-03  0.27237515365E-02  0.24522658633E-03  0.17130000002E+03  0.17130000000E+03 0. -1.
      622    1    1    2    0    0 -0.38304098932E-03 -0.46649406563E-02  0.33604203063E+01  0.33606616229E+01  0.40000000000E-01 0.  1.
</event>
<event>
 5   0  0.7212170E+07  0.9118800E+02  0.7818608E-02  0.1180000E+00
       11   -1    0    0    0    0  0.00000000000E+00  0.00000000000E+00  0.39999999673E+01  0.40000000000E+01  0.51109989000E-03 0. -1.
     -623   -1    0    0    0    0  0.00000000000E+00  0.00000000000E+00  0.12525980253E-10  0.17130000000E+03  0.17130000000E+03 0. -1.
       11    1    1    2    0    0  0.10138682215E-02  0.19212242721E-03  0.17343341746E-01  0.17381529444E-01  0.51109989000E-03 0. -1.
     -623    1    1    2    0    0  0.37075245038E-03  0.33246519453E-03  0.23930914023E-03  0.17130000000E+03  0.17130000000E+03 0. -1.
      622    1    1    2    0    0 -0.13846206718E-02 -0.52458762168E-03  0.39824173157E+01  0.39826184689E+01  0.40000000000E-01 0. -1.
</event>
<event>
 5   0  0.7212170E+07  0.9118800E+02  0.7818608E-02  0.1180000E+00
       11   -1    0    0    0    0  0.00000000000E+00  0.00000000000E+00  0.39999999673E+01  0.40000000000E+01  0.51109989000E-03 0.  1.
     -623   -1    0    0    0    0  0.00000000000E+00  0.00000000000E+00  0.12525980253E-10  0.17130000000E+03  0.17130000000E+03 0.  1.
       11    1    1    2    0    0 -0.62960122839E-02 -0.56726838994E-02  0.90879683220E-01  0.91275391856E-01  0.51109989000E-03 0.  1.
     -623    1    1    2    0    0  0.44008874391E-02  0.21009212578E-02  0.60251363062E-03  0.17130000007E+03  0.17130000000E+03 0.  1.
      622    1    1    2    0    0  0.18951248440E-02  0.35717626413E-02  0.39085177712E+01  0.39087245384E+01  0.40000000000E-01 0.  1.
</event>
<event>
 5   0  0.7212170E+07  0.9118800E+02  0.7818608E-02  0.1180000E+00
       11   -1    0    0    0    0  0.00000000000E+00  0.00000000000E+00  0.39999999673E+01  0.40000000000E+01  0.51109989000E-03 0. -1.
     -623   -1    0    0    0    0  0.00000000000E+00  0.00000000000E+00  0.12525980253E-10  0.17130000000E+03  0.17130000000E+03 0. -1.
       11    1    1    2    0    0 -0.43804727849E-03 -0.62075002815E-03  0.16432725889E+00  0.16432981000E+00  0.51109989000E-03 0. -1.
     -623    1    1    2    0    0 -0.90021502819E-03 -0.71203934985E-03  0.21156165726E-03  0.17130000000E+03  0.17130000000E+03 0. -1.
      622    1    1    2    0    0  0.13382623067E-02  0.13327893780E-02  0.38354611469E+01  0.38356701861E+01  0.40000000000E-01 0. -1.
</event>
<event>
 5   0  0.7212170E+07  0.9118800E+02  0.7818608E-02  0.1180000E+00
       11   -1    0    0    0    0  0.00000000000E+00  0.00000000000E+00  0.39999999673E+01  0.40000000000E+01  0.51109989000E-03 0. -1.
     -623   -1    0    0    0    0  0.00000000000E+00  0.00000000000E+00  0.12525980253E-10  0.17130000000E+03  0.17130000000E+03 0. -1.
       11    1    1    2    0    0 -0.49301433794E-01 -0.79817571509E-02  0.10214298388E+01  0.10226502416E+01  0.51109989000E-03 0. -1.
     -623    1    1    2    0    0  0.30146193410E-01  0.25366255193E-02  0.15583614534E-02  0.17130000268E+03  0.17130000000E+03 0. -1.
      622    1    1    2    0    0  0.19155240385E-01  0.54451316317E-02  0.29770117669E+01  0.29773470797E+01  0.40000000000E-01 0.  0.
</event>
<event>
 5   0  0.7212170E+07  0.9118800E+02  0.7818608E-02  0.1180000E+00
       11   -1    0    0    0    0  0.00000000000E+00  0.00000000000E+00  0.39999999673E+01  0.40000000000E+01  0.51109989000E-03 0.  1.
     -623   -1    0    0    0    0  0.00000000000E+00  0.00000000000E+00  0.12525980253E-10  0.17130000000E+03  0.17130000000E+03 0. -1.
       11    1    1    2    0    0  0.17016952219E-01 -0.54486662158E-02  0.33947679309E+00  0.33994708249E+00  0.51109989000E-03 0.  1.
     -623    1    1    2    0    0  0.21628637358E-03  0.44535046660E-03  0.73283539073E-03  0.17130000000E+03  0.17130000000E+03 0. -1.
      622    1    1    2    0    0 -0.17233238592E-01  0.50033157491E-02  0.36597903395E+01  0.36600529158E+01  0.40000000000E-01 0.  1.
</event>
<event>
 5   0  0.7212170E+07  0.9118800E+02  0.7818608E-02  0.1180000E+00
       11   -1    0    0    0    0  0.00000000000E+00  0.00000000000E+00  0.39999999673E+01  0.40000000000E+01  0.51109989000E-03 0. -1.
     -623   -1    0    0    0    0  0.00000000000E+00  0.00000000000E+00  0.12525980253E-10  0.17130000000E+03  0.17130000000E+03 0.  1.
       11    1    1    2    0    0 -0.63469508432E-03 -0.16303443515E-02  0.29079834298E-02  0.34319748367E-02  0.51109989000E-03 0. -1.
     -623    1    1    2    0    0  0.86197596006E-03  0.20793322292E-02  0.72418353095E-03  0.17130000002E+03  0.17130000000E+03 0.  1.
      622    1    1    2    0    0 -0.22728087582E-03 -0.44898787786E-03  0.39963678008E+01  0.39965680092E+01  0.40000000000E-01 0. -1.
</event>
<event>
 5   0  0.7212170E+07  0.9118800E+02  0.7818608E-02  0.1180000E+00
       11   -1    0    0    0    0  0.00000000000E+00  0.00000000000E+00  0.39999999673E+01  0.40000000000E+01  0.51109989000E-03 0. -1.
     -623   -1    0    0    0    0  0.00000000000E+00  0.00000000000E+00  0.12525980253E-10  0.17130000000E+03  0.17130000000E+03 0.  1.
       11    1    1    2    0    0 -0.52745210729E-01 -0.16348749653E-01  0.52513556628E+00  0.52803121410E+00  0.51109989000E-03 0. -1.
     -623    1    1    2    0    0  0.21313752750E-01  0.30929532287E-01  0.33030957735E-02  0.17130000415E+03  0.17130000000E+03 0.  1.
      622    1    1    2    0    0  0.31431457979E-01 -0.14580782635E-01  0.34715613053E+01  0.34719646358E+01  0.40000000000E-01 0. -1.
</event>
<event>
 5   0  0.7212170E+07  0.9118800E+02  0.7818608E-02  0.1180000E+00
       11   -1    0    0    0    0  0.00000000000E+00  0.00000000000E+00  0.39999999673E+01  0.40000000000E+01  0.51109989000E-03 0.  1.
     -623   -1    0    0    0    0  0.00000000000E+00  0.00000000000E+00  0.12525980253E-10  0.17130000000E+03  0.17130000000E+03 0.  1.
       11    1    1    2    0    0  0.21546761572E-02  0.21632942551E-03  0.70311336677E-01  0.70346533078E-01  0.51109989000E-03 0.  1.
     -623    1    1    2    0    0  0.57962523578E-03  0.14531524669E-02  0.24006262099E-03  0.17130000001E+03  0.17130000000E+03 0.  1.
      622    1    1    2    0    0 -0.27343013931E-02 -0.16694818926E-02  0.39294485685E+01  0.39296534600E+01  0.40000000000E-01 0.  1.
</event>
<event>
 5   0  0.7212170E+07  0.9118800E+02  0.7818608E-02  0.1180000E+00
       11   -1    0    0    0    0  0.00000000000E+00  0.00000000000E+00  0.39999999673E+01  0.40000000000E+01  0.51109989000E-03 0. -1.
     -623   -1    0    0    0    0  0.00000000000E+00  0.00000000000E+00  0.12525980253E-10  0.17130000000E+03  0.17130000000E+03 0. -1.
       11    1    1    2    0    0  0.81449172043E-03  0.15933957865E-02  0.11013814381E-01  0.11169943474E-01  0.51109989000E-03 0. -1.
     -623    1    1    2    0    0 -0.13907184119E-02 -0.10624647286E-03  0.35698646976E-03  0.17130000001E+03  0.17130000000E+03 0. -1.
      622    1    1    2    0    0  0.57622669118E-03 -0.14871493137E-02  0.39886291658E+01  0.39888300498E+01  0.40000000000E-01 0. -1.
</event>
<event>
 5   0  0.7212170E+07  0.9118800E+02  0.7818608E-02  0.1180000E+00
       11   -1    0    0    0    0  0.00000000000E+00  0.00000000000E+00  0.39999999673E+01  0.40000000000E+01  0.51109989000E-03 0. -1.
     -623   -1    0    0    0    0  0.00000000000E+00  0.00000000000E+00  0.12525980253E-10  0.17130000000E+03  0.17130000000E+03 0. -1.
       11    1    1    2    0    0 -0.90432780719E-02  0.15660844072E-01  0.15257722108E+01  0.15258794655E+01  0.51109989000E-03 0. -1.
     -623    1    1    2    0    0 -0.68658689069E-02 -0.20767487445E-01  0.48841565570E-03  0.17130000140E+03  0.17130000000E+03 0. -1.
      622    1    1    2    0    0  0.15909146980E-01  0.51066433774E-02  0.24737393418E+01  0.24741191382E+01  0.40000000000E-01 0.  1.
</event>
<event>
 5   0  0.7212170E+07  0.9118800E+02  0.7818608E-02  0.1180000E+00
       11   -1    0    0    0    0  0.00000000000E+00  0.00000000000E+00  0.39999999673E+01  0.40000000000E+01  0.51109989000E-03 0.  1.
     -623   -1    0    0    0    0  0.00000000000E+00  0.00000000000E+00  0.12525980253E-10  0.17130000000E+03  0.17130000000E+03 0.  1.
       11    1    1    2    0    0  0.21153187916E-02 -0.28865392689E-02  0.11027464629E-01  0.11604864574E-01  0.51109989000E-03 0.  1.
     -623    1    1    2    0    0 -0.42287928308E-03 -0.85839296539E-03  0.78007608782E-03  0.17130000000E+03  0.17130000000E+03 0.  1.
      622    1    1    2    0    0 -0.16924395085E-02  0.37449322343E-02  0.39881924268E+01  0.39883951311E+01  0.40000000000E-01 0.  1.
</event>
<event>
 5   0  0.7212170E+07  0.9118800E+02  0.7818608E-02  0.1180000E+00
       11   -1    0    0    0    0  0.00000000000E+00  0.00000000000E+00  0.39999999673E+01  0.40000000000E+01  0.51109989000E-03 0.  1.
     -623   -1    0    0    0    0  0.00000000000E+00  0.00000000000E+00  0.12525980253E-10  0.17130000000E+03  0.17130000000E+03 0.  1.
       11    1    1    2    0    0 -0.48578821097E-02  0.64991206510E-02  0.14512382058E+00  0.14535137464E+00  0.51109989000E-03 0.  1.
     -623    1    1    2    0    0 -0.10350440059E-02 -0.10529398187E-02  0.44342794545E-03  0.17130000001E+03  0.17130000000E+03 0.  1.
      622    1    1    2    0    0  0.58929261156E-02 -0.54461808324E-02  0.38544327186E+01  0.38546486182E+01  0.40000000000E-01 0.  1.
</event>
<event>
 5   0  0.7212170E+07  0.9118800E+02  0.7818608E-02  0.1180000E+00
       11   -1    0    0    0    0  0.00000000000E+00  0.00000000000E+00  0.39999999673E+01  0.40000000000E+01  0.51109989000E-03 0. -1.
     -623   -1    0    0    0    0  0.00000000000E+00  0.00000000000E+00  0.12525980253E-10  0.17130000000E+03  0.17130000000E+03 0.  1.
       11    1    1    2    0    0 -0.20775281636E-02  0.26480899252E-02  0.17155217307E-01  0.17489745780E-01  0.51109989000E-03 0. -1.
     -623    1    1    2    0    0  0.49791608347E-03 -0.38676855424E-02  0.53592449004E-03  0.17130000005E+03  0.17130000000E+03 0.  1.
      622    1    1    2    0    0  0.15796120802E-02  0.12195956172E-02  0.39823088256E+01  0.39825102090E+01  0.40000000000E-01 0. -1.
</event>
<event>
 5   0  0.7212170E+07  0.9118800E+02  0.7818608E-02  0.1180000E+00
       11   -1    0    0    0    0  0.00000000000E+00  0.00000000000E+00  0.39999999673E+01  0.40000000000E+01  0.51109989000E-03 0. -1.
     -623   -1    0    0    0    0  0.00000000000E+00  0.00000000000E+00  0.12525980253E-10  0.17130000000E+03  0.17130000000E+03 0. -1.
       11    1    1    2    0    0 -0.55356049921E-02 -0.56949656571E-02  0.12962573047E+00  0.12986980704E+00  0.51109989000E-03 0. -1.
     -623    1    1    2    0    0  0.17796224123E-02 -0.31498502994E-02  0.46272992012E-03  0.17130000004E+03  0.17130000000E+03 0. -1.
      622    1    1    2    0    0  0.37559825796E-02  0.88448159570E-02  0.38699115076E+01  0.38701301547E+01  0.40000000000E-01 0. -1.
</event>
<event>
 5   0  0.7212170E+07  0.9118800E+02  0.7818608E-02  0.1180000E+00
       11   -1    0    0    0    0  0.00000000000E+00  0.00000000000E+00  0.39999999673E+01  0.40000000000E+01  0.51109989000E-03 0. -1.
     -623   -1    0    0    0    0  0.00000000000E+00  0.00000000000E+00  0.12525980253E-10  0.17130000000E+03  0.17130000000E+03 0.  1.
       11    1    1    2    0    0  0.10302842735E-03  0.25441650586E-03  0.68428816934E-02  0.68674300566E-02  0.51109989000E-03 0. -1.
     -623    1    1    2    0    0 -0.59407499556E-03 -0.74492238382E-03  0.22492783082E-03  0.17130000000E+03  0.17130000000E+03 0.  1.
      622    1    1    2    0    0  0.49104656823E-03  0.49050587798E-03  0.39929321579E+01  0.39931325672E+01  0.40000000000E-01 0. -1.
</event>
<event>
 5   0  0.7212170E+07  0.9118800E+02  0.7818608E-02  0.1180000E+00
       11   -1    0    0    0    0  0.00000000000E+00  0.00000000000E+00  0.39999999673E+01  0.40000000000E+01  0.51109989000E-03 0. -1.
     -623   -1    0    0    0    0  0.00000000000E+00  0.00000000000E+00  0.12525980253E-10  0.17130000000E+03  0.17130000000E+03 0. -1.
       11    1    1    2    0    0 -0.46777990000E-03 -0.25296683339E-02  0.23649616841E-01  0.23794613670E-01  0.51109989000E-03 0. -1.
     -623    1    1    2    0    0  0.52770133328E-03  0.26391764570E-02  0.34618958434E-03  0.17130000002E+03  0.17130000000E+03 0. -1.
      622    1    1    2    0    0 -0.59921433289E-04 -0.10950812314E-03  0.39760041610E+01  0.39762053649E+01  0.40000000000E-01 0. -1.
</event>
<event>
 5   0  0.7212170E+07  0.9118800E+02  0.7818608E-02  0.1180000E+00
       11   -1    0    0    0    0  0.00000000000E+00  0.00000000000E+00  0.39999999673E+01  0.40000000000E+01  0.51109989000E-03 0. -1.
     -623   -1    0    0    0    0  0.00000000000E+00  0.00000000000E+00  0.12525980253E-10  0.17130000000E+03  0.17130000000E+03 0.  1.
       11    1    1    2    0    0  0.39754853791E-01  0.16010596962E-01  0.15171025174E+01  0.15177078432E+01  0.51109989000E-03 0. -1.
     -623    1    1    2    0    0 -0.67198026557E-02 -0.16821212871E-01  0.11485491684E-02  0.17130000096E+03  0.17130000000E+03 0.  1.
      622    1    1    2    0    0 -0.33035051135E-01  0.81061591016E-03  0.24817489012E+01  0.24822911957E+01  0.40000000000E-01 0. -1.
</event>
<event>
 5   0  0.7212170E+07  0.9118800E+02  0.7818608E-02  0.1180000E+00
       11   -1    0    0    0    0  0.00000000000E+00  0.00000000000E+00  0.39999999673E+01  0.40000000000E+01  0.51109989000E-03 0.  1.
     -623   -1    0    0    0    0  0.00000000000E+00  0.00000000000E+00  0.12525980253E-10  0.17130000000E+03  0.17130000000E+03 0.  1.
       11    1    1    2    0    0 -0.63244304843E-02  0.28635225955E-01  0.35086354549E+00  0.35208729509E+00  0.51109989000E-03 0.  1.
     -623    1    1    2    0    0 -0.46863398987E-02  0.13526174076E-02  0.15829904828E-02  0.17130000008E+03  0.17130000000E+03 0.  1.
      622    1    1    2    0    0  0.11010770383E-01 -0.29987843362E-01  0.36475534316E+01  0.36479126284E+01  0.40000000000E-01 0.  1.
</event>
<event>
 5   0  0.7212170E+07  0.9118800E+02  0.7818608E-02  0.1180000E+00
       11   -1    0    0    0    0  0.00000000000E+00  0.00000000000E+00  0.39999999673E+01  0.40000000000E+01  0.51109989000E-03 0. -1.
     -623   -1    0    0    0    0  0.00000000000E+00  0.00000000000E+00  0.12525980253E-10  0.17130000000E+03  0.17130000000E+03 0.  1.
       11    1    1    2    0    0  0.32493730583E-02  0.67136391409E-02  0.26060081320E+00  0.26070802910E+00  0.51109989000E-03 0. -1.
     -623    1    1    2    0    0  0.10868195255E-02  0.74610748468E-03  0.33109475091E-03  0.17130000001E+03  0.17130000000E+03 0.  1.
      622    1    1    2    0    0 -0.43361925840E-02 -0.74597466257E-02  0.37390680601E+01  0.37392919662E+01  0.40000000000E-01 0. -1.
</event>
<event>
 5   0  0.7212170E+07  0.9118800E+02  0.7818608E-02  0.1180000E+00
       11   -1    0    0    0    0  0.00000000000E+00  0.00000000000E+00  0.39999999673E+01  0.40000000000E+01  0.51109989000E-03 0.  1.
     -623   -1    0    0    0    0  0.00000000000E+00  0.00000000000E+00  0.12525980253E-10  0.17130000000E+03  0.17130000000E+03 0.  1.
       11    1    1    2    0    0  0.41216417555E-02  0.24377346015E-03  0.60812468494E-01  0.60954613473E-01  0.51109989000E-03 0.  1.
     -623    1    1    2    0    0 -0.21480219955E-03  0.58983254534E-03  0.34723973016E-03  0.17130000000E+03  0.17130000000E+03 0.  1.
      622    1    1    2    0    0 -0.39068395559E-02 -0.83360600546E-03  0.39388402589E+01  0.39390453848E+01  0.40000000000E-01 0.  1.
</event>
<event>
 5   0  0.7212170E+07  0.9118800E+02  0.7818608E-02  0.1180000E+00
       11   -1    0    0    0    0  0.00000000000E+00  0.00000000000E+00  0.39999999673E+01  0.40000000000E+01  0.51109989000E-03 0. -1.
     -623   -1    0    0    0    0  0.00000000000E+00  0.00000000000E+00  0.12525980253E-10  0.17130000000E+03  0.17130000000E+03 0. -1.
       11    1    1    2    0    0 -0.80631355951E-03 -0.24574024441E-03  0.21485500072E-03  0.10089180308E-02  0.51109989000E-03 0. -1.
     -623    1    1    2    0    0 -0.19286749866E-03  0.20899707941E-03  0.99421397593E-03  0.17130000000E+03  0.17130000000E+03 0. -1.
      622    1    1    2    0    0  0.99918105816E-03  0.36743165002E-04  0.39987908983E+01  0.39989910788E+01  0.40000000000E-01 0. -1.
</event>
<event>
 5   0  0.7212170E+07  0.9118800E+02  0.7818608E-02  0.1180000E+00
       11   -1    0    0    0    0  0.00000000000E+00  0.00000000000E+00  0.39999999673E+01  0.40000000000E+01  0.51109989000E-03 0. -1.
     -623   -1    0    0    0    0  0.00000000000E+00  0.00000000000E+00  0.12525980253E-10  0.17130000000E+03  0.17130000000E+03 0.  1.
       11    1    1    2    0    0 -0.92858707810E-02  0.83663795203E-02  0.61667255052E-01  0.62923249051E-01  0.51109989000E-03 0. -1.
     -623    1    1    2    0    0  0.66071238637E-03  0.31724091786E-03  0.14781961145E-02  0.17130000001E+03  0.17130000000E+03 0.  1.
      622    1    1    2    0    0  0.86251583946E-02 -0.86836204382E-02  0.39368545164E+01  0.39370767432E+01  0.40000000000E-01 0. -1.
</event>
<event>
 5   0  0.7212170E+07  0.9118800E+02  0.7818608E-02  0.1180000E+00
       11   -1    0    0    0    0  0.00000000000E+00  0.00000000000E+00  0.39999999673E+01  0.40000000000E+01  0.51109989000E-03 0.  1.
     -623   -1    0    0    0    0  0.00000000000E+00  0.00000000000E+00  0.12525980253E-10  0.17130000000E+03  0.17130000000E+03 0. -1.
       11    1    1    2    0    0 -0.40039420466E-02 -0.27276429695E-02  0.15618665787E-02  0.51158809983E-02  0.51109989000E-03 0.  1.
     -623    1    1    2    0    0  0.25587030153E-02  0.78190354140E-02  0.37579877502E-02  0.17130000024E+03  0.17130000000E+03 0. -1.
      622    1    1    2    0    0  0.14452390314E-02 -0.50913924445E-02  0.39946801130E+01  0.39948838802E+01  0.40000000000E-01 0.  1.
</event>
<event>
 5   0  0.7212170E+07  0.9118800E+02  0.7818608E-02  0.1180000E+00
       11   -1    0    0    0    0  0.00000000000E+00  0.00000000000E+00  0.39999999673E+01  0.40000000000E+01  0.51109989000E-03 0.  1.
     -623   -1    0    0    0    0  0.00000000000E+00  0.00000000000E+00  0.12525980253E-10  0.17130000000E+03  0.17130000000E+03 0.  1.
       11    1    1    2    0    0  0.11805226087E-03 -0.25006476163E-03  0.25361351339E-02  0.26018595728E-02  0.51109989000E-03 0.  1.
     -623    1    1    2    0    0  0.12387875510E-03  0.17745224943E-03  0.26583531037E-03  0.17130000000E+03  0.17130000000E+03 0.  1.
      622    1    1    2    0    0 -0.24193101598E-03  0.72612512197E-04  0.39971979970E+01  0.39973981402E+01  0.40000000000E-01 0.  1.
</event>
<event>
 5   0  0.7212170E+07  0.9118800E+02  0.7818608E-02  0.1180000E+00
       11   -1    0    0    0    0  0.00000000000E+00  0.00000000000E+00  0.39999999673E+01  0.40000000000E+01  0.51109989000E-03 0. -1.
     -623   -1    0    0    0    0  0.00000000000E+00  0.00000000000E+00  0.12525980253E-10  0.17130000000E+03  0.17130000000E+03 0.  1.
       11    1    1    2    0    0  0.61765620820E-02 -0.32814797037E-02  0.73079923694E-01  0.73415628434E-01  0.51109989000E-03 0. -1.
     -623    1    1    2    0    0  0.32554909036E-03  0.79573154632E-03  0.54559045048E-03  0.17130000000E+03  0.17130000000E+03 0.  1.
      622    1    1    2    0    0 -0.65021111724E-02  0.24857481575E-02  0.39263744530E+01  0.39265843683E+01  0.40000000000E-01 0. -1.
</event>
<event>
 5   0  0.7212170E+07  0.9118800E+02  0.7818608E-02  0.1180000E+00
       11   -1    0    0    0    0  0.00000000000E+00  0.00000000000E+00  0.39999999673E+01  0.40000000000E+01  0.51109989000E-03 0. -1.
     -623   -1    0    0    0    0  0.00000000000E+00  0.00000000000E+00  0.12525980253E-10  0.17130000000E+03  0.17130000000E+03 0. -1.
       11    1    1    2    0    0  0.22074174242E-02 -0.11173463215E-01  0.36866464554E+00  0.36884088855E+00  0.51109989000E-03 0. -1.
     -623    1    1    2    0    0 -0.12098015118E-01  0.94114159323E-03  0.42485153721E-03  0.17130000043E+03  0.17130000000E+03 0. -1.
      622    1    1    2    0    0  0.98905976972E-02  0.10232321622E-01  0.36309104714E+01  0.36311586823E+01  0.40000000000E-01 0. -1.
</event>
<event>
 5   0  0.7212170E+07  0.9118800E+02  0.7818608E-02  0.1180000E+00
       11   -1    0    0    0    0  0.00000000000E+00  0.00000000000E+00  0.39999999673E+01  0.40000000000E+01  0.51109989000E-03 0.  1.
     -623   -1    0    0    0    0  0.00000000000E+00  0.00000000000E+00  0.12525980253E-10  0.17130000000E+03  0.17130000000E+03 0. -1.
       11    1    1    2    0    0 -0.38930452542E-01 -0.12221080113E-01  0.11178280597E+01  0.11185726472E+01  0.51109989000E-03 0.  1.
     -623    1    1    2    0    0  0.43427129953E-01  0.28452079424E-02  0.10465052234E-02  0.17130000553E+03  0.17130000000E+03 0. -1.
      622    1    1    2    0    0 -0.44966774121E-02  0.93758721704E-02  0.28811254026E+01  0.28814218214E+01  0.40000000000E-01 0.  1.
</event>
<event>
 5   0  0.7212170E+07  0.9118800E+02  0.7818608E-02  0.1180000E+00
       11   -1    0    0    0    0  0.00000000000E+00  0.00000000000E+00  0.39999999673E+01  0.40000000000E+01  0.51109989000E-03 0.  1.
     -623   -1    0    0    0    0  0.00000000000E+00  0.00000000000E+00  0.12525980253E-10  0.17130000000E+03  0.17130000000E+03 0.  1.
       11    1    1    2    0    0  0.10360527921E-01  0.87926876807E-02  0.21088409990E+00  0.21132206867E+00  0.51109989000E-03 0.  1.
     -623    1    1    2    0    0  0.19962626719E-02 -0.15716965726E-02  0.67615150347E-03  0.17130000002E+03  0.17130000000E+03 0.  1.
      622    1    1    2    0    0 -0.12356790593E-01 -0.72209911082E-02  0.37884397159E+01  0.37886779111E+01  0.40000000000E-01 0.  1.
</event>
<event>
 5   0  0.7212170E+07  0.9118800E+02  0.7818608E-02  0.1180000E+00
       11   -1    0    0    0    0  0.00000000000E+00  0.00000000000E+00  0.39999999673E+01  0.40000000000E+01  0.51109989000E-03 0. -1.
     -623   -1    0    0    0    0  0.00000000000E+00  0.00000000000E+00  0.12525980253E-10  0.17130000000E+03  0.17130000000E+03 0. -1.
       11    1    1    2    0    0  0.23579631007E-02 -0.21848049629E-01  0.65597253863E+00  0.65634071177E+00  0.51109989000E-03 0. -1.
     -623    1    1    2    0    0  0.28005719698E-02  0.84671245177E-02  0.63839726537E-03  0.17130000023E+03  0.17130000000E+03 0. -1.
      622    1    1    2    0    0 -0.51585350709E-02  0.13380925110E-01  0.33433890320E+01  0.33436590555E+01  0.40000000000E-01 0.  0.
</event>
<event>
 5   0  0.7212170E+07  0.9118800E+02  0.7818608E-02  0.1180000E+00
       11   -1    0    0    0    0  0.00000000000E+00  0.00000000000E+00  0.39999999673E+01  0.40000000000E+01  0.51109989000E-03 0. -1.
     -623   -1    0    0    0    0  0.00000000000E+00  0.00000000000E+00  0.12525980253E-10  0.17130000000E+03  0.17130000000E+03 0.  1.
       11    1    1    2    0    0  0.24038450911E-02  0.13665322081E-01  0.45627603677E+00  0.45648724237E+00  0.51109989000E-03 0. -1.
     -623    1    1    2    0    0  0.37274531371E-02  0.11350714949E-02  0.47320558043E-03  0.17130000004E+03  0.17130000000E+03 0.  1.
      622    1    1    2    0    0 -0.61312982283E-02 -0.14800393576E-01  0.35432507251E+01  0.35435127128E+01  0.40000000000E-01 0. -1.
</event>
<event>
 5   0  0.7212170E+07  0.9118800E+02  0.7818608E-02  0.1180000E+00
       11   -1    0    0    0    0  0.00000000000E+00  0.00000000000E+00  0.39999999673E+01  0.40000000000E+01  0.51109989000E-03 0.  1.
     -623   -1    0    0    0    0  0.00000000000E+00  0.00000000000E+00  0.12525980253E-10  0.17130000000E+03  0.17130000000E+03 0. -1.
       11    1    1    2    0    0 -0.18469314381E-03  0.73680119329E-03  0.31609335747E-02  0.32908527340E-02  0.51109989000E-03 0.  1.
     -623    1    1    2    0    0 -0.99779590331E-03 -0.87627822186E-03  0.33023904733E-03  0.17130000001E+03  0.17130000000E+03 0. -1.
      622    1    1    2    0    0  0.11824890473E-02  0.13947702869E-03  0.39965087953E+01  0.39967091423E+01  0.40000000000E-01 0.  1.
</event>
<event>
 5   0  0.7212170E+07  0.9118800E+02  0.7818608E-02  0.1180000E+00
       11   -1    0    0    0    0  0.00000000000E+00  0.00000000000E+00  0.39999999673E+01  0.40000000000E+01  0.51109989000E-03 0. -1.
     -623   -1    0    0    0    0  0.00000000000E+00  0.00000000000E+00  0.12525980253E-10  0.17130000000E+03  0.17130000000E+03 0. -1.
       11    1    1    2    0    0 -0.18763523573E-02 -0.34586814605E-01  0.11317479485E+01  0.11322779909E+01  0.51109989000E-03 0. -1.
     -623    1    1    2    0    0 -0.38865883264E-02  0.10424107624E-01  0.91695163862E-03  0.17130000036E+03  0.17130000000E+03 0. -1.
      622    1    1    2    0    0  0.57629406839E-02  0.24162706981E-01  0.28673350674E+01  0.28677216456E+01  0.40000000000E-01 0.  0.
</event>
<event>
 5   0  0.7212170E+07  0.9118800E+02  0.7818608E-02  0.1180000E+00
       11   -1    0    0    0    0  0.00000000000E+00  0.00000000000E+00  0.39999999673E+01  0.40000000000E+01  0.51109989000E-03 0.  1.
     -623   -1    0    0    0    0  0.00000000000E+00  0.00000000000E+00  0.12525980253E-10  0.17130000000E+03  0.17130000000E+03 0. -1.
       11    1    1    2    0    0 -0.54036617003E-02  0.32906965208E-02  0.23139917204E+00  0.23148621187E+00  0.51109989000E-03 0.  1.
     -623    1    1    2    0    0 -0.66676148396E-02  0.14106195994E-01  0.35950192075E-03  0.17130000071E+03  0.17130000000E+03 0. -1.
      622    1    1    2    0    0  0.12071276543E-01 -0.17396892521E-01  0.37682412950E+01  0.37685130788E+01  0.40000000000E-01 0.  1.
</event>
<event>
 5   0  0.7212170E+07  0.9118800E+02  0.7818608E-02  0.1180000E+00
       11   -1    0    0    0    0  0.00000000000E+00  0.00000000000E+00  0.39999999673E+01  0.40000000000E+01  0.51109989000E-03 0. -1.
     -623   -1    0    0    0    0  0.00000000000E+00  0.00000000000E+00  0.12525980253E-10  0.17130000000E+03  0.17130000000E+03 0.  1.
       11    1    1    2    0    0 -0.13275482911E-01  0.18280043542E-02  0.24628625247E-01  0.28043010735E-01  0.51109989000E-03 0. -1.
     -623    1    1    2    0    0  0.25063902958E-02 -0.34032375669E-02  0.36307727937E-02  0.17130000009E+03  0.17130000000E+03 0.  1.
      622    1    1    2    0    0  0.10769092615E-01  0.15752332128E-02  0.39717405694E+01  0.39719568987E+01  0.40000000000E-01 0. -1.
</event>
<event>
 5   0  0.7212170E+07  0.9118800E+02  0.7818608E-02  0.1180000E+00
       11   -1    0    0    0    0  0.00000000000E+00  0.00000000000E+00  0.39999999673E+01  0.40000000000E+01  0.51109989000E-03 0.  1.
     -623   -1    0    0    0    0  0.00000000000E+00  0.00000000000E+00  0.12525980253E-10  0.17130000000E+03  0.17130000000E+03 0.  1.
       11    1    1    2    0    0  0.85317654982E-03 -0.13965457328E-02  0.42330999458E-02  0.45671225578E-02  0.51109989000E-03 0.  1.
     -623    1    1    2    0    0  0.55493220206E-03  0.53986659541E-02  0.53656307434E-03  0.17130000009E+03  0.17130000000E+03 0.  1.
      622    1    1    2    0    0 -0.14081087518E-02 -0.40021202211E-02  0.39952303041E+01  0.39954327904E+01  0.40000000000E-01 0.  1.
</event>
<event>
 5   0  0.7212170E+07  0.9118800E+02  0.7818608E-02  0.1180000E+00
       11   -1    0    0    0    0  0.00000000000E+00  0.00000000000E+00  0.39999999673E+01  0.40000000000E+01  0.51109989000E-03 0.  1.
     -623   -1    0    0    0    0  0.00000000000E+00  0.00000000000E+00  0.12525980253E-10  0.17130000000E+03  0.17130000000E+03 0.  1.
       11    1    1    2    0    0  0.37388132144E-06  0.12644972540E-02  0.40338760499E-02  0.42582076662E-02  0.51109989000E-03 0.  1.
     -623    1    1    2    0    0 -0.12924194969E-02  0.37808270737E-03  0.42506949077E-03  0.17130000001E+03  0.17130000000E+03 0.  1.
      622    1    1    2    0    0  0.12920456155E-02 -0.16425799614E-02  0.39955410216E+01  0.39957417863E+01  0.40000000000E-01 0.  1.
</event>
<event>
 5   0  0.7212170E+07  0.9118800E+02  0.7818608E-02  0.1180000E+00
       11   -1    0    0    0    0  0.00000000000E+00  0.00000000000E+00  0.39999999673E+01  0.40000000000E+01  0.51109989000E-03 0. -1.
     -623   -1    0    0    0    0  0.00000000000E+00  0.00000000000E+00  0.12525980253E-10  0.17130000000E+03  0.17130000000E+03 0. -1.
       11    1    1    2    0    0  0.21750674775E-01  0.78762591864E-02  0.70754985600E+00  0.70792809470E+00  0.51109989000E-03 0. -1.
     -623    1    1    2    0    0 -0.12156707179E-02 -0.16200436918E-02  0.69123272956E-03  0.17130000001E+03  0.17130000000E+03 0. -1.
      622    1    1    2    0    0 -0.20535004057E-01 -0.62562154946E-02  0.32917588787E+01  0.32920718920E+01  0.40000000000E-01 0. -1.
</event>
<event>
 5   0  0.7212170E+07  0.9118800E+02  0.7818608E-02  0.1180000E+00
       11   -1    0    0    0    0  0.00000000000E+00  0.00000000000E+00  0.39999999673E+01  0.40000000000E+01  0.51109989000E-03 0.  1.
     -623   -1    0    0    0    0  0.00000000000E+00  0.00000000000E+00  0.12525980253E-10  0.17130000000E+03  0.17130000000E+03 0. -1.
       11    1    1    2    0    0 -0.98714533638E-02  0.24475496682E-01  0.18958767110E+00  0.19141640939E+00  0.51109989000E-03 0.  1.
     -623    1    1    2    0    0  0.20192092678E-02 -0.63803638593E-03  0.21214874312E-02  0.17130000003E+03  0.17130000000E+03 0. -1.
      622    1    1    2    0    0  0.78522440961E-02 -0.23837460296E-01  0.38082908088E+01  0.38085835644E+01  0.40000000000E-01 0.  1.
</event>
<event>
 5   0  0.7212170E+07  0.9118800E+02  0.7818608E-02  0.1180000E+00
       11   -1    0    0    0    0  0.00000000000E+00  0.00000000000E+00  0.39999999673E+01  0.40000000000E+01  0.51109989000E-03 0.  1.
     -623   -1    0    0    0    0  0.00000000000E+00  0.00000000000E+00  0.12525980253E-10  0.17130000000E+03  0.17130000000E+03 0. -1.
       11    1    1    2    0    0 -0.12816455865E-01 -0.35579926247E-02  0.12198936688E+01  0.12199662886E+01  0.51109989000E-03 0.  1.
     -623    1    1    2    0    0 -0.46251133891E-02  0.96253540529E-03  0.41636496643E-03  0.17130000007E+03  0.17130000000E+03 0. -1.
      622    1    1    2    0    0  0.17441569255E-01  0.25954572194E-02  0.27796899339E+01  0.27800336460E+01  0.40000000000E-01 0. -1.
</event>
<event>
 5   0  0.7212170E+07  0.9118800E+02  0.7818608E-02  0.1180000E+00
       11   -1    0    0    0    0  0.00000000000E+00  0.00000000000E+00  0.39999999673E+01  0.40000000000E+01  0.51109989000E-03 0. -1.
     -623   -1    0    0    0    0  0.00000000000E+00  0.00000000000E+00  0.12525980253E-10  0.17130000000E+03  0.17130000000E+03 0.  1.
       11    1    1    2    0    0 -0.12745048221E-02  0.19711400277E-03  0.20130270943E-01  0.20178013971E-01  0.51109989000E-03 0. -1.
     -623    1    1    2    0    0  0.11741101377E-02  0.18010207670E-03  0.24875292360E-03  0.17130000000E+03  0.17130000000E+03 0.  1.
      622    1    1    2    0    0  0.10039468464E-03 -0.37721607943E-03  0.39796209426E+01  0.39798219808E+01  0.40000000000E-01 0. -1.
</event>
<event>
 5   0  0.7212170E+07  0.9118800E+02  0.7818608E-02  0.1180000E+00
       11   -1    0    0    0    0  0.00000000000E+00  0.00000000000E+00  0.39999999673E+01  0.40000000000E+01  0.51109989000E-03 0. -1.
     -623   -1    0    0    0    0  0.00000000000E+00  0.00000000000E+00  0.12525980253E-10  0.17130000000E+03  0.17130000000E+03 0. -1.
       11    1    1    2    0    0  0.11126729129E-02 -0.34408054004E-03  0.22539819364E-01  0.22575675239E-01  0.51109989000E-03 0. -1.
     -623    1    1    2    0    0  0.43346460906E-03  0.18569027090E-03  0.23726800753E-03  0.17130000000E+03  0.17130000000E+03 0. -1.
      622    1    1    2    0    0 -0.15461375219E-02  0.15839026914E-03  0.39772228800E+01  0.39774243239E+01  0.40000000000E-01 0. -1.
</event>
<event>
 5   0  0.7212170E+07  0.9118800E+02  0.7818608E-02  0.1180000E+00
       11   -1    0    0    0    0  0.00000000000E+00  0.00000000000E+00  0.39999999673E+01  0.40000000000E+01  0.51109989000E-03 0. -1.
     -623   -1    0    0    0    0  0.00000000000E+00  0.00000000000E+00  0.12525980253E-10  0.17130000000E+03  0.17130000000E+03 0. -1.
       11    1    1    2    0    0  0.31156273130E-01  0.98925302973E-03  0.12221348840E+01  0.12225324650E+01  0.51109989000E-03 0. -1.
     -623    1    1    2    0    0 -0.96586120380E-02  0.53996956215E-02  0.77650987682E-03  0.17130000036E+03  0.17130000000E+03 0. -1.
      622    1    1    2    0    0 -0.21497661092E-01 -0.63889486513E-02  0.27770885735E+01  0.27774671759E+01  0.40000000000E-01 0.  0.
</event>
<event>
 5   0  0.7212170E+07  0.9118800E+02  0.7818608E-02  0.1180000E+00
       11   -1    0    0    0    0  0.00000000000E+00  0.00000000000E+00  0.39999999673E+01  0.40000000000E+01  0.51109989000E-03 0.  1.
     -623   -1    0    0    0    0  0.00000000000E+00  0.00000000000E+00  0.12525980253E-10  0.17130000000E+03  0.17130000000E+03 0.  1.
       11    1    1    2    0    0 -0.51583657482E-03 -0.54663053232E-02  0.68199657720E+00  0.68201887006E+00  0.51109989000E-03 0.  1.
     -623    1    1    2    0    0 -0.16861461808E-02  0.10712379062E-02  0.26703315088E-03  0.17130000001E+03  0.17130000000E+03 0.  1.
      622    1    1    2    0    0  0.22019827554E-02  0.43950674171E-02  0.33177363565E+01  0.33179811176E+01  0.40000000000E-01 0.  1.
</event>
<event>
 5   0  0.7212170E+07  0.9118800E+02  0.7818608E-02  0.1180000E+00
       11   -1    0    0    0    0  0.00000000000E+00  0.00000000000E+00  0.39999999673E+01  0.40000000000E+01  0.51109989000E-03 0.  1.
     -623   -1    0    0    0    0  0.00000000000E+00  0.00000000000E+00  0.12525980253E-10  0.17130000000E+03  0.17130000000E+03 0.  1.
       11    1    1    2    0    0 -0.66693613473E-02  0.49944799835E-02  0.97775373584E-01  0.98131086378E-01  0.51109989000E-03 0.  1.
     -623    1    1    2    0    0  0.83646517177E-02 -0.87191181701E-02  0.56328869586E-03  0.17130000043E+03  0.17130000000E+03 0.  1.
      622    1    1    2    0    0 -0.16952903716E-02  0.37246381879E-02  0.39016613057E+01  0.39018684871E+01  0.40000000000E-01 0.  1.
</event>
<event>
 5   0  0.7212170E+07  0.9118800E+02  0.7818608E-02  0.1180000E+00
       11   -1    0    0    0    0  0.00000000000E+00  0.00000000000E+00  0.39999999673E+01  0.40000000000E+01  0.51109989000E-03 0.  1.
     -623   -1    0    0    0    0  0.00000000000E+00  0.00000000000E+00  0.12525980253E-10  0.17130000000E+03  0.17130000000E+03 0.  1.
       11    1    1    2    0    0 -0.70296040116E-04  0.88023588996E-05  0.48986897943E-03  0.71148698466E-03  0.51109989000E-03 0. -1.
     -623    1    1    2    0    0 -0.21880895962E-02 -0.19734619297E-02  0.42277209368E-03  0.17130000003E+03  0.17130000000E+03 0.  1.
      622    1    1    2    0    0  0.22583856361E-02  0.19646595706E-02  0.39990873259E+01  0.39992884868E+01  0.40000000000E-01 0.  1.
</event>
<event>
 5   0  0.7212170E+07  0.9118800E+02  0.7818608E-02  0.1180000E+00
       11   -1    0    0    0    0  0.00000000000E+00  0.00000000000E+00  0.39999999673E+01  0.40000000000E+01  0.51109989000E-03 0. -1.
     -623   -1    0    0    0    0  0.00000000000E+00  0.00000000000E+00  0.12525980253E-10  0.17130000000E+03  0.17130000000E+03 0.  1.
       11    1    1    2    0    0 -0.19044809978E-02 -0.63164083050E-02  0.98956433742E-01  0.99177422147E-01  0.51109989000E-03 0. -1.
     -623    1    1    2    0    0 -0.30308462971E-02  0.25788044034E-02  0.43100583509E-03  0.17130000005E+03  0.17130000000E+03 0.  1.
      622    1    1    2    0    0  0.49353272952E-02  0.37376039013E-02  0.39006125283E+01  0.39008225316E+01  0.40000000000E-01 0. -1.
</event>
<event>
 5   0  0.7212170E+07  0.9118800E+02  0.7818608E-02  0.1180000E+00
       11   -1    0    0    0    0  0.00000000000E+00  0.00000000000E+00  0.39999999673E+01  0.40000000000E+01  0.51109989000E-03 0.  1.
     -623   -1    0    0    0    0  0.00000000000E+00  0.00000000000E+00  0.12525980253E-10  0.17130000000E+03  0.17130000000E+03 0.  1.
       11    1    1    2    0    0  0.91398291815E-02  0.62178638927E-04  0.13973962393E+01  0.13974262239E+01  0.51109989000E-03 0.  1.
     -623    1    1    2    0    0 -0.89014426662E-02  0.79306728795E-03  0.33774304374E-03  0.17130000023E+03  0.17130000000E+03 0.  1.
      622    1    1    2    0    0 -0.23838651485E-03 -0.85524592692E-03  0.26022659853E+01  0.26025735429E+01  0.40000000000E-01 0.  1.
</event>
<event>
 5   0  0.7212170E+07  0.9118800E+02  0.7818608E-02  0.1180000E+00
       11   -1    0    0    0    0  0.00000000000E+00  0.00000000000E+00  0.39999999673E+01  0.40000000000E+01  0.51109989000E-03 0.  1.
     -623   -1    0    0    0    0  0.00000000000E+00  0.00000000000E+00  0.12525980253E-10  0.17130000000E+03  0.17130000000E+03 0.  1.
       11    1    1    2    0    0  0.67938492145E-02  0.12167132779E-02  0.20282229169E-01  0.21430511462E-01  0.51109989000E-03 0.  1.
     -623    1    1    2    0    0  0.40453822422E-03 -0.19466684256E-02  0.13559282250E-02  0.17130000002E+03  0.17130000000E+03 0.  1.
      622    1    1    2    0    0 -0.71983874387E-02  0.72995514773E-03  0.39783618100E+01  0.39785694717E+01  0.40000000000E-01 0.  1.
</event>
<event>
 5   0  0.7212170E+07  0.9118800E+02  0.7818608E-02  0.1180000E+00
       11   -1    0    0    0    0  0.00000000000E+00  0.00000000000E+00  0.39999999673E+01  0.40000000000E+01  0.51109989000E-03 0. -1.
     -623   -1    0    0    0    0  0.00000000000E+00  0.00000000000E+00  0.12525980253E-10  0.17130000000E+03  0.17130000000E+03 0. -1.
       11    1    1    2    0    0 -0.32734256069E-02  0.33720328209E-02  0.44792415847E-01  0.45041177394E-01  0.51109989000E-03 0. -1.
     -623    1    1    2    0    0  0.10304567920E-01  0.28241753950E-02  0.46245000593E-03  0.17130000033E+03  0.17130000000E+03 0. -1.
      622    1    1    2    0    0 -0.70311423127E-02 -0.61962082157E-02  0.39547451012E+01  0.39549584885E+01  0.40000000000E-01 0. -1.
</event>
<event>
 5   0  0.7212170E+07  0.9118800E+02  0.7818608E-02  0.1180000E+00
       11   -1    0    0    0    0  0.00000000000E+00  0.00000000000E+00  0.39999999673E+01  0.40000000000E+01  0.51109989000E-03 0. -1.
     -623   -1    0    0    0    0  0.00000000000E+00  0.00000000000E+00  0.12525980253E-10  0.17130000000E+03  0.17130000000E+03 0. -1.
       11    1    1    2    0    0  0.22515700748E-01 -0.89526348601E-02  0.91467614101E+00  0.91499716426E+00  0.51109989000E-03 0. -1.
     -623    1    1    2    0    0 -0.15776855120E-02 -0.29212676644E-03  0.66524296026E-03  0.17130000001E+03  0.17130000000E+03 0. -1.
      622    1    1    2    0    0 -0.20938015236E-01  0.92447616265E-02  0.30846585834E+01  0.30850028270E+01  0.40000000000E-01 0.  0.
</event>
<event>
 5   0  0.7212170E+07  0.9118800E+02  0.7818608E-02  0.1180000E+00
       11   -1    0    0    0    0  0.00000000000E+00  0.00000000000E+00  0.39999999673E+01  0.40000000000E+01  0.51109989000E-03 0. -1.
     -623   -1    0    0    0    0  0.00000000000E+00  0.00000000000E+00  0.12525980253E-10  0.17130000000E+03  0.17130000000E+03 0.  1.
       11    1    1    2    0    0 -0.14271822057E-02  0.78253184864E-02  0.16698287577E+00  0.16717300764E+00  0.51109989000E-03 0. -1.
     -623    1    1    2    0    0 -0.32122965819E-02 -0.68644562457E-02  0.40192481997E-03  0.17130000017E+03  0.17130000000E+03 0.  1.
      622    1    1    2    0    0  0.46394787881E-02 -0.96086223986E-03  0.38326151673E+01  0.38328268247E+01  0.40000000000E-01 0. -1.
</event>
<event>
 5   0  0.7212170E+07  0.9118800E+02  0.7818608E-02  0.1180000E+00
       11   -1    0    0    0    0  0.00000000000E+00  0.00000000000E+00  0.39999999673E+01  0.40000000000E+01  0.51109989000E-03 0. -1.
     -623   -1    0    0    0    0  0.00000000000E+00  0.00000000000E+00  0.12525980253E-10  0.17130000000E+03  0.17130000000E+03 0.  1.
       11    1    1    2    0    0  0.32612172993E-03 -0.92476614718E-03  0.78382985833E-02  0.79159140715E-02  0.51109989000E-03 0. -1.
     -623    1    1    2    0    0 -0.69723262427E-03  0.80075552527E-03  0.27800715153E-03  0.17130000000E+03  0.17130000000E+03 0.  1.
      622    1    1    2    0    0  0.37111089459E-03  0.12401062164E-03  0.39918836630E+01  0.39920840838E+01  0.40000000000E-01 0. -1.
</event>
<event>
 5   0  0.7212170E+07  0.9118800E+02  0.7818608E-02  0.1180000E+00
       11   -1    0    0    0    0  0.00000000000E+00  0.00000000000E+00  0.39999999673E+01  0.40000000000E+01  0.51109989000E-03 0. -1.
     -623   -1    0    0    0    0  0.00000000000E+00  0.00000000000E+00  0.12525980253E-10  0.17130000000E+03  0.17130000000E+03 0.  1.
       11    1    1    2    0    0  0.32653307292E-02 -0.41642635204E-02  0.71575147705E+00  0.71577122155E+00  0.51109989000E-03 0. -1.
     -623    1    1    2    0    0  0.20733832226E-03  0.85447344462E-03  0.26681574525E-03  0.17130000000E+03  0.17130000000E+03 0.  1.
      622    1    1    2    0    0 -0.34726690514E-02  0.33097900761E-02  0.32839816733E+01  0.32842287747E+01  0.40000000000E-01 0. -1.
</event>
<event>
 5   0  0.7212170E+07  0.9118800E+02  0.7818608E-02  0.1180000E+00
       11   -1    0    0    0    0  0.00000000000E+00  0.00000000000E+00  0.39999999673E+01  0.40000000000E+01  0.51109989000E-03 0.  1.
     -623   -1    0    0    0    0  0.00000000000E+00  0.00000000000E+00  0.12525980253E-10  0.17130000000E+03  0.17130000000E+03 0. -1.
       11    1    1    2    0    0  0.13211391345E-01 -0.73883637779E-02  0.91823366615E-01  0.93064067503E-01  0.51109989000E-03 0.  1.
     -623    1    1    2    0    0 -0.19597951739E-01  0.10609235501E-01  0.14534414666E-02  0.17130000146E+03  0.17130000000E+03 0. -1.
      622    1    1    2    0    0  0.63865603948E-02 -0.32208717240E-02  0.39067231595E+01  0.39069344770E+01  0.40000000000E-01 0.  1.
</event>
<event>
 5   0  0.7212170E+07  0.9118800E+02  0.7818608E-02  0.1180000E+00
       11   -1    0    0    0    0  0.00000000000E+00  0.00000000000E+00  0.39999999673E+01  0.40000000000E+01  0.51109989000E-03 0. -1.
     -623   -1    0    0    0    0  0.00000000000E+00  0.00000000000E+00  0.12525980253E-10  0.17130000000E+03  0.17130000000E+03 0. -1.
       11    1    1    2    0    0  0.11037052457E-01  0.26430048634E-02  0.78643367023E+00  0.78651572196E+00  0.51109989000E-03 0. -1.
     -623    1    1    2    0    0 -0.32392286828E-02 -0.69767047988E-02  0.34353702992E-03  0.17130000017E+03  0.17130000000E+03 0. -1.
      622    1    1    2    0    0 -0.77978237742E-02  0.43336999361E-02  0.32132227605E+01  0.32134841054E+01  0.40000000000E-01 0. -1.
</event>
<event>
 5   0  0.7212170E+07  0.9118800E+02  0.7818608E-02  0.1180000E+00
       11   -1    0    0    0    0  0.00000000000E+00  0.00000000000E+00  0.39999999673E+01  0.40000000000E+01  0.51109989000E-03 0. -1.
     -623   -1    0    0    0    0  0.00000000000E+00  0.00000000000E+00  0.12525980253E-10  0.17130000000E+03  0.17130000000E+03 0.  1.
       11    1    1    2    0    0  0.21378443501E-02 -0.86113902216E-02  0.14080289211E+00  0.14108310342E+00  0.51109989000E-03 0. -1.
     -623    1    1    2    0    0  0.21907767465E-02  0.11611494189E-02  0.49713516256E-03  0.17130000002E+03  0.17130000000E+03 0.  1.
      622    1    1    2    0    0 -0.43286210972E-02  0.74502408024E-02  0.38586999410E+01  0.38589168788E+01  0.40000000000E-01 0. -1.
</event>
<event>
 5   0  0.7212170E+07  0.9118800E+02  0.7818608E-02  0.1180000E+00
       11   -1    0    0    0    0  0.00000000000E+00  0.00000000000E+00  0.39999999673E+01  0.40000000000E+01  0.51109989000E-03 0.  1.
     -623   -1    0    0    0    0  0.00000000000E+00  0.00000000000E+00  0.12525980253E-10  0.17130000000E+03  0.17130000000E+03 0. -1.
       11    1    1    2    0    0 -0.52677843711E-03 -0.11052954135E-01  0.77679004010E-01  0.78464859509E-01  0.51109989000E-03 0.  1.
     -623    1    1    2    0    0  0.19525016117E-02 -0.31237929317E-03  0.10065737713E-02  0.17130000001E+03  0.17130000000E+03 0. -1.
      622    1    1    2    0    0 -0.14257231747E-02  0.11365333428E-01  0.39213143898E+01  0.39215351263E+01  0.40000000000E-01 0.  1.
</event>
<event>
 5   0  0.7212170E+07  0.9118800E+02  0.7818608E-02  0.1180000E+00
       11   -1    0    0    0    0  0.00000000000E+00  0.00000000000E+00  0.39999999673E+01  0.40000000000E+01  0.51109989000E-03 0. -1.
     -623   -1    0    0    0    0  0.00000000000E+00  0.00000000000E+00  0.12525980253E-10  0.17130000000E+03  0.17130000000E+03 0.  1.
       11    1    1    2    0    0  0.10378777806E-01 -0.93637292356E-02  0.26856374031E+00  0.26892776407E+00  0.51109989000E-03 0. -1.
     -623    1    1    2    0    0 -0.38500997173E-03  0.68383146716E-03  0.60189778497E-03  0.17130000000E+03  0.17130000000E+03 0.  1.
      622    1    1    2    0    0 -0.99937678347E-02  0.86798977683E-02  0.37308343298E+01  0.37310722336E+01  0.40000000000E-01 0.  0.
</event>
<event>
 5   0  0.7212170E+07  0.9118800E+02  0.7818608E-02  0.1180000E+00
       11   -1    0    0    0    0  0.00000000000E+00  0.00000000000E+00  0.39999999673E+01  0.40000000000E+01  0.51109989000E-03 0. -1.
     -623   -1    0    0    0    0  0.00000000000E+00  0.00000000000E+00  0.12525980253E-10  0.17130000000E+03  0.17130000000E+03 0. -1.
       11    1    1    2    0    0  0.22125490440E-02  0.29715538765E-02  0.10408257675E+00  0.10414974562E+00  0.51109989000E-03 0.  1.
     -623    1    1    2    0    0 -0.32117399193E-03 -0.63277330529E-03  0.27365122080E-03  0.17130000000E+03  0.17130000000E+03 0. -1.
      622    1    1    2    0    0 -0.18913750519E-02 -0.23387805709E-02  0.38956437409E+01  0.38958502542E+01  0.40000000000E-01 0. -1.
</event>
<event>
 5   0  0.7212170E+07  0.9118800E+02  0.7818608E-02  0.1180000E+00
       11   -1    0    0    0    0  0.00000000000E+00  0.00000000000E+00  0.39999999673E+01  0.40000000000E+01  0.51109989000E-03 0.  1.
     -623   -1    0    0    0    0  0.00000000000E+00  0.00000000000E+00  0.12525980253E-10  0.17130000000E+03  0.17130000000E+03 0.  1.
       11    1    1    2    0    0  0.72974546992E-02  0.11331857430E-01  0.12134180623E+01  0.12134930239E+01  0.51109989000E-03 0.  1.
     -623    1    1    2    0    0  0.73165073084E-03 -0.47225213952E-04  0.39646484404E-03  0.17130000000E+03  0.17130000000E+03 0.  1.
      622    1    1    2    0    0 -0.80291054299E-02 -0.11284632216E-01  0.27861854394E+01  0.27865069733E+01  0.40000000000E-01 0. -1.
</event>
<event>
 5   0  0.7212170E+07  0.9118800E+02  0.7818608E-02  0.1180000E+00
       11   -1    0    0    0    0  0.00000000000E+00  0.00000000000E+00  0.39999999673E+01  0.40000000000E+01  0.51109989000E-03 0.  1.
     -623   -1    0    0    0    0  0.00000000000E+00  0.00000000000E+00  0.12525980253E-10  0.17130000000E+03  0.17130000000E+03 0.  1.
       11    1    1    2    0    0  0.77556415867E-02  0.16117976547E-03  0.13617340839E+00  0.13639514042E+00  0.51109989000E-03 0.  1.
     -623    1    1    2    0    0 -0.94824199664E-04 -0.52393171523E-03  0.43637927693E-03  0.17130000000E+03  0.17130000000E+03 0.  1.
      622    1    1    2    0    0 -0.76608173870E-02  0.36275194990E-03  0.38633901808E+01  0.38636048593E+01  0.40000000000E-01 0.  1.
</event>
<event>
 5   0  0.7212170E+07  0.9118800E+02  0.7818608E-02  0.1180000E+00
       11   -1    0    0    0    0  0.00000000000E+00  0.00000000000E+00  0.39999999673E+01  0.40000000000E+01  0.51109989000E-03 0. -1.
     -623   -1    0    0    0    0  0.00000000000E+00  0.00000000000E+00  0.12525980253E-10  0.17130000000E+03  0.17130000000E+03 0.  1.
       11    1    1    2    0    0  0.68075813618E-02  0.27184453084E-02  0.31613793474E-01  0.32456528925E-01  0.51109989000E-03 0. -1.
     -623    1    1    2    0    0 -0.25891660770E-02 -0.34076644342E-02  0.10467032547E-02  0.17130000006E+03  0.17130000000E+03 0.  1.
      622    1    1    2    0    0 -0.42184152848E-02  0.68921912575E-03  0.39673394706E+01  0.39675434144E+01  0.40000000000E-01 0. -1.
</event>
<event>
 5   0  0.7212170E+07  0.9118800E+02  0.7818608E-02  0.1180000E+00
       11   -1    0    0    0    0  0.00000000000E+00  0.00000000000E+00  0.39999999673E+01  0.40000000000E+01  0.51109989000E-03 0.  1.
     -623   -1    0    0    0    0  0.00000000000E+00  0.00000000000E+00  0.12525980253E-10  0.17130000000E+03  0.17130000000E+03 0. -1.
       11    1    1    2    0    0  0.17794849929E-01 -0.54799956929E-03  0.63409650802E+00  0.63434659272E+00  0.51109989000E-03 0.  1.
     -623    1    1    2    0    0  0.34459293568E-02  0.40743621046E-02  0.55671844500E-03  0.17130000008E+03  0.17130000000E+03 0. -1.
      622    1    1    2    0    0 -0.21240779286E-01 -0.35263625353E-02  0.33653467410E+01  0.33656533233E+01  0.40000000000E-01 0.  1.
</event>
<event>
 5   0  0.7212170E+07  0.9118800E+02  0.7818608E-02  0.1180000E+00
       11   -1    0    0    0    0  0.00000000000E+00  0.00000000000E+00  0.39999999673E+01  0.40000000000E+01  0.51109989000E-03 0.  1.
     -623   -1    0    0    0    0  0.00000000000E+00  0.00000000000E+00  0.12525980253E-10  0.17130000000E+03  0.17130000000E+03 0.  1.
       11    1    1    2    0    0  0.25969255718E-02 -0.21597357306E-02  0.16728129235E-01  0.17073371420E-01  0.51109989000E-03 0.  1.
     -623    1    1    2    0    0  0.19824566796E-02  0.11484923240E-02  0.54884923379E-03  0.17130000002E+03  0.17130000000E+03 0.  1.
      622    1    1    2    0    0 -0.45793822514E-02  0.10112434066E-02  0.39827229888E+01  0.39829266123E+01  0.40000000000E-01 0.  1.
</event>
<event>
 5   0  0.7212170E+07  0.9118800E+02  0.7818608E-02  0.1180000E+00
       11   -1    0    0    0    0  0.00000000000E+00  0.00000000000E+00  0.39999999673E+01  0.40000000000E+01  0.51109989000E-03 0. -1.
     -623   -1    0    0    0    0  0.00000000000E+00  0.00000000000E+00  0.12525980253E-10  0.17130000000E+03  0.17130000000E+03 0.  1.
       11    1    1    2    0    0  0.91267361853E-03  0.28648800029E-02  0.34992367530E+00  0.34993696614E+00  0.51109989000E-03 0. -1.
     -623    1    1    2    0    0  0.20834448110E-02  0.56367026886E-02  0.24367579168E-03  0.17130000011E+03  0.17130000000E+03 0.  1.
      622    1    1    2    0    0 -0.29961184298E-02 -0.85015826921E-02  0.36498326167E+01  0.36500629287E+01  0.40000000000E-01 0. -1.
</event>
<event>
 5   0  0.7212170E+07  0.9118800E+02  0.7818608E-02  0.1180000E+00
       11   -1    0    0    0    0  0.00000000000E+00  0.00000000000E+00  0.39999999673E+01  0.40000000000E+01  0.51109989000E-03 0. -1.
     -623   -1    0    0    0    0  0.00000000000E+00  0.00000000000E+00  0.12525980253E-10  0.17130000000E+03  0.17130000000E+03 0. -1.
       11    1    1    2    0    0 -0.41074094801E-01 -0.17888680872E-02  0.32283116063E+00  0.32543893560E+00  0.51109989000E-03 0. -1.
     -623    1    1    2    0    0  0.95117463511E-03 -0.13365472848E-01  0.30763393530E-02  0.17130000055E+03  0.17130000000E+03 0. -1.
      622    1    1    2    0    0  0.40122920166E-01  0.15154340935E-01  0.36740924674E+01  0.36745605127E+01  0.40000000000E-01 0. -1.
</event>
<event>
 5   0  0.7212170E+07  0.9118800E+02  0.7818608E-02  0.1180000E+00
       11   -1    0    0    0    0  0.00000000000E+00  0.00000000000E+00  0.39999999673E+01  0.40000000000E+01  0.51109989000E-03 0.  1.
     -623   -1    0    0    0    0  0.00000000000E+00  0.00000000000E+00  0.12525980253E-10  0.17130000000E+03  0.17130000000E+03 0. -1.
       11    1    1    2    0    0 -0.11147571249E-01  0.22820816945E-01  0.53330205184E+00  0.53390673132E+00  0.51109989000E-03 0.  1.
     -623    1    1    2    0    0  0.29577414190E-01 -0.30548181349E-02  0.94341104194E-03  0.17130000258E+03  0.17130000000E+03 0. -1.
      622    1    1    2    0    0 -0.18429842941E-01 -0.19765998810E-01  0.34657545045E+01  0.34660906853E+01  0.40000000000E-01 0.  1.
</event>
<event>
 5   0  0.7212170E+07  0.9118800E+02  0.7818608E-02  0.1180000E+00
       11   -1    0    0    0    0  0.00000000000E+00  0.00000000000E+00  0.39999999673E+01  0.40000000000E+01  0.51109989000E-03 0. -1.
     -623   -1    0    0    0    0  0.00000000000E+00  0.00000000000E+00  0.12525980253E-10  0.17130000000E+03  0.17130000000E+03 0. -1.
       11    1    1    2    0    0  0.78007407224E-03 -0.85600471531E-03  0.14424433568E-01  0.14479874533E-01  0.51109989000E-03 0. -1.
     -623    1    1    2    0    0 -0.90233949011E-03  0.14821728854E-02  0.25620005130E-03  0.17130000001E+03  0.17130000000E+03 0. -1.
      622    1    1    2    0    0  0.12226541817E-03 -0.62616817057E-03  0.39853193351E+01  0.39855201178E+01  0.40000000000E-01 0. -1.
</event>
<event>
 5   0  0.7212170E+07  0.9118800E+02  0.7818608E-02  0.1180000E+00
       11   -1    0    0    0    0  0.00000000000E+00  0.00000000000E+00  0.39999999673E+01  0.40000000000E+01  0.51109989000E-03 0. -1.
     -623   -1    0    0    0    0  0.00000000000E+00  0.00000000000E+00  0.12525980253E-10  0.17130000000E+03  0.17130000000E+03 0.  1.
       11    1    1    2    0    0  0.12986363024E-03  0.13494682297E-03  0.35038097619E-03  0.64735240289E-03  0.51109989000E-03 0. -1.
     -623    1    1    2    0    0 -0.20865073810E-04 -0.27001995169E-03  0.49698086354E-03  0.17130000000E+03  0.17130000000E+03 0.  1.
      622    1    1    2    0    0 -0.10899855642E-03  0.13507312877E-03  0.39991526062E+01  0.39993526474E+01  0.40000000000E-01 0. -1.
</event>
<event>
 5   0  0.7212170E+07  0.9118800E+02  0.7818608E-02  0.1180000E+00
       11   -1    0    0    0    0  0.00000000000E+00  0.00000000000E+00  0.39999999673E+01  0.40000000000E+01  0.51109989000E-03 0.  1.
     -623   -1    0    0    0    0  0.00000000000E+00  0.00000000000E+00  0.12525980253E-10  0.17130000000E+03  0.17130000000E+03 0.  1.
       11    1    1    2    0    0 -0.58102470835E-02 -0.12117132169E-01  0.39537489138E-01  0.41761922053E-01  0.51109989000E-03 0.  1.
     -623    1    1    2    0    0  0.28151953114E-02  0.77255773330E-02  0.24302996168E-02  0.17130000021E+03  0.17130000000E+03 0.  1.
      622    1    1    2    0    0  0.29950517721E-02  0.43915548358E-02  0.39580321786E+01  0.39582378634E+01  0.40000000000E-01 0.  1.
</event>
<event>
 5   0  0.7212170E+07  0.9118800E+02  0.7818608E-02  0.1180000E+00
       11   -1    0    0    0    0  0.00000000000E+00  0.00000000000E+00  0.39999999673E+01  0.40000000000E+01  0.51109989000E-03 0.  1.
     -623   -1    0    0    0    0  0.00000000000E+00  0.00000000000E+00  0.12525980253E-10  0.17130000000E+03  0.17130000000E+03 0.  1.
       11    1    1    2    0    0 -0.94422198429E-03  0.27184800986E-02  0.17776661622E-01  0.18015343758E-01  0.51109989000E-03 0.  1.
     -623    1    1    2    0    0  0.21931453265E-02 -0.54644681645E-02  0.44080391338E-03  0.17130000010E+03  0.17130000000E+03 0.  1.
      622    1    1    2    0    0 -0.12489233428E-02  0.27459880674E-02  0.39817825029E+01  0.39819845556E+01  0.40000000000E-01 0.  1.
</event>
<event>
 5   0  0.7212170E+07  0.9118800E+02  0.7818608E-02  0.1180000E+00
       11   -1    0    0    0    0  0.00000000000E+00  0.00000000000E+00  0.39999999673E+01  0.40000000000E+01  0.51109989000E-03 0. -1.
     -623   -1    0    0    0    0  0.00000000000E+00  0.00000000000E+00  0.12525980253E-10  0.17130000000E+03  0.17130000000E+03 0.  1.
       11    1    1    2    0    0 -0.17449841653E-03 -0.33057997912E-02  0.11760447141E+00  0.11765216395E+00  0.51109989000E-03 0. -1.
     -623    1    1    2    0    0 -0.46554289177E-03  0.48529563547E-02  0.25415686355E-03  0.17130000007E+03  0.17130000000E+03 0.  1.
      622    1    1    2    0    0  0.64004130836E-03 -0.15471565641E-02  0.38821413396E+01  0.38823477670E+01  0.40000000000E-01 0. -1.
</event>
<event>
 5   0  0.7212170E+07  0.9118800E+02  0.7818608E-02  0.1180000E+00
       11   -1    0    0    0    0  0.00000000000E+00  0.00000000000E+00  0.39999999673E+01  0.40000000000E+01  0.51109989000E-03 0. -1.
     -623   -1    0    0    0    0  0.00000000000E+00  0.00000000000E+00  0.12525980253E-10  0.17130000000E+03  0.17130000000E+03 0. -1.
       11    1    1    2    0    0  0.15188326478E-02 -0.62597273247E-02  0.33318978741E+00  0.33325243690E+00  0.51109989000E-03 0. -1.
     -623    1    1    2    0    0 -0.11884850933E-02  0.21336055451E-02  0.28315452999E-03  0.17130000002E+03  0.17130000000E+03 0. -1.
      622    1    1    2    0    0 -0.33034755432E-03  0.41261217795E-02  0.36665270257E+01  0.36667475458E+01  0.40000000000E-01 0. -1.
</event>
<event>
 5   0  0.7212170E+07  0.9118800E+02  0.7818608E-02  0.1180000E+00
       11   -1    0    0    0    0  0.00000000000E+00  0.00000000000E+00  0.39999999673E+01  0.40000000000E+01  0.51109989000E-03 0.  1.
     -623   -1    0    0    0    0  0.00000000000E+00  0.00000000000E+00  0.12525980253E-10  0.17130000000E+03  0.17130000000E+03 0. -1.
       11    1    1    2    0    0 -0.30736448642E-02  0.12123666879E-03  0.11974304500E-01  0.12373648712E-01  0.51109989000E-03 0.  1.
     -623    1    1    2    0    0 -0.66253443351E-03 -0.27372159871E-02  0.60256993076E-03  0.17130000002E+03  0.17130000000E+03 0. -1.
      622    1    1    2    0    0  0.37361792977E-02  0.26159793183E-02  0.39874230930E+01  0.39876263271E+01  0.40000000000E-01 0.  1.
</event>
<event>
 5   0  0.7212170E+07  0.9118800E+02  0.7818608E-02  0.1180000E+00
       11   -1    0    0    0    0  0.00000000000E+00  0.00000000000E+00  0.39999999673E+01  0.40000000000E+01  0.51109989000E-03 0.  1.
     -623   -1    0    0    0    0  0.00000000000E+00  0.00000000000E+00  0.12525980253E-10  0.17130000000E+03  0.17130000000E+03 0. -1.
       11    1    1    2    0    0  0.59078171921E-03  0.16847144967E-02  0.57178042343E-02  0.60118045822E-02  0.51109989000E-03 0.  1.
     -623    1    1    2    0    0 -0.27367944593E-02 -0.17390414856E-02  0.49488211564E-03  0.17130000003E+03  0.17130000000E+03 0. -1.
      622    1    1    2    0    0  0.21460127407E-02  0.54326989310E-04  0.39937872819E+01  0.39939881649E+01  0.40000000000E-01 0.  1.
</event>
<event>
 5   0  0.7212170E+07  0.9118800E+02  0.7818608E-02  0.1180000E+00
       11   -1    0    0    0    0  0.00000000000E+00  0.00000000000E+00  0.39999999673E+01  0.40000000000E+01  0.51109989000E-03 0. -1.
     -623   -1    0    0    0    0  0.00000000000E+00  0.00000000000E+00  0.12525980253E-10  0.17130000000E+03  0.17130000000E+03 0.  1.
       11    1    1    2    0    0  0.91783837053E-03  0.80597516788E-03  0.23360762514E-01  0.23398257874E-01  0.51109989000E-03 0. -1.
     -623    1    1    2    0    0  0.29391386347E-03  0.48910166549E-03  0.23904125315E-03  0.17130000000E+03  0.17130000000E+03 0.  1.
      622    1    1    2    0    0 -0.12117522340E-02 -0.12950768334E-02  0.39764001640E+01  0.39766017414E+01  0.40000000000E-01 0. -1.
</event>
<event>
 5   0  0.7212170E+07  0.9118800E+02  0.7818608E-02  0.1180000E+00
       11   -1    0    0    0    0  0.00000000000E+00  0.00000000000E+00  0.39999999673E+01  0.40000000000E+01  0.51109989000E-03 0.  1.
     -623   -1    0    0    0    0  0.00000000000E+00  0.00000000000E+00  0.12525980253E-10  0.17130000000E+03  0.17130000000E+03 0. -1.
       11    1    1    2    0    0 -0.13594151938E-03  0.58306075587E-03  0.10117456630E-02  0.12819096403E-02  0.51109989000E-03 0.  1.
     -623    1    1    2    0    0 -0.34270021101E-02  0.14728542303E-02  0.47235767712E-03  0.17130000004E+03  0.17130000000E+03 0. -1.
      622    1    1    2    0    0  0.35629436302E-02 -0.20559149865E-02  0.39985158648E+01  0.39987180499E+01  0.40000000000E-01 0.  1.
</event>
<event>
 5   0  0.7212170E+07  0.9118800E+02  0.7818608E-02  0.1180000E+00
       11   -1    0    0    0    0  0.00000000000E+00  0.00000000000E+00  0.39999999673E+01  0.40000000000E+01  0.51109989000E-03 0.  1.
     -623   -1    0    0    0    0  0.00000000000E+00  0.00000000000E+00  0.12525980253E-10  0.17130000000E+03  0.17130000000E+03 0.  1.
       11    1    1    2    0    0  0.23818578507E-02 -0.29500617116E-02  0.10515740464E-01  0.11190090774E-01  0.51109989000E-03 0.  1.
     -623    1    1    2    0    0 -0.39603844608E-03  0.41129139501E-02  0.87559971370E-03  0.17130000005E+03  0.17130000000E+03 0.  1.
      622    1    1    2    0    0 -0.19858194046E-02 -0.11628522382E-02  0.39886086268E+01  0.39888098568E+01  0.40000000000E-01 0.  1.
</event>
<event>
 5   0  0.7212170E+07  0.9118800E+02  0.7818608E-02  0.1180000E+00
       11   -1    0    0    0    0  0.00000000000E+00  0.00000000000E+00  0.39999999673E+01  0.40000000000E+01  0.51109989000E-03 0. -1.
     -623   -1    0    0    0    0  0.00000000000E+00  0.00000000000E+00  0.12525980253E-10  0.17130000000E+03  0.17130000000E+03 0.  1.
       11    1    1    2    0    0  0.33012221649E-01  0.37638316231E-01  0.19407329173E+01  0.19413786254E+01  0.51109989000E-03 0. -1.
     -623    1    1    2    0    0 -0.12490144466E-02  0.10533166492E-01  0.18436181974E-02  0.17130000034E+03  0.17130000000E+03 0.  1.
      622    1    1    2    0    0 -0.31763207203E-01 -0.48171482723E-01  0.20574234319E+01  0.20586210363E+01  0.40000000000E-01 0. -1.
</event>
<event>
 5   0  0.7212170E+07  0.9118800E+02  0.7818608E-02  0.1180000E+00
       11   -1    0    0    0    0  0.00000000000E+00  0.00000000000E+00  0.39999999673E+01  0.40000000000E+01  0.51109989000E-03 0.  1.
     -623   -1    0    0    0    0  0.00000000000E+00  0.00000000000E+00  0.12525980253E-10  0.17130000000E+03  0.17130000000E+03 0.  1.
       11    1    1    2    0    0 -0.11840039866E-01  0.74488948906E-02  0.49774826076E+00  0.49794504204E+00  0.51109989000E-03 0.  1.
     -623    1    1    2    0    0  0.46284265319E-02  0.40367028293E-02  0.45156567342E-03  0.17130000011E+03  0.17130000000E+03 0.  1.
      622    1    1    2    0    0  0.72116133337E-02 -0.11485597720E-01  0.35018001411E+01  0.35020548475E+01  0.40000000000E-01 0.  1.
</event>
<event>
 5   0  0.7212170E+07  0.9118800E+02  0.7818608E-02  0.1180000E+00
       11   -1    0    0    0    0  0.00000000000E+00  0.00000000000E+00  0.39999999673E+01  0.40000000000E+01  0.51109989000E-03 0. -1.
     -623   -1    0    0    0    0  0.00000000000E+00  0.00000000000E+00  0.12525980253E-10  0.17130000000E+03  0.17130000000E+03 0. -1.
       11    1    1    2    0    0  0.40153893382E-01 -0.13995764275E-01  0.37002253800E+00  0.37245826132E+00  0.51109989000E-03 0. -1.
     -623    1    1    2    0    0 -0.52845232323E-01  0.12683459237E-02  0.27089417472E-02  0.17130000818E+03  0.17130000000E+03 0. -1.
      622    1    1    2    0    0  0.12691338941E-01  0.12727418352E-01  0.36272684876E+01  0.36275335613E+01  0.40000000000E-01 0. -1.
</event>
<event>
 5   0  0.7212170E+07  0.9118800E+02  0.7818608E-02  0.1180000E+00
       11   -1    0    0    0    0  0.00000000000E+00  0.00000000000E+00  0.39999999673E+01  0.40000000000E+01  0.51109989000E-03 0. -1.
     -623   -1    0    0    0    0  0.00000000000E+00  0.00000000000E+00  0.12525980253E-10  0.17130000000E+03  0.17130000000E+03 0. -1.
       11    1    1    2    0    0  0.13677039987E-01  0.33708497094E-02  0.27078794906E+01  0.27079161769E+01  0.51109989000E-03 0. -1.
     -623    1    1    2    0    0  0.26211290881E-03  0.20459314834E-01  0.95229846258E-03  0.17130000122E+03  0.17130000000E+03 0. -1.
      622    1    1    2    0    0 -0.13939152895E-01 -0.23830164546E-01  0.12911681787E+01  0.12920825989E+01  0.40000000000E-01 0. -1.
</event>
<event>
 5   0  0.7212170E+07  0.9118800E+02  0.7818608E-02  0.1180000E+00
       11   -1    0    0    0    0  0.00000000000E+00  0.00000000000E+00  0.39999999673E+01  0.40000000000E+01  0.51109989000E-03 0. -1.
     -623   -1    0    0    0    0  0.00000000000E+00  0.00000000000E+00  0.12525980253E-10  0.17130000000E+03  0.17130000000E+03 0.  1.
       11    1    1    2    0    0 -0.76601592841E-02  0.20121163230E-01  0.12195316584E+00  0.12384011923E+00  0.51109989000E-03 0. -1.
     -623    1    1    2    0    0  0.61863892329E-02  0.89259107209E-02  0.22027981880E-02  0.17130000036E+03  0.17130000000E+03 0.  1.
      622    1    1    2    0    0  0.14737700509E-02 -0.29047073951E-01  0.38758440035E+01  0.38761595225E+01  0.40000000000E-01 0. -1.
</event>
<event>
 5   0  0.7212170E+07  0.9118800E+02  0.7818608E-02  0.1180000E+00
       11   -1    0    0    0    0  0.00000000000E+00  0.00000000000E+00  0.39999999673E+01  0.40000000000E+01  0.51109989000E-03 0. -1.
     -623   -1    0    0    0    0  0.00000000000E+00  0.00000000000E+00  0.12525980253E-10  0.17130000000E+03  0.17130000000E+03 0.  1.
       11    1    1    2    0    0 -0.18415689764E-03 -0.15821547978E-02  0.51131067399E-01  0.51158424566E-01  0.51109989000E-03 0. -1.
     -623    1    1    2    0    0 -0.26350546251E-03  0.36445546151E-03  0.23013466442E-03  0.17130000000E+03  0.17130000000E+03 0.  1.
      622    1    1    2    0    0  0.44766236006E-03  0.12176993364E-02  0.39486387640E+01  0.39488415734E+01  0.40000000000E-01 0. -1.
</event>
<event>
 5   0  0.7212170E+07  0.9118800E+02  0.7818608E-02  0.1180000E+00
       11   -1    0    0    0    0  0.00000000000E+00  0.00000000000E+00  0.39999999673E+01  0.40000000000E+01  0.51109989000E-03 0. -1.
     -623   -1    0    0    0    0  0.00000000000E+00  0.00000000000E+00  0.12525980253E-10  0.17130000000E+03  0.17130000000E+03 0.  1.
       11    1    1    2    0    0 -0.35863962835E-04 -0.12965826751E-02  0.84240405629E-02  0.85386237392E-02  0.51109989000E-03 0. -1.
     -623    1    1    2    0    0 -0.77010860561E-03  0.32083508284E-03  0.31518638247E-03  0.17130000000E+03  0.17130000000E+03 0.  1.
      622    1    1    2    0    0  0.80597256847E-03  0.97574759223E-03  0.39912607406E+01  0.39914613741E+01  0.40000000000E-01 0. -1.
</event>
<event>
 5   0  0.7212170E+07  0.9118800E+02  0.7818608E-02  0.1180000E+00
       11   -1    0    0    0    0  0.00000000000E+00  0.00000000000E+00  0.39999999673E+01  0.40000000000E+01  0.51109989000E-03 0. -1.
     -623   -1    0    0    0    0  0.00000000000E+00  0.00000000000E+00  0.12525980253E-10  0.17130000000E+03  0.17130000000E+03 0.  1.
       11    1    1    2    0    0  0.10098940378E-04  0.18120395121E-02  0.62247547723E-02  0.65032595100E-02  0.51109989000E-03 0. -1.
     -623    1    1    2    0    0  0.11127407390E-02 -0.10848925507E-02  0.47903459890E-03  0.17130000001E+03  0.17130000000E+03 0.  1.
      622    1    1    2    0    0 -0.11228396796E-02 -0.72714696113E-03  0.39932961788E+01  0.39934967336E+01  0.40000000000E-01 0. -1.
</event>
<event>
 5   0  0.7212170E+07  0.9118800E+02  0.7818608E-02  0.1180000E+00
       11   -1    0    0    0    0  0.00000000000E+00  0.00000000000E+00  0.39999999673E+01  0.40000000000E+01  0.51109989000E-03 0. -1.
     -623   -1    0    0    0    0  0.00000000000E+00  0.00000000000E+00  0.12525980253E-10  0.17130000000E+03  0.17130000000E+03 0.  1.
       11    1    1    2    0    0 -0.10004528764E-01  0.26700077901E-01  0.26259511424E+01  0.26261059857E+01  0.51109989000E-03 0. -1.
     -623    1    1    2    0    0 -0.48568886883E-02 -0.25231934187E-02  0.10305693571E-02  0.17130000009E+03  0.17130000000E+03 0.  1.
      622    1    1    2    0    0  0.14861417453E-01 -0.24176884482E-01  0.13730182560E+01  0.13738939241E+01  0.40000000000E-01 0. -1.
</event>
<event>
 5   0  0.7212170E+07  0.9118800E+02  0.7818608E-02  0.1180000E+00
       11   -1    0    0    0    0  0.00000000000E+00  0.00000000000E+00  0.39999999673E+01  0.40000000000E+01  0.51109989000E-03 0. -1.
     -623   -1    0    0    0    0  0.00000000000E+00  0.00000000000E+00  0.12525980253E-10  0.17130000000E+03  0.17130000000E+03 0. -1.
       11    1    1    2    0    0  0.10636316571E-03  0.11950496070E-02  0.45156119198E-02  0.47001522096E-02  0.51109989000E-03 0. -1.
     -623    1    1    2    0    0 -0.33492243857E-03  0.18225603585E-03  0.38499275905E-03  0.17130000000E+03  0.17130000000E+03 0. -1.
      622    1    1    2    0    0  0.22855927280E-03 -0.13773056428E-02  0.39950993619E+01  0.39952998461E+01  0.40000000000E-01 0. -1.
</event>
<event>
 5   0  0.7212170E+07  0.9118800E+02  0.7818608E-02  0.1180000E+00
       11   -1    0    0    0    0  0.00000000000E+00  0.00000000000E+00  0.39999999673E+01  0.40000000000E+01  0.51109989000E-03 0.  1.
     -623   -1    0    0    0    0  0.00000000000E+00  0.00000000000E+00  0.12525980253E-10  0.17130000000E+03  0.17130000000E+03 0.  1.
       11    1    1    2    0    0 -0.11951838008E-01  0.10094920218E-01  0.57587550553E-01  0.59676972509E-01  0.51109989000E-03 0.  1.
     -623    1    1    2    0    0 -0.13756165901E-03  0.45134340947E-02  0.23381270746E-02  0.17130000008E+03  0.17130000000E+03 0.  1.
      622    1    1    2    0    0  0.12089399667E-01 -0.14608354313E-01  0.39400742897E+01  0.39403229520E+01  0.40000000000E-01 0.  1.
</event>
<event>
 5   0  0.7212170E+07  0.9118800E+02  0.7818608E-02  0.1180000E+00
       11   -1    0    0    0    0  0.00000000000E+00  0.00000000000E+00  0.39999999673E+01  0.40000000000E+01  0.51109989000E-03 0.  1.
     -623   -1    0    0    0    0  0.00000000000E+00  0.00000000000E+00  0.12525980253E-10  0.17130000000E+03  0.17130000000E+03 0. -1.
       11    1    1    2    0    0  0.73651229230E-05  0.83785392959E-04  0.23003608523E-03  0.56675738652E-03  0.51109989000E-03 0.  1.
     -623    1    1    2    0    0 -0.12830693525E-03 -0.43182563675E-03  0.53674041179E-03  0.17130000000E+03  0.17130000000E+03 0. -1.
      622    1    1    2    0    0  0.12094181234E-03  0.34804024383E-03  0.39992331913E+01  0.39994332416E+01  0.40000000000E-01 0.  1.
</event>
<event>
 5   0  0.7212170E+07  0.9118800E+02  0.7818608E-02  0.1180000E+00
       11   -1    0    0    0    0  0.00000000000E+00  0.00000000000E+00  0.39999999673E+01  0.40000000000E+01  0.51109989000E-03 0. -1.
     -623   -1    0    0    0    0  0.00000000000E+00  0.00000000000E+00  0.12525980253E-10  0.17130000000E+03  0.17130000000E+03 0. -1.
       11    1    1    2    0    0 -0.16084009326E-01  0.51000287225E-02  0.41690299022E+00  0.41724461665E+00  0.51109989000E-03 0. -1.
     -623    1    1    2    0    0  0.88430062963E-02 -0.13890686071E-01  0.58378793002E-03  0.17130000079E+03  0.17130000000E+03 0. -1.
      622    1    1    2    0    0  0.72410030297E-02  0.87906573479E-02  0.35825131891E+01  0.35827545908E+01  0.40000000000E-01 0. -1.
</event>
<event>
 5   0  0.7212170E+07  0.9118800E+02  0.7818608E-02  0.1180000E+00
       11   -1    0    0    0    0  0.00000000000E+00  0.00000000000E+00  0.39999999673E+01  0.40000000000E+01  0.51109989000E-03 0. -1.
     -623   -1    0    0    0    0  0.00000000000E+00  0.00000000000E+00  0.12525980253E-10  0.17130000000E+03  0.17130000000E+03 0.  1.
       11    1    1    2    0    0 -0.24782238200E-02 -0.72114222094E-02  0.61705841903E-01  0.62177313802E-01  0.51109989000E-03 0. -1.
     -623    1    1    2    0    0  0.10352648583E-01  0.99801337887E-02  0.68405443556E-03  0.17130000060E+03  0.17130000000E+03 0.  1.
      622    1    1    2    0    0 -0.78744247635E-02 -0.27687115800E-02  0.39376100714E+01  0.39378220816E+01  0.40000000000E-01 0. -1.
</event>
<event>
 5   0  0.7212170E+07  0.9118800E+02  0.7818608E-02  0.1180000E+00
       11   -1    0    0    0    0  0.00000000000E+00  0.00000000000E+00  0.39999999673E+01  0.40000000000E+01  0.51109989000E-03 0. -1.
     -623   -1    0    0    0    0  0.00000000000E+00  0.00000000000E+00  0.12525980253E-10  0.17130000000E+03  0.17130000000E+03 0. -1.
       11    1    1    2    0    0  0.11726137306E-01 -0.29186808882E-02  0.80038516781E-01  0.80947182693E-01  0.51109989000E-03 0. -1.
     -623    1    1    2    0    0 -0.22068066118E-01 -0.22252262556E-02  0.11312315857E-02  0.17130000144E+03  0.17130000000E+03 0. -1.
      622    1    1    2    0    0  0.10341928815E-01  0.51439071442E-02  0.39188302196E+01  0.39190513782E+01  0.40000000000E-01 0. -1.
</event>
<event>
 5   0  0.7212170E+07  0.9118800E+02  0.7818608E-02  0.1180000E+00
       11   -1    0    0    0    0  0.00000000000E+00  0.00000000000E+00  0.39999999673E+01  0.40000000000E+01  0.51109989000E-03 0.  1.
     -623   -1    0    0    0    0  0.00000000000E+00  0.00000000000E+00  0.12525980253E-10  0.17130000000E+03  0.17130000000E+03 0.  1.
       11    1    1    2    0    0  0.22134014708E-03  0.18514461702E-02  0.13707377833E-02  0.23700188923E-02  0.51109989000E-03 0.  1.
     -623    1    1    2    0    0 -0.21794475894E-02 -0.24464584168E-02  0.11999314528E-02  0.17130000004E+03  0.17130000000E+03 0.  1.
      622    1    1    2    0    0  0.19581074423E-02  0.59501224655E-03  0.39974292981E+01  0.39976299456E+01  0.40000000000E-01 0.  1.
</event>
<event>
 5   0  0.7212170E+07  0.9118800E+02  0.7818608E-02  0.1180000E+00
       11   -1    0    0    0    0  0.00000000000E+00  0.00000000000E+00  0.39999999673E+01  0.40000000000E+01  0.51109989000E-03 0. -1.
     -623   -1    0    0    0    0  0.00000000000E+00  0.00000000000E+00  0.12525980253E-10  0.17130000000E+03  0.17130000000E+03 0. -1.
       11    1    1    2    0    0 -0.33598421750E-01 -0.14940702606E-01  0.75009553838E+00  0.75099644237E+00  0.51109989000E-03 0. -1.
     -623    1    1    2    0    0  0.21200888278E-02 -0.38579584001E-02  0.13540691979E-02  0.17130000006E+03  0.17130000000E+03 0. -1.
      622    1    1    2    0    0  0.31478332922E-01  0.18798661006E-01  0.32485503599E+01  0.32490034958E+01  0.40000000000E-01 0. -1.
</event>
<event>
 5   0  0.7212170E+07  0.9118800E+02  0.7818608E-02  0.1180000E+00
       11   -1    0    0    0    0  0.00000000000E+00  0.00000000000E+00  0.39999999673E+01  0.40000000000E+01  0.51109989000E-03 0. -1.
     -623   -1    0    0    0    0  0.00000000000E+00  0.00000000000E+00  0.12525980253E-10  0.17130000000E+03  0.17130000000E+03 0. -1.
       11    1    1    2    0    0 -0.19961093877E-01 -0.16880268149E-01  0.15797482772E+01  0.15799646418E+01  0.51109989000E-03 0. -1.
     -623    1    1    2    0    0  0.48443465256E-02  0.15024210485E-01  0.59558886022E-03  0.17130000073E+03  0.17130000000E+03 0. -1.
      622    1    1    2    0    0  0.15116747351E-01  0.18560576630E-02  0.24196561016E+01  0.24200346301E+01  0.40000000000E-01 0. -1.
</event>
<event>
 5   0  0.7212170E+07  0.9118800E+02  0.7818608E-02  0.1180000E+00
       11   -1    0    0    0    0  0.00000000000E+00  0.00000000000E+00  0.39999999673E+01  0.40000000000E+01  0.51109989000E-03 0. -1.
     -623   -1    0    0    0    0  0.00000000000E+00  0.00000000000E+00  0.12525980253E-10  0.17130000000E+03  0.17130000000E+03 0.  1.
       11    1    1    2    0    0 -0.89557468586E-03 -0.36448710915E-02  0.26216302092E+00  0.26219038484E+00  0.51109989000E-03 0. -1.
     -623    1    1    2    0    0  0.17438484077E-02  0.43395854463E-05  0.24324480102E-03  0.17130000001E+03  0.17130000000E+03 0.  1.
      622    1    1    2    0    0 -0.84827372225E-03  0.36405315060E-02  0.37375937025E+01  0.37378096070E+01  0.40000000000E-01 0. -1.
</event>
<event>
 5   0  0.7212170E+07  0.9118800E+02  0.7818608E-02  0.1180000E+00
       11   -1    0    0    0    0  0.00000000000E+00  0.00000000000E+00  0.39999999673E+01  0.40000000000E+01  0.51109989000E-03 0. -1.
     -623   -1    0    0    0    0  0.00000000000E+00  0.00000000000E+00  0.12525980253E-10  0.17130000000E+03  0.17130000000E+03 0. -1.
       11    1    1    2    0    0  0.12677952422E-01  0.65666979841E-02  0.14764187407E+01  0.14764878635E+01  0.51109989000E-03 0. -1.
     -623    1    1    2    0    0  0.31686484693E-02  0.20265667638E-02  0.45056563271E-03  0.17130000004E+03  0.17130000000E+03 0. -1.
      622    1    1    2    0    0 -0.15846600892E-01 -0.85932647479E-02  0.25231306610E+01  0.25235120946E+01  0.40000000000E-01 0.  0.
</event>
<event>
 5   0  0.7212170E+07  0.9118800E+02  0.7818608E-02  0.1180000E+00
       11   -1    0    0    0    0  0.00000000000E+00  0.00000000000E+00  0.39999999673E+01  0.40000000000E+01  0.51109989000E-03 0.  1.
     -623   -1    0    0    0    0  0.00000000000E+00  0.00000000000E+00  0.12525980253E-10  0.17130000000E+03  0.17130000000E+03 0. -1.
       11    1    1    2    0    0 -0.83690935103E-03  0.50554094058E-03  0.49409387744E-02  0.50626167122E-02  0.51109989000E-03 0.  1.
     -623    1    1    2    0    0 -0.20080260022E-03 -0.12104097133E-02  0.32210543546E-03  0.17130000000E+03  0.17130000000E+03 0. -1.
      622    1    1    2    0    0  0.10377119513E-02  0.70486877319E-03  0.39947369246E+01  0.39949373800E+01  0.40000000000E-01 0.  1.
</event>
<event>
 5   0  0.7212170E+07  0.9118800E+02  0.7818608E-02  0.1180000E+00
       11   -1    0    0    0    0  0.00000000000E+00  0.00000000000E+00  0.39999999673E+01  0.40000000000E+01  0.51109989000E-03 0. -1.
     -623   -1    0    0    0    0  0.00000000000E+00  0.00000000000E+00  0.12525980253E-10  0.17130000000E+03  0.17130000000E+03 0.  1.
       11    1    1    2    0    0 -0.27320136148E-02  0.22988704327E-02  0.10297660701E+00  0.10303975698E+00  0.51109989000E-03 0. -1.
     -623    1    1    2    0    0 -0.83192349157E-03  0.63927425538E-03  0.27115182549E-03  0.17130000000E+03  0.17130000000E+03 0.  1.
      622    1    1    2    0    0  0.35639371065E-02 -0.29381446882E-02  0.38967522091E+01  0.38969602402E+01  0.40000000000E-01 0. -1.
</event>
<event>
 5   0  0.7212170E+07  0.9118800E+02  0.7818608E-02  0.1180000E+00
       11   -1    0    0    0    0  0.00000000000E+00  0.00000000000E+00  0.39999999673E+01  0.40000000000E+01  0.51109989000E-03 0. -1.
     -623   -1    0    0    0    0  0.00000000000E+00  0.00000000000E+00  0.12525980253E-10  0.17130000000E+03  0.17130000000E+03 0.  1.
       11    1    1    2    0    0  0.89793467921E-02  0.16936430291E-01  0.11868963666E+01  0.11870512700E+01  0.51109989000E-03 0. -1.
     -623    1    1    2    0    0 -0.12935206803E-01 -0.17151945213E-01  0.44342210678E-03  0.17130000135E+03  0.17130000000E+03 0.  1.
      622    1    1    2    0    0  0.39558600137E-02  0.21551492569E-03  0.28126601796E+01  0.28129473833E+01  0.40000000000E-01 0.  1.
</event>
<event>
 5   0  0.7212170E+07  0.9118800E+02  0.7818608E-02  0.1180000E+00
       11   -1    0    0    0    0  0.00000000000E+00  0.00000000000E+00  0.39999999673E+01  0.40000000000E+01  0.51109989000E-03 0. -1.
     -623   -1    0    0    0    0  0.00000000000E+00  0.00000000000E+00  0.12525980253E-10  0.17130000000E+03  0.17130000000E+03 0.  1.
       11    1    1    2    0    0  0.36828906962E-01  0.15766199624E-01  0.20621790859E+01  0.20625682498E+01  0.51109989000E-03 0. -1.
     -623    1    1    2    0    0 -0.28080561684E-02 -0.22584271333E-03  0.11632553604E-02  0.17130000003E+03  0.17130000000E+03 0.  1.
      622    1    1    2    0    0 -0.34020850794E-01 -0.15540356910E-01  0.19366576261E+01  0.19374317231E+01  0.40000000000E-01 0. -1.
</event>
<event>
 5   0  0.7212170E+07  0.9118800E+02  0.7818608E-02  0.1180000E+00
       11   -1    0    0    0    0  0.00000000000E+00  0.00000000000E+00  0.39999999673E+01  0.40000000000E+01  0.51109989000E-03 0. -1.
     -623   -1    0    0    0    0  0.00000000000E+00  0.00000000000E+00  0.12525980253E-10  0.17130000000E+03  0.17130000000E+03 0.  1.
       11    1    1    2    0    0  0.51044543278E-02  0.30592393938E-02  0.25635153119E+00  0.25642110515E+00  0.51109989000E-03 0. -1.
     -623    1    1    2    0    0 -0.14087176136E-02 -0.17189934802E-03  0.28619067951E-03  0.17130000001E+03  0.17130000000E+03 0.  1.
      622    1    1    2    0    0 -0.36957367137E-02 -0.28873400457E-02  0.37433622469E+01  0.37435788901E+01  0.40000000000E-01 0. -1.
</event>
<event>
 5   0  0.7212170E+07  0.9118800E+02  0.7818608E-02  0.1180000E+00
       11   -1    0    0    0    0  0.00000000000E+00  0.00000000000E+00  0.39999999673E+01  0.40000000000E+01  0.51109989000E-03 0.  1.
     -623   -1    0    0    0    0  0.00000000000E+00  0.00000000000E+00  0.12525980253E-10  0.17130000000E+03  0.17130000000E+03 0. -1.
       11    1    1    2    0    0  0.54135467925E-03  0.17895740529E-02  0.49048473533E-03  0.19993595356E-02  0.51109989000E-03 0.  1.
     -623    1    1    2    0    0  0.17455669680E-02 -0.13402221537E-02  0.17096492198E-02  0.17130000002E+03  0.17130000000E+03 0. -1.
      622    1    1    2    0    0 -0.22869216472E-02 -0.44935189923E-03  0.39977998333E+01  0.39980006176E+01  0.40000000000E-01 0.  1.
</event>
<event>
 5   0  0.7212170E+07  0.9118800E+02  0.7818608E-02  0.1180000E+00
       11   -1    0    0    0    0  0.00000000000E+00  0.00000000000E+00  0.39999999673E+01  0.40000000000E+01  0.51109989000E-03 0. -1.
     -623   -1    0    0    0    0  0.00000000000E+00  0.00000000000E+00  0.12525980253E-10  0.17130000000E+03  0.17130000000E+03 0. -1.
       11    1    1    2    0    0 -0.36519660543E-02 -0.17436242203E-01  0.12921307787E+00  0.13043634507E+00  0.51109989000E-03 0. -1.
     -623    1    1    2    0    0  0.48090119444E-02  0.14650591720E-02  0.14631962734E-02  0.17130000008E+03  0.17130000000E+03 0. -1.
      622    1    1    2    0    0 -0.11570458903E-02  0.15971183031E-01  0.38693236933E+01  0.38695635750E+01  0.40000000000E-01 0. -1.
</event>
<event>
 5   0  0.7212170E+07  0.9118800E+02  0.7818608E-02  0.1180000E+00
       11   -1    0    0    0    0  0.00000000000E+00  0.00000000000E+00  0.39999999673E+01  0.40000000000E+01  0.51109989000E-03 0.  1.
     -623   -1    0    0    0    0  0.00000000000E+00  0.00000000000E+00  0.12525980253E-10  0.17130000000E+03  0.17130000000E+03 0.  1.
       11    1    1    2    0    0 -0.60839182779E-03  0.46489885413E-02  0.97503155588E-01  0.97617159392E-01  0.51109989000E-03 0.  1.
     -623    1    1    2    0    0 -0.57849745438E-03 -0.25046996102E-02  0.31976874589E-03  0.17130000002E+03  0.17130000000E+03 0.  1.
      622    1    1    2    0    0  0.11868892821E-02 -0.21442889313E-02  0.39021770428E+01  0.39023828208E+01  0.40000000000E-01 0.  1.
</event>
<event>
 5   0  0.7212170E+07  0.9118800E+02  0.7818608E-02  0.1180000E+00
       11   -1    0    0    0    0  0.00000000000E+00  0.00000000000E+00  0.39999999673E+01  0.40000000000E+01  0.51109989000E-03 0. -1.
     -623   -1    0    0    0    0  0.00000000000E+00  0.00000000000E+00  0.12525980253E-10  0.17130000000E+03  0.17130000000E+03 0.  1.
       11    1    1    2    0    0  0.16606516300E-01 -0.72316123681E-02  0.13501600776E+00  0.13622648853E+00  0.51109989000E-03 0. -1.
     -623    1    1    2    0    0 -0.15915802672E-02  0.78534046880E-02  0.14469250218E-02  0.17130000019E+03  0.17130000000E+03 0.  1.
      622    1    1    2    0    0 -0.15014936033E-01 -0.62179232003E-03  0.38635370346E+01  0.38637733180E+01  0.40000000000E-01 0. -1.
</event>
<event>
 5   0  0.7212170E+07  0.9118800E+02  0.7818608E-02  0.1180000E+00
       11   -1    0    0    0    0  0.00000000000E+00  0.00000000000E+00  0.39999999673E+01  0.40000000000E+01  0.51109989000E-03 0. -1.
     -623   -1    0    0    0    0  0.00000000000E+00  0.00000000000E+00  0.12525980253E-10  0.17130000000E+03  0.17130000000E+03 0. -1.
       11    1    1    2    0    0 -0.73264183242E-02 -0.37181024779E-02  0.40814787666E-01  0.41636628187E-01  0.51109989000E-03 0. -1.
     -623    1    1    2    0    0  0.29293328752E-03  0.65472403663E-02  0.10313054403E-02  0.17130000013E+03  0.17130000000E+03 0. -1.
      622    1    1    2    0    0  0.70334850366E-02 -0.28291378889E-02  0.39581538746E+01  0.39583632437E+01  0.40000000000E-01 0. -1.
</event>
<event>
 5   0  0.7212170E+07  0.9118800E+02  0.7818608E-02  0.1180000E+00
       11   -1    0    0    0    0  0.00000000000E+00  0.00000000000E+00  0.39999999673E+01  0.40000000000E+01  0.51109989000E-03 0. -1.
     -623   -1    0    0    0    0  0.00000000000E+00  0.00000000000E+00  0.12525980253E-10  0.17130000000E+03  0.17130000000E+03 0. -1.
       11    1    1    2    0    0 -0.65735427204E-02  0.27987206737E-02  0.85579160364E+00  0.85582157860E+00  0.51109989000E-03 0. -1.
     -623    1    1    2    0    0  0.11877509821E-01  0.97965097578E-03  0.29155042817E-03  0.17130000041E+03  0.17130000000E+03 0. -1.
      622    1    1    2    0    0 -0.53039670987E-02 -0.37783716493E-02  0.31439168126E+01  0.31441780059E+01  0.40000000000E-01 0. -1.
</event>
<event>
 5   0  0.7212170E+07  0.9118800E+02  0.7818608E-02  0.1180000E+00
       11   -1    0    0    0    0  0.00000000000E+00  0.00000000000E+00  0.39999999673E+01  0.40000000000E+01  0.51109989000E-03 0. -1.
     -623   -1    0    0    0    0  0.00000000000E+00  0.00000000000E+00  0.12525980253E-10  0.17130000000E+03  0.17130000000E+03 0. -1.
       11    1    1    2    0    0  0.11143154494E-02  0.10919966569E-02  0.25441692085E-02  0.30278995489E-02  0.51109989000E-03 0. -1.
     -623    1    1    2    0    0  0.71335921688E-02 -0.12595972412E-02  0.69252268417E-03  0.17130000015E+03  0.17130000000E+03 0. -1.
      622    1    1    2    0    0 -0.82479076194E-02  0.16760058458E-03  0.39967632762E+01  0.39969719466E+01  0.40000000000E-01 0. -1.
</event>
<event>
 5   0  0.7212170E+07  0.9118800E+02  0.7818608E-02  0.1180000E+00
       11   -1    0    0    0    0  0.00000000000E+00  0.00000000000E+00  0.39999999673E+01  0.40000000000E+01  0.51109989000E-03 0. -1.
     -623   -1    0    0    0    0  0.00000000000E+00  0.00000000000E+00  0.12525980253E-10  0.17130000000E+03  0.17130000000E+03 0. -1.
       11    1    1    2    0    0 -0.16247527547E-01  0.88583739919E-02  0.98605438499E+00  0.98622815024E+00  0.51109989000E-03 0. -1.
     -623    1    1    2    0    0  0.37142824318E-02  0.11280740479E-02  0.48184742181E-03  0.17130000004E+03  0.17130000000E+03 0. -1.
      622    1    1    2    0    0  0.12533245115E-01 -0.99864480398E-02  0.30134637351E+01  0.30137718052E+01  0.40000000000E-01 0.  0.
</event>
<event>
 5   0  0.7212170E+07  0.9118800E+02  0.7818608E-02  0.1180000E+00
       11   -1    0    0    0    0  0.00000000000E+00  0.00000000000E+00  0.39999999673E+01  0.40000000000E+01  0.51109989000E-03 0.  1.
     -623   -1    0    0    0    0  0.00000000000E+00  0.00000000000E+00  0.12525980253E-10  0.17130000000E+03  0.17130000000E+03 0.  1.
       11    1    1    2    0    0 -0.10401808216E-01 -0.27478499071E-02  0.83976546720E-01  0.84664454852E-01  0.51109989000E-03 0.  1.
     -623    1    1    2    0    0  0.12429042893E-02  0.37539431976E-02  0.90309588518E-03  0.17130000005E+03  0.17130000000E+03 0.  1.
      622    1    1    2    0    0  0.91589039263E-02 -0.10060932906E-02  0.39151203249E+01  0.39153354973E+01  0.40000000000E-01 0.  1.
</event>
<event>
 5   0  0.7212170E+07  0.9118800E+02  0.7818608E-02  0.1180000E+00
       11   -1    0    0    0    0  0.00000000000E+00  0.00000000000E+00  0.39999999673E+01  0.40000000000E+01  0.51109989000E-03 0.  1.
     -623   -1    0    0    0    0  0.00000000000E+00  0.00000000000E+00  0.12525980253E-10  0.17130000000E+03  0.17130000000E+03 0. -1.
       11    1    1    2    0    0  0.89285917591E-02  0.27417633540E-02  0.51303334587E+00  0.51311861418E+00  0.51109989000E-03 0.  1.
     -623    1    1    2    0    0 -0.11374024898E-01  0.20412290422E-03  0.31715471394E-03  0.17130000038E+03  0.17130000000E+03 0. -1.
      622    1    1    2    0    0  0.24454331418E-02 -0.29458862583E-02  0.34866494677E+01  0.34868810087E+01  0.40000000000E-01 0.  1.
</event>
<event>
 5   0  0.7212170E+07  0.9118800E+02  0.7818608E-02  0.1180000E+00
       11   -1    0    0    0    0  0.00000000000E+00  0.00000000000E+00  0.39999999673E+01  0.40000000000E+01  0.51109989000E-03 0.  1.
     -623   -1    0    0    0    0  0.00000000000E+00  0.00000000000E+00  0.12525980253E-10  0.17130000000E+03  0.17130000000E+03 0.  1.
       11    1    1    2    0    0 -0.35206717794E-03 -0.10067839606E-02  0.34503158820E-02  0.36473919483E-02  0.51109989000E-03 0.  1.
     -623    1    1    2    0    0  0.41083739398E-03  0.45102132734E-04  0.39734808309E-03  0.17130000000E+03  0.17130000000E+03 0.  1.
      622    1    1    2    0    0 -0.58770216034E-04  0.96168182784E-03  0.39961523033E+01  0.39963526070E+01  0.40000000000E-01 0.  1.
</event>
<event>
 5   0  0.7212170E+07  0.9118800E+02  0.7818608E-02  0.1180000E+00
       11   -1    0    0    0    0  0.00000000000E+00  0.00000000000E+00  0.39999999673E+01  0.40000000000E+01  0.51109989000E-03 0. -1.
     -623   -1    0    0    0    0  0.00000000000E+00  0.00000000000E+00  0.12525980253E-10  0.17130000000E+03  0.17130000000E+03 0. -1.
       11    1    1    2    0    0  0.30887743717E-01 -0.22806596515E-01  0.11031677512E+01  0.11038358312E+01  0.51109989000E-03 0. -1.
     -623    1    1    2    0    0  0.44207753879E-02 -0.34227524844E-02  0.12784406780E-02  0.17130000010E+03  0.17130000000E+03 0. -1.
      622    1    1    2    0    0 -0.35308519105E-01  0.26229348999E-01  0.28955537755E+01  0.28961640729E+01  0.40000000000E-01 0.  0.
</event>
<event>
 5   0  0.7212170E+07  0.9118800E+02  0.7818608E-02  0.1180000E+00
       11   -1    0    0    0    0  0.00000000000E+00  0.00000000000E+00  0.39999999673E+01  0.40000000000E+01  0.51109989000E-03 0. -1.
     -623   -1    0    0    0    0  0.00000000000E+00  0.00000000000E+00  0.12525980253E-10  0.17130000000E+03  0.17130000000E+03 0.  1.
       11    1    1    2    0    0 -0.18789776047E-02 -0.17857380181E-03  0.12559224725E+00  0.12560746887E+00  0.51109989000E-03 0. -1.
     -623    1    1    2    0    0  0.65627874501E-03 -0.11034256725E-02  0.22208848281E-03  0.17130000000E+03  0.17130000000E+03 0.  1.
      622    1    1    2    0    0  0.12226988599E-02  0.12819994739E-02  0.38741856304E+01  0.38743925249E+01  0.40000000000E-01 0. -1.
</event>
<event>
 5   0  0.7212170E+07  0.9118800E+02  0.7818608E-02  0.1180000E+00
       11   -1    0    0    0    0  0.00000000000E+00  0.00000000000E+00  0.39999999673E+01  0.40000000000E+01  0.51109989000E-03 0.  1.
     -623   -1    0    0    0    0  0.00000000000E+00  0.00000000000E+00  0.12525980253E-10  0.17130000000E+03  0.17130000000E+03 0. -1.
       11    1    1    2    0    0  0.10536514579E-01 -0.18598275083E-01  0.37266952240E+00  0.37328239729E+00  0.51109989000E-03 0.  1.
     -623    1    1    2    0    0 -0.15427200392E-01  0.20301209430E-01  0.83903154182E-03  0.17130000190E+03  0.17130000000E+03 0. -1.
      622    1    1    2    0    0  0.48906858149E-02 -0.17029343491E-02  0.36264914138E+01  0.36267157034E+01  0.40000000000E-01 0.  1.
</event>
<event>
 5   0  0.7212170E+07  0.9118800E+02  0.7818608E-02  0.1180000E+00
       11   -1    0    0    0    0  0.00000000000E+00  0.00000000000E+00  0.39999999673E+01  0.40000000000E+01  0.51109989000E-03 0.  1.
     -623   -1    0    0    0    0  0.00000000000E+00  0.00000000000E+00  0.12525980253E-10  0.17130000000E+03  0.17130000000E+03 0. -1.
       11    1    1    2    0    0 -0.10637274475E-02 -0.39507260474E-04  0.24007881533E-02  0.26754595419E-02  0.51109989000E-03 0.  1.
     -623    1    1    2    0    0  0.32138456789E-03 -0.30334705893E-03  0.47486248762E-03  0.17130000000E+03  0.17130000000E+03 0. -1.
      622    1    1    2    0    0  0.74234287960E-03  0.34285431937E-03  0.39971243164E+01  0.39973245389E+01  0.40000000000E-01 0.  1.
</event>
<event>
 5   0  0.7212170E+07  0.9118800E+02  0.7818608E-02  0.1180000E+00
       11   -1    0    0    0    0  0.00000000000E+00  0.00000000000E+00  0.39999999673E+01  0.40000000000E+01  0.51109989000E-03 0. -1.
     -623   -1    0    0    0    0  0.00000000000E+00  0.00000000000E+00  0.12525980253E-10  0.17130000000E+03  0.17130000000E+03 0. -1.
       11    1    1    2    0    0  0.64130229835E-03 -0.22694254688E-02  0.81217128520E-01  0.81252967630E-01  0.51109989000E-03 0. -1.
     -623    1    1    2    0    0  0.61104921019E-03  0.42956087885E-03  0.24059252765E-03  0.17130000000E+03  0.17130000000E+03 0. -1.
      622    1    1    2    0    0 -0.12523515086E-02  0.18398645899E-02  0.39185422467E+01  0.39187470309E+01  0.40000000000E-01 0. -1.
</event>
<event>
 5   0  0.7212170E+07  0.9118800E+02  0.7818608E-02  0.1180000E+00
       11   -1    0    0    0    0  0.00000000000E+00  0.00000000000E+00  0.39999999673E+01  0.40000000000E+01  0.51109989000E-03 0.  1.
     -623   -1    0    0    0    0  0.00000000000E+00  0.00000000000E+00  0.12525980253E-10  0.17130000000E+03  0.17130000000E+03 0.  1.
       11    1    1    2    0    0  0.11424814269E-02  0.20201491708E-02  0.73725472053E-01  0.73763762913E-01  0.51109989000E-03 0.  1.
     -623    1    1    2    0    0 -0.26576554861E-03  0.59946347299E-03  0.24299426041E-03  0.17130000000E+03  0.17130000000E+03 0.  1.
      622    1    1    2    0    0 -0.87671587828E-03 -0.26196126439E-02  0.39260315016E+01  0.39262362363E+01  0.40000000000E-01 0.  1.
</event>
<event>
 5   0  0.7212170E+07  0.9118800E+02  0.7818608E-02  0.1180000E+00
       11   -1    0    0    0    0  0.00000000000E+00  0.00000000000E+00  0.39999999673E+01  0.40000000000E+01  0.51109989000E-03 0.  1.
     -623   -1    0    0    0    0  0.00000000000E+00  0.00000000000E+00  0.12525980253E-10  0.17130000000E+03  0.17130000000E+03 0.  1.
       11    1    1    2    0    0 -0.87248809652E-02 -0.18334542348E-01  0.24353372126E+01  0.24354219099E+01  0.51109989000E-03 0.  1.
     -623    1    1    2    0    0  0.72440822023E-02  0.17340888388E-01  0.59811709915E-03  0.17130000103E+03  0.17130000000E+03 0.  1.
      622    1    1    2    0    0  0.14807987621E-02  0.99365395794E-03  0.15640646380E+01  0.15645770585E+01  0.40000000000E-01 0.  1.
</event>
<event>
 5   0  0.7212170E+07  0.9118800E+02  0.7818608E-02  0.1180000E+00
       11   -1    0    0    0    0  0.00000000000E+00  0.00000000000E+00  0.39999999673E+01  0.40000000000E+01  0.51109989000E-03 0.  1.
     -623   -1    0    0    0    0  0.00000000000E+00  0.00000000000E+00  0.12525980253E-10  0.17130000000E+03  0.17130000000E+03 0.  1.
       11    1    1    2    0    0 -0.42211750523E-02 -0.10002351025E-02  0.35194544643E-01  0.35464573659E-01  0.51109989000E-03 0.  1.
     -623    1    1    2    0    0  0.39704264935E-02 -0.77011745675E-05  0.47197333343E-03  0.17130000005E+03  0.17130000000E+03 0.  1.
      622    1    1    2    0    0  0.25074855884E-03  0.10079362771E-02  0.39643334494E+01  0.39645353797E+01  0.40000000000E-01 0.  1.
</event>
<event>
 5   0  0.7212170E+07  0.9118800E+02  0.7818608E-02  0.1180000E+00
       11   -1    0    0    0    0  0.00000000000E+00  0.00000000000E+00  0.39999999673E+01  0.40000000000E+01  0.51109989000E-03 0. -1.
     -623   -1    0    0    0    0  0.00000000000E+00  0.00000000000E+00  0.12525980253E-10  0.17130000000E+03  0.17130000000E+03 0.  1.
       11    1    1    2    0    0  0.31269378299E-02  0.87011781377E-02  0.86161518614E-01  0.86657698759E-01  0.51109989000E-03 0. -1.
     -623    1    1    2    0    0 -0.16391380630E-02 -0.12102152501E-03  0.71028053943E-03  0.17130000001E+03  0.17130000000E+03 0.  1.
      622    1    1    2    0    0 -0.14877997668E-02 -0.85801566126E-02  0.39131281685E+01  0.39133422922E+01  0.40000000000E-01 0. -1.
</event>
<event>
 5   0  0.7212170E+07  0.9118800E+02  0.7818608E-02  0.1180000E+00
       11   -1    0    0    0    0  0.00000000000E+00  0.00000000000E+00  0.39999999673E+01  0.40000000000E+01  0.51109989000E-03 0.  1.
     -623   -1    0    0    0    0  0.00000000000E+00  0.00000000000E+00  0.12525980253E-10  0.17130000000E+03  0.17130000000E+03 0.  1.
       11    1    1    2    0    0 -0.34639590007E-02 -0.18064422350E-01  0.25777773073E+01  0.25778429800E+01  0.51109989000E-03 0.  1.
     -623    1    1    2    0    0 -0.64199994035E-02 -0.21595359059E-02  0.80664000714E-03  0.17130000014E+03  0.17130000000E+03 0.  1.
      622    1    1    2    0    0  0.98839584041E-02  0.20223958256E-01  0.14214160200E+01  0.14221568841E+01  0.40000000000E-01 0.  0.
</event>
<event>
 5   0  0.7212170E+07  0.9118800E+02  0.7818608E-02  0.1180000E+00
       11   -1    0    0    0    0  0.00000000000E+00  0.00000000000E+00  0.39999999673E+01  0.40000000000E+01  0.51109989000E-03 0.  1.
     -623   -1    0    0    0    0  0.00000000000E+00  0.00000000000E+00  0.12525980253E-10  0.17130000000E+03  0.17130000000E+03 0.  1.
       11    1    1    2    0    0  0.37391492856E-02  0.48746263925E-02  0.13323813923E+00  0.13338068147E+00  0.51109989000E-03 0.  1.
     -623    1    1    2    0    0  0.23842735994E-02 -0.33319204002E-02  0.35462033835E-03  0.17130000005E+03  0.17130000000E+03 0.  1.
      622    1    1    2    0    0 -0.61234228850E-02 -0.15427059923E-02  0.38664072077E+01  0.38666192691E+01  0.40000000000E-01 0.  1.
</event>
<event>
 5   0  0.7212170E+07  0.9118800E+02  0.7818608E-02  0.1180000E+00
       11   -1    0    0    0    0  0.00000000000E+00  0.00000000000E+00  0.39999999673E+01  0.40000000000E+01  0.51109989000E-03 0. -1.
     -623   -1    0    0    0    0  0.00000000000E+00  0.00000000000E+00  0.12525980253E-10  0.17130000000E+03  0.17130000000E+03 0. -1.
       11    1    1    2    0    0 -0.23710809646E-01  0.13847225788E-01  0.15519120167E+01  0.15521549912E+01  0.51109989000E-03 0. -1.
     -623    1    1    2    0    0  0.11468481472E-02  0.65748450467E-03  0.71678236089E-03  0.17130000001E+03  0.17130000000E+03 0. -1.
      622    1    1    2    0    0  0.22563961499E-01 -0.14504710293E-01  0.24473711691E+01  0.24478450029E+01  0.40000000000E-01 0. -1.
</event>
<event>
 5   0  0.7212170E+07  0.9118800E+02  0.7818608E-02  0.1180000E+00
       11   -1    0    0    0    0  0.00000000000E+00  0.00000000000E+00  0.39999999673E+01  0.40000000000E+01  0.51109989000E-03 0. -1.
     -623   -1    0    0    0    0  0.00000000000E+00  0.00000000000E+00  0.12525980253E-10  0.17130000000E+03  0.17130000000E+03 0. -1.
       11    1    1    2    0    0 -0.18791915306E-02 -0.51027112818E-02  0.15720348810E+00  0.15729833730E+00  0.51109989000E-03 0. -1.
     -623    1    1    2    0    0  0.34597434576E-02  0.34789256351E-02  0.30374776180E-03  0.17130000007E+03  0.17130000000E+03 0. -1.
      622    1    1    2    0    0 -0.15805519279E-02  0.16237856458E-02  0.38424927326E+01  0.38427015932E+01  0.40000000000E-01 0. -1.
</event>
<event>
 5   0  0.7212170E+07  0.9118800E+02  0.7818608E-02  0.1180000E+00
       11   -1    0    0    0    0  0.00000000000E+00  0.00000000000E+00  0.39999999673E+01  0.40000000000E+01  0.51109989000E-03 0.  1.
     -623   -1    0    0    0    0  0.00000000000E+00  0.00000000000E+00  0.12525980253E-10  0.17130000000E+03  0.17130000000E+03 0.  1.
       11    1    1    2    0    0 -0.31159290216E-01  0.10620382172E-01  0.24807369523E+01  0.24809554171E+01  0.51109989000E-03 0.  1.
     -623    1    1    2    0    0  0.20411906626E-02  0.38877388571E-03  0.10643023475E-02  0.17130000002E+03  0.17130000000E+03 0.  1.
      622    1    1    2    0    0  0.29118099554E-01 -0.11009156058E-01  0.15181987127E+01  0.15190445670E+01  0.40000000000E-01 0.  0.
</event>
<event>
 5   0  0.7212170E+07  0.9118800E+02  0.7818608E-02  0.1180000E+00
       11   -1    0    0    0    0  0.00000000000E+00  0.00000000000E+00  0.39999999673E+01  0.40000000000E+01  0.51109989000E-03 0.  1.
     -623   -1    0    0    0    0  0.00000000000E+00  0.00000000000E+00  0.12525980253E-10  0.17130000000E+03  0.17130000000E+03 0.  1.
       11    1    1    2    0    0  0.60074997107E-04  0.99599503343E-03  0.39776081422E-02  0.41325784618E-02  0.51109989000E-03 0.  1.
     -623    1    1    2    0    0  0.70712442587E-03 -0.98356238955E-03  0.35522786291E-03  0.17130000000E+03  0.17130000000E+03 0.  1.
      622    1    1    2    0    0 -0.76719942316E-03 -0.12432643631E-04  0.39956671324E+01  0.39958674179E+01  0.40000000000E-01 0.  1.
</event>
<event>
 5   0  0.7212170E+07  0.9118800E+02  0.7818608E-02  0.1180000E+00
       11   -1    0    0    0    0  0.00000000000E+00  0.00000000000E+00  0.39999999673E+01  0.40000000000E+01  0.51109989000E-03 0.  1.
     -623   -1    0    0    0    0  0.00000000000E+00  0.00000000000E+00  0.12525980253E-10  0.17130000000E+03  0.17130000000E+03 0. -1.
       11    1    1    2    0    0 -0.29822181753E-02  0.29969856900E-02  0.44128914652E-01  0.44333935985E-01  0.51109989000E-03 0.  1.
     -623    1    1    2    0    0  0.10298425171E-02 -0.25268746979E-02  0.40776739609E-03  0.17130000002E+03  0.17130000000E+03 0. -1.
      622    1    1    2    0    0  0.19523756579E-02 -0.47011099167E-03  0.39554632861E+01  0.39556660426E+01  0.40000000000E-01 0.  1.
</event>
<event>
 5   0  0.7212170E+07  0.9118800E+02  0.7818608E-02  0.1180000E+00
       11   -1    0    0    0    0  0.00000000000E+00  0.00000000000E+00  0.39999999673E+01  0.40000000000E+01  0.51109989000E-03 0.  1.
     -623   -1    0    0    0    0  0.00000000000E+00  0.00000000000E+00  0.12525980253E-10  0.17130000000E+03  0.17130000000E+03 0. -1.
       11    1    1    2    0    0  0.33234094730E-03 -0.26770720475E-02  0.99005420974E-02  0.10274196911E-01  0.51109989000E-03 0.  1.
     -623    1    1    2    0    0  0.55911412617E-03  0.13110442706E-02  0.57448260237E-03  0.17130000001E+03  0.17130000000E+03 0. -1.
      622    1    1    2    0    0 -0.89145507352E-03  0.13660277768E-02  0.39895249430E+01  0.39897257966E+01  0.40000000000E-01 0.  1.
</event>
<event>
 5   0  0.7212170E+07  0.9118800E+02  0.7818608E-02  0.1180000E+00
       11   -1    0    0    0    0  0.00000000000E+00  0.00000000000E+00  0.39999999673E+01  0.40000000000E+01  0.51109989000E-03 0.  1.
     -623   -1    0    0    0    0  0.00000000000E+00  0.00000000000E+00  0.12525980253E-10  0.17130000000E+03  0.17130000000E+03 0. -1.
       11    1    1    2    0    0  0.23158728620E-02 -0.52118474325E-02  0.22143689893E+00  0.22151092084E+00  0.51109989000E-03 0.  1.
     -623    1    1    2    0    0 -0.83728185779E-03  0.70472446233E-03  0.28870138318E-03  0.17130000000E+03  0.17130000000E+03 0. -1.
      622    1    1    2    0    0 -0.14785910042E-02  0.45071229702E-02  0.37782743670E+01  0.37784890754E+01  0.40000000000E-01 0.  1.
</event>
<event>
 5   0  0.7212170E+07  0.9118800E+02  0.7818608E-02  0.1180000E+00
       11   -1    0    0    0    0  0.00000000000E+00  0.00000000000E+00  0.39999999673E+01  0.40000000000E+01  0.51109989000E-03 0.  1.
     -623   -1    0    0    0    0  0.00000000000E+00  0.00000000000E+00  0.12525980253E-10  0.17130000000E+03  0.17130000000E+03 0. -1.
       11    1    1    2    0    0  0.10124049800E-01 -0.77274887776E-02  0.24710412996E+00  0.24743266303E+00  0.51109989000E-03 0.  1.
     -623    1    1    2    0    0  0.51723560232E-03  0.21738811221E-03  0.56430006690E-03  0.17130000000E+03  0.17130000000E+03 0. -1.
      622    1    1    2    0    0 -0.10641285402E-01  0.75101006654E-02  0.37523315371E+01  0.37525673348E+01  0.40000000000E-01 0.  1.
</event>
<event>
 5   0  0.7212170E+07  0.9118800E+02  0.7818608E-02  0.1180000E+00
       11   -1    0    0    0    0  0.00000000000E+00  0.00000000000E+00  0.39999999673E+01  0.40000000000E+01  0.51109989000E-03 0.  1.
     -623   -1    0    0    0    0  0.00000000000E+00  0.00000000000E+00  0.12525980253E-10  0.17130000000E+03  0.17130000000E+03 0. -1.
       11    1    1    2    0    0  0.44057506835E-02 -0.62635805010E-02  0.72341228504E-01  0.72747217433E-01  0.51109989000E-03 0.  1.
     -623    1    1    2    0    0 -0.96669032105E-02  0.50695371011E-02  0.61372097807E-03  0.17130000035E+03  0.17130000000E+03 0. -1.
      622    1    1    2    0    0  0.52611525271E-02  0.11940433999E-02  0.39270450179E+01  0.39272524337E+01  0.40000000000E-01 0.  1.
</event>
<event>
 5   0  0.7212170E+07  0.9118800E+02  0.7818608E-02  0.1180000E+00
       11   -1    0    0    0    0  0.00000000000E+00  0.00000000000E+00  0.39999999673E+01  0.40000000000E+01  0.51109989000E-03 0. -1.
     -623   -1    0    0    0    0  0.00000000000E+00  0.00000000000E+00  0.12525980253E-10  0.17130000000E+03  0.17130000000E+03 0. -1.
       11    1    1    2    0    0 -0.98523852137E-02  0.39890217863E-02  0.50603033784E+00  0.50614221897E+00  0.51109989000E-03 0. -1.
     -623    1    1    2    0    0 -0.68822016328E-04  0.72197676669E-03  0.35809461201E-03  0.17130000000E+03  0.17130000000E+03 0. -1.
      622    1    1    2    0    0  0.99212072300E-02 -0.47109985532E-02  0.34936115360E+01  0.34938577802E+01  0.40000000000E-01 0. -1.
</event>
<event>
 5   0  0.7212170E+07  0.9118800E+02  0.7818608E-02  0.1180000E+00
       11   -1    0    0    0    0  0.00000000000E+00  0.00000000000E+00  0.39999999673E+01  0.40000000000E+01  0.51109989000E-03 0. -1.
     -623   -1    0    0    0    0  0.00000000000E+00  0.00000000000E+00  0.12525980253E-10  0.17130000000E+03  0.17130000000E+03 0.  1.
       11    1    1    2    0    0  0.11550035839E-02  0.31441181197E-03  0.83016877499E-03  0.15437912290E-02  0.51109989000E-03 0. -1.
     -623    1    1    2    0    0  0.10845159329E-01 -0.63481780911E-02  0.93669674299E-03  0.17130000046E+03  0.17130000000E+03 0.  1.
      622    1    1    2    0    0 -0.12000162912E-01  0.60337662787E-02  0.39982331016E+01  0.39984557450E+01  0.40000000000E-01 0. -1.
</event>
<event>
 5   0  0.7212170E+07  0.9118800E+02  0.7818608E-02  0.1180000E+00
       11   -1    0    0    0    0  0.00000000000E+00  0.00000000000E+00  0.39999999673E+01  0.40000000000E+01  0.51109989000E-03 0. -1.
     -623   -1    0    0    0    0  0.00000000000E+00  0.00000000000E+00  0.12525980253E-10  0.17130000000E+03  0.17130000000E+03 0.  1.
       11    1    1    2    0    0 -0.13550086971E-03  0.96174130233E-03  0.72534858481E-01  0.72543161117E-01  0.51109989000E-03 0. -1.
     -623    1    1    2    0    0 -0.25580191723E-03 -0.10850873026E-02  0.21199462270E-03  0.17130000000E+03  0.17130000000E+03 0.  1.
      622    1    1    2    0    0  0.39130278693E-03  0.12334600027E-03  0.39272531141E+01  0.39274568350E+01  0.40000000000E-01 0. -1.
</event>
<event>
 5   0  0.7212170E+07  0.9118800E+02  0.7818608E-02  0.1180000E+00
       11   -1    0    0    0    0  0.00000000000E+00  0.00000000000E+00  0.39999999673E+01  0.40000000000E+01  0.51109989000E-03 0. -1.
     -623   -1    0    0    0    0  0.00000000000E+00  0.00000000000E+00  0.12525980253E-10  0.17130000000E+03  0.17130000000E+03 0.  1.
       11    1    1    2    0    0  0.17992531117E-04  0.10740554906E-02  0.55716046924E-02  0.56971853466E-02  0.51109989000E-03 0. -1.
     -623    1    1    2    0    0 -0.15309452245E-02  0.21584516245E-03  0.32634042796E-03  0.17130000001E+03  0.17130000000E+03 0.  1.
      622    1    1    2    0    0  0.15129526938E-02 -0.12899006531E-02  0.39941020232E+01  0.39943028083E+01  0.40000000000E-01 0. -1.
</event>
<event>
 5   0  0.7212170E+07  0.9118800E+02  0.7818608E-02  0.1180000E+00
       11   -1    0    0    0    0  0.00000000000E+00  0.00000000000E+00  0.39999999673E+01  0.40000000000E+01  0.51109989000E-03 0. -1.
     -623   -1    0    0    0    0  0.00000000000E+00  0.00000000000E+00  0.12525980253E-10  0.17130000000E+03  0.17130000000E+03 0.  1.
       11    1    1    2    0    0 -0.61351700250E-03  0.46397045339E-03  0.84989721260E-02  0.85490012276E-02  0.51109989000E-03 0. -1.
     -623    1    1    2    0    0 -0.27889868066E-03 -0.25148986697E-03  0.25053587937E-03  0.17130000000E+03  0.17130000000E+03 0.  1.
      622    1    1    2    0    0  0.89241568310E-03 -0.21248058648E-03  0.39912504585E+01  0.39914509973E+01  0.40000000000E-01 0. -1.
</event>
<event>
 5   0  0.7212170E+07  0.9118800E+02  0.7818608E-02  0.1180000E+00
       11   -1    0    0    0    0  0.00000000000E+00  0.00000000000E+00  0.39999999673E+01  0.40000000000E+01  0.51109989000E-03 0. -1.
     -623   -1    0    0    0    0  0.00000000000E+00  0.00000000000E+00  0.12525980253E-10  0.17130000000E+03  0.17130000000E+03 0.  1.
       11    1    1    2    0    0 -0.20322580349E-01  0.60697687383E-03  0.10038456199E+00  0.10242410459E+00  0.51109989000E-03 0. -1.
     -623    1    1    2    0    0  0.26463501300E-03  0.41481638395E-02  0.22993526861E-02  0.17130000007E+03  0.17130000000E+03 0.  1.
      622    1    1    2    0    0  0.20057945336E-01 -0.47551407134E-02  0.38973160527E+01  0.38975758296E+01  0.40000000000E-01 0. -1.
</event>
<event>
 5   0  0.7212170E+07  0.9118800E+02  0.7818608E-02  0.1180000E+00
       11   -1    0    0    0    0  0.00000000000E+00  0.00000000000E+00  0.39999999673E+01  0.40000000000E+01  0.51109989000E-03 0.  1.
     -623   -1    0    0    0    0  0.00000000000E+00  0.00000000000E+00  0.12525980253E-10  0.17130000000E+03  0.17130000000E+03 0. -1.
       11    1    1    2    0    0 -0.44098742778E-02  0.69399116088E-03  0.13039705923E+00  0.13047445303E+00  0.51109989000E-03 0.  1.
     -623    1    1    2    0    0 -0.65271974076E-03  0.12121185132E-02  0.28789758244E-03  0.17130000001E+03  0.17130000000E+03 0. -1.
      622    1    1    2    0    0  0.50625940188E-02 -0.19061096744E-02  0.38693150119E+01  0.38695255426E+01  0.40000000000E-01 0.  1.
</event>
<event>
 5   0  0.7212170E+07  0.9118800E+02  0.7818608E-02  0.1180000E+00
       11   -1    0    0    0    0  0.00000000000E+00  0.00000000000E+00  0.39999999673E+01  0.40000000000E+01  0.51109989000E-03 0. -1.
     -623   -1    0    0    0    0  0.00000000000E+00  0.00000000000E+00  0.12525980253E-10  0.17130000000E+03  0.17130000000E+03 0.  1.
       11    1    1    2    0    0 -0.65612428679E-03  0.10729533673E-01  0.65790798314E+00  0.65799599459E+00  0.51109989000E-03 0. -1.
     -623    1    1    2    0    0  0.11278706365E-01 -0.17732497990E-01  0.35287523070E-03  0.17130000129E+03  0.17130000000E+03 0.  1.
      622    1    1    2    0    0 -0.10622582079E-01  0.70029643192E-02  0.33417391095E+01  0.33420027165E+01  0.40000000000E-01 0. -1.
</event>
<event>
 5   0  0.7212170E+07  0.9118800E+02  0.7818608E-02  0.1180000E+00
       11   -1    0    0    0    0  0.00000000000E+00  0.00000000000E+00  0.39999999673E+01  0.40000000000E+01  0.51109989000E-03 0. -1.
     -623   -1    0    0    0    0  0.00000000000E+00  0.00000000000E+00  0.12525980253E-10  0.17130000000E+03  0.17130000000E+03 0. -1.
       11    1    1    2    0    0 -0.88149384208E-02 -0.38362909461E-03  0.36896358148E+00  0.36906941893E+00  0.51109989000E-03 0. -1.
     -623    1    1    2    0    0  0.42491337398E-01 -0.21974955911E-01  0.55785463049E-03  0.17130000668E+03  0.17130000000E+03 0. -1.
      622    1    1    2    0    0 -0.33676398979E-01  0.22358585007E-01  0.36304785314E+01  0.36309239008E+01  0.40000000000E-01 0.  0.
</event>
<event>
 5   0  0.7212170E+07  0.9118800E+02  0.7818608E-02  0.1180000E+00
       11   -1    0    0    0    0  0.00000000000E+00  0.00000000000E+00  0.39999999673E+01  0.40000000000E+01  0.51109989000E-03 0.  1.
     -623   -1    0    0    0    0  0.00000000000E+00  0.00000000000E+00  0.12525980253E-10  0.17130000000E+03  0.17130000000E+03 0.  1.
       11    1    1    2    0    0  0.59228135508E-02  0.26728954152E-01  0.21378476225E+01  0.21380229735E+01  0.51109989000E-03 0.  1.
     -623    1    1    2    0    0 -0.17828528613E-02  0.96083039962E-03  0.81558538416E-03  0.17130000001E+03  0.17130000000E+03 0.  1.
      622    1    1    2    0    0 -0.41399606893E-02 -0.27689784552E-01  0.18613367600E+01  0.18619770132E+01  0.40000000000E-01 0.  1.
</event>
</LesHouchesEvents>
